 TITLE = "Tecplot data"
 VARIABLES = "X", "Y", "Z" "U", "V", "p", "dispX", "dispY"
 ZONE SOLUTIONTIME=99.900000, NODES=26114 , ELEMENTS=25916, DATAPACKING=POINT, ZONETYPE=FEQUADRILATERAL
0.8652702012 -2.0960309179 0.0000000000 0.0000000000 0.0000000000 -114.2840341922 0.5117168106 -2.4495843086
0.8652702014 -2.8031376989 0.0000000000 0.0000000000 0.0000000000 -807.7368098881 0.5117168106 -2.4495843086
0.1581634199 -2.0960309181 0.0000000000 0.0000000000 0.0000000000 336.5642619440 0.5117168106 -2.4495843086
0.1581634202 -2.8031376994 0.0000000000 0.0000000000 0.0000000000 -1093.7961838418 0.5117168106 -2.4495843086
1.0330366162 -1.9097512014 0.0000000000 0.2234910329 -0.2286674693 -76.7402637265 0.5027065304 -2.4400812873
1.0503437627 -2.9679953339 0.0000000000 0.7278165036 0.6931297317 -624.8515547632 0.5200136764 -2.4376652484
-0.0231467212 -1.9193932515 0.0000000000 0.3112265230 0.0398121284 261.3953537611 0.5071833649 -2.4497233373
-0.0167539277 -2.9805392215 0.0000000000 1.1288127166 -1.1261906661 -706.9952696084 0.5135761579 -2.4502091354
1.5135512413 -1.3173906509 0.0000000000 0.4102962337 -0.2284848796 -44.8169776890 0.4528910697 -2.3780508228
1.6204655549 -3.4302350889 0.0000000000 1.0454494355 0.1080162218 -100.0146609887 0.5598053823 -2.3695749179
-0.5755827317 -1.3854359982 0.0000000000 0.5489353267 -0.0956745133 166.7409954490 0.4850774404 -2.4460961697
-0.5336648072 -3.5100262217 0.0000000000 1.1063301678 -0.4766652754 -145.2901353409 0.5269953640 -2.4493660493
4.4137407830 1.2931546975 0.0000000000 0.3708075288 0.1195076832 -201.5694770310 0.2137407830 -2.0068453025
4.9504759762 -5.2858001089 0.0000000000 1.2261752643 -0.0329970692 -121.2997938567 0.7504759762 -1.9858001089
20.0000000000 4.7000000000 0.0000000000 1.0391469083 -0.1035140938 -0.3571381972 0.0000000000 0.0000000000
20.0000000000 -4.7000000000 0.0000000000 1.0746788074 -0.0767424423 0.8540139160 0.0000000000 0.0000000000
-10.0000000000 15.0000000000 0.0000000000 1.0000000000 0.0000000000 18.6999990746 0.0000000000 0.0000000000
20.0000000000 15.0000000000 0.0000000000 1.0516489245 0.0000000000 -0.0049600677 0.0000000000 0.0000000000
20.0000000000 -15.0000000000 0.0000000000 1.0436067792 0.0000000000 0.0409175170 0.0000000000 0.0000000000
-10.0000000000 -15.0000000000 0.0000000000 1.0000000000 0.0000000000 -23.8811215847 0.0000000000 0.0000000000
0.8782427468 -2.7896706772 0.0000000000 0.0000000000 0.0000000000 -759.9751209546 0.5117168106 -2.4495843086
0.8907026724 -2.7757280140 0.0000000000 0.0000000000 0.0000000000 -712.9786752548 0.5117168106 -2.4495843086
0.9026325520 -2.7613292092 0.0000000000 0.0000000000 0.0000000000 -666.4067073573 0.5117168106 -2.4495843086
0.9140157007 -2.7464944011 0.0000000000 0.0000000000 0.0000000000 -620.6122366210 0.5117168106 -2.4495843086
0.9248361979 -2.7312443373 0.0000000000 0.0000000000 0.0000000000 -575.8012444090 0.5117168106 -2.4495843086
0.9350789104 -2.7156003466 0.0000000000 0.0000000000 0.0000000000 -532.2119534406 0.5117168106 -2.4495843086
0.9447295126 -2.6995843083 0.0000000000 0.0000000000 0.0000000000 -490.0695153067 0.5117168106 -2.4495843086
0.9537745075 -2.6832186224 0.0000000000 0.0000000000 0.0000000000 -449.5950419522 0.5117168106 -2.4495843086
0.9622012447 -2.6665261779 0.0000000000 0.0000000000 0.0000000000 -410.9980391915 0.5117168106 -2.4495843086
0.9699979386 -2.6495303205 0.0000000000 0.0000000000 0.0000000000 -374.4741237947 0.5117168106 -2.4495843086
0.9771536850 -2.6322548205 0.0000000000 0.0000000000 0.0000000000 -340.2007269323 0.5117168106 -2.4495843086
0.9836584758 -2.6147238393 0.0000000000 0.0000000000 0.0000000000 -308.3337523930 0.5117168106 -2.4495843086
0.9895032136 -2.5969618955 0.0000000000 0.0000000000 0.0000000000 -279.0045500012 0.5117168106 -2.4495843086
0.9946797238 -2.5789938309 0.0000000000 0.0000000000 0.0000000000 -252.3173782956 0.5117168106 -2.4495843086
0.9991807667 -2.5608447753 0.0000000000 0.0000000000 0.0000000000 -228.3474316621 0.5117168106 -2.4495843086
1.0030000473 -2.5425401119 0.0000000000 0.0000000000 0.0000000000 -207.1391361725 0.5117168106 -2.4495843086
1.0061322237 -2.5241054414 0.0000000000 0.0000000000 0.0000000000 -188.7046710623 0.5117168106 -2.4495843086
1.0085729156 -2.5055665464 0.0000000000 0.0000000000 0.0000000000 -173.0224168673 0.5117168106 -2.4495843086
1.0103187092 -2.4869493552 0.0000000000 0.0000000000 0.0000000000 -160.0353590170 0.5117168106 -2.4495843086
1.0113671630 -2.4682799055 0.0000000000 0.0000000000 0.0000000000 -149.6493035815 0.5117168106 -2.4495843086
1.0117168106 -2.4495843084 0.0000000000 0.0000000000 0.0000000000 -141.7313249263 0.5117168106 -2.4495843086
1.0113671630 -2.4308887112 0.0000000000 0.0000000000 0.0000000000 -136.1083307098 0.5117168106 -2.4495843086
1.0103187092 -2.4122192616 0.0000000000 0.0000000000 0.0000000000 -132.5668932368 0.5117168106 -2.4495843086
1.0085729155 -2.3936020703 0.0000000000 0.0000000000 0.0000000000 -130.8535634556 0.5117168106 -2.4495843086
1.0061322237 -2.3750631753 0.0000000000 0.0000000000 0.0000000000 -130.6783582626 0.5117168106 -2.4495843086
1.0030000472 -2.3566285048 0.0000000000 0.0000000000 0.0000000000 -131.7180619262 0.5117168106 -2.4495843086
0.9991807667 -2.3383238414 0.0000000000 0.0000000000 0.0000000000 -133.6262396998 0.5117168106 -2.4495843086
0.9946797237 -2.3201747859 0.0000000000 0.0000000000 0.0000000000 -136.0389666988 0.5117168106 -2.4495843086
0.9895032134 -2.3022067212 0.0000000000 0.0000000000 0.0000000000 -138.5954605105 0.5117168106 -2.4495843086
0.9836584757 -2.2844447775 0.0000000000 0.0000000000 0.0000000000 -140.9409530750 0.5117168106 -2.4495843086
0.9771536849 -2.2669137963 0.0000000000 0.0000000000 0.0000000000 -142.7663867142 0.5117168106 -2.4495843086
0.9699979385 -2.2496382963 0.0000000000 0.0000000000 0.0000000000 -143.7913420063 0.5117168106 -2.4495843086
0.9622012445 -2.2326424389 0.0000000000 0.0000000000 0.0000000000 -143.8449973630 0.5117168106 -2.4495843086
0.9537745073 -2.2159499943 0.0000000000 0.0000000000 0.0000000000 -142.7815371155 0.5117168106 -2.4495843086
0.9447295124 -2.1995843085 0.0000000000 0.0000000000 0.0000000000 -140.6659019885 0.5117168106 -2.4495843086
0.9350789102 -2.1835682702 0.0000000000 0.0000000000 0.0000000000 -137.4943083913 0.5117168106 -2.4495843086
0.9248361977 -2.1679242795 0.0000000000 0.0000000000 0.0000000000 -133.6714582203 0.5117168106 -2.4495843086
0.9140157004 -2.1526742157 0.0000000000 0.0000000000 0.0000000000 -129.1926940105 0.5117168106 -2.4495843086
0.9026325518 -2.1378394076 0.0000000000 0.0000000000 0.0000000000 -124.9705198843 0.5117168106 -2.4495843086
0.8907026721 -2.1234406029 0.0000000000 0.0000000000 0.0000000000 -120.4913150842 0.5117168106 -2.4495843086
0.8782427465 -2.1094979396 0.0000000000 0.0000000000 0.0000000000 -117.7688561940 0.5117168106 -2.4495843086
0.8503575964 -2.0817223532 0.0000000000 0.0000000000 0.0000000000 -113.8630274295 0.5117168106 -2.4495843086
0.8348664295 -2.0680422744 0.0000000000 0.0000000000 0.0000000000 -113.8269970622 0.5117168106 -2.4495843086
0.8188231669 -2.0550140538 0.0000000000 0.0000000000 0.0000000000 -115.7194598776 0.5117168106 -2.4495843086
0.8022552182 -2.0426599499 0.0000000000 0.0000000000 0.0000000000 -118.3628653591 0.5117168106 -2.4495843086
0.7851908896 -2.0310010694 0.0000000000 0.0000000000 0.0000000000 -121.6594575453 0.5117168106 -2.4495843086
0.7676593351 -2.0200573314 0.0000000000 0.0000000000 0.0000000000 -124.8601344961 0.5117168106 -2.4495843086
0.7496905071 -2.0098474329 0.0000000000 0.0000000000 0.0000000000 -127.5644538780 0.5117168106 -2.4495843086
0.7313151050 -2.0003888176 0.0000000000 0.0000000000 0.0000000000 -129.3115485229 0.5117168106 -2.4495843086
0.7125645229 -1.9916976452 0.0000000000 0.0000000000 0.0000000000 -129.8545349344 0.5117168106 -2.4495843086
0.6934707958 -1.9837887645 0.0000000000 0.0000000000 0.0000000000 -129.0271728405 0.5117168106 -2.4495843086
0.6740665451 -1.9766756877 0.0000000000 0.0000000000 0.0000000000 -126.7859752365 0.5117168106 -2.4495843086
0.6543849226 -1.9703705673 0.0000000000 0.0000000000 0.0000000000 -123.1390553275 0.5117168106 -2.4495843086
0.6344595541 -1.9648841756 0.0000000000 0.0000000000 0.0000000000 -118.1336574357 0.5117168106 -2.4495843086
0.6143244816 -1.9602258859 0.0000000000 0.0000000000 0.0000000000 -111.8234339210 0.5117168106 -2.4495843086
0.5940141056 -1.9564036569 0.0000000000 0.0000000000 0.0000000000 -104.2615109361 0.5117168106 -2.4495843086
0.5735631261 -1.9534240187 0.0000000000 0.0000000000 0.0000000000 -95.4928094699 0.5117168106 -2.4495843086
0.5530064832 -1.9512920621 0.0000000000 0.0000000000 0.0000000000 -85.5551830034 0.5117168106 -2.4495843086
0.5323792976 -1.9500114294 0.0000000000 0.0000000000 0.0000000000 -74.4800208331 0.5117168106 -2.4495843086
0.5117168105 -1.9495843086 0.0000000000 0.0000000000 0.0000000000 -62.2944847112 0.5117168106 -2.4495843086
0.4910543234 -1.9500114294 0.0000000000 0.0000000000 0.0000000000 -49.0228541916 0.5117168106 -2.4495843086
0.4704271378 -1.9512920621 0.0000000000 0.0000000000 0.0000000000 -34.6878548844 0.5117168106 -2.4495843086
0.4498704949 -1.9534240187 0.0000000000 0.0000000000 0.0000000000 -19.3114810842 0.5117168106 -2.4495843086
0.4294195153 -1.9564036569 0.0000000000 0.0000000000 0.0000000000 -2.9156968624 0.5117168106 -2.4495843086
0.4091091394 -1.9602258859 0.0000000000 0.0000000000 0.0000000000 14.4770265705 0.5117168106 -2.4495843086
0.3889740669 -1.9648841756 0.0000000000 0.0000000000 0.0000000000 32.8431536382 0.5117168106 -2.4495843086
0.3690486984 -1.9703705674 0.0000000000 0.0000000000 0.0000000000 52.1574322086 0.5117168106 -2.4495843086
0.3493670759 -1.9766756878 0.0000000000 0.0000000000 0.0000000000 72.3919870720 0.5117168106 -2.4495843086
0.3299628252 -1.9837887646 0.0000000000 0.0000000000 0.0000000000 93.5149995897 0.5117168106 -2.4495843086
0.3108690982 -1.9916976453 0.0000000000 0.0000000000 0.0000000000 115.4887638400 0.5117168106 -2.4495843086
0.2921185161 -2.0003888177 0.0000000000 0.0000000000 0.0000000000 138.2668903145 0.5117168106 -2.4495843086
0.2737431140 -2.0098474330 0.0000000000 0.0000000000 0.0000000000 161.7904066176 0.5117168106 -2.4495843086
0.2557742859 -2.0200573315 0.0000000000 0.0000000000 0.0000000000 185.9825019389 0.5117168106 -2.4495843086
0.2382427314 -2.0310010695 0.0000000000 0.0000000000 0.0000000000 210.7416806355 0.5117168106 -2.4495843086
0.2211784028 -2.0426599500 0.0000000000 0.0000000000 0.0000000000 235.9331745529 0.5117168106 -2.4495843086
0.2046104541 -2.0550140540 0.0000000000 0.0000000000 0.0000000000 261.3786811951 0.5117168106 -2.4495843086
0.1885671916 -2.0680422746 0.0000000000 0.0000000000 0.0000000000 286.8449169958 0.5117168106 -2.4495843086
0.1730760247 -2.0817223533 0.0000000000 0.0000000000 0.0000000000 312.0321073231 0.5117168106 -2.4495843086
0.1438548552 -2.1109435229 0.0000000000 0.0000000000 0.0000000000 359.9836556610 0.5117168106 -2.4495843086
0.1301747764 -2.1264346898 0.0000000000 0.0000000000 0.0000000000 381.7520546006 0.5117168106 -2.4495843086
0.1171465558 -2.1424779524 0.0000000000 0.0000000000 0.0000000000 401.2607015883 0.5117168106 -2.4495843086
0.1047924519 -2.1590459010 0.0000000000 0.0000000000 0.0000000000 417.8499249761 0.5117168106 -2.4495843086
0.0931335714 -2.1761102297 0.0000000000 0.0000000000 0.0000000000 430.8377115522 0.5117168106 -2.4495843086
0.0821898333 -2.1936417842 0.0000000000 0.0000000000 0.0000000000 439.5550427403 0.5117168106 -2.4495843086
0.0719799349 -2.2116106122 0.0000000000 0.0000000000 0.0000000000 443.3845726342 0.5117168106 -2.4495843086
0.0625213196 -2.2299860143 0.0000000000 0.0000000000 0.0000000000 441.7985671374 0.5117168106 -2.4495843086
0.0538301472 -2.2487365964 0.0000000000 0.0000000000 0.0000000000 434.3920353260 0.5117168106 -2.4495843086
0.0459212665 -2.2678303235 0.0000000000 0.0000000000 0.0000000000 420.9076348495 0.5117168106 -2.4495843086
0.0388081897 -2.2872345741 0.0000000000 0.0000000000 0.0000000000 401.2500606246 0.5117168106 -2.4495843086
0.0325030693 -2.3069161966 0.0000000000 0.0000000000 0.0000000000 375.4889814653 0.5117168106 -2.4495843086
0.0270166776 -2.3268415652 0.0000000000 0.0000000000 0.0000000000 343.8509056501 0.5117168106 -2.4495843086
0.0223583879 -2.3469766377 0.0000000000 0.0000000000 0.0000000000 306.7014190919 0.5117168106 -2.4495843086
0.0185361589 -2.3672870136 0.0000000000 0.0000000000 0.0000000000 264.5199337345 0.5117168106 -2.4495843086
0.0155565207 -2.3877379931 0.0000000000 0.0000000000 0.0000000000 217.8694039549 0.5117168106 -2.4495843086
0.0134245641 -2.4082946360 0.0000000000 0.0000000000 0.0000000000 167.3634945954 0.5117168106 -2.4495843086
0.0121439314 -2.4289218217 0.0000000000 0.0000000000 0.0000000000 113.6335339108 0.5117168106 -2.4495843086
0.0117168106 -2.4495843088 0.0000000000 0.0000000000 0.0000000000 57.2973659873 0.5117168106 -2.4495843086
0.0121439314 -2.4702467959 0.0000000000 0.0000000000 0.0000000000 -1.0680082402 0.5117168106 -2.4495843086
0.0134245641 -2.4908739815 0.0000000000 0.0000000000 0.0000000000 -60.9483437101 0.5117168106 -2.4495843086
0.0155565208 -2.5114306244 0.0000000000 0.0000000000 0.0000000000 -121.9072484130 0.5117168106 -2.4495843086
0.0185361589 -2.5318816039 0.0000000000 0.0000000000 0.0000000000 -183.5935139582 0.5117168106 -2.4495843086
0.0223583880 -2.5521919799 0.0000000000 0.0000000000 0.0000000000 -245.7403293212 0.5117168106 -2.4495843086
0.0270166777 -2.5723270524 0.0000000000 0.0000000000 0.0000000000 -308.1568035221 0.5117168106 -2.4495843086
0.0325030694 -2.5922524209 0.0000000000 0.0000000000 0.0000000000 -370.7130839346 0.5117168106 -2.4495843086
0.0388081898 -2.6119340434 0.0000000000 0.0000000000 0.0000000000 -433.3211405339 0.5117168106 -2.4495843086
0.0459212667 -2.6313382941 0.0000000000 0.0000000000 0.0000000000 -495.9138043194 0.5117168106 -2.4495843086
0.0538301474 -2.6504320211 0.0000000000 0.0000000000 0.0000000000 -558.4247520318 0.5117168106 -2.4495843086
0.0625213198 -2.6691826032 0.0000000000 0.0000000000 0.0000000000 -620.7717737154 0.5117168106 -2.4495843086
0.0719799351 -2.6875580053 0.0000000000 0.0000000000 0.0000000000 -682.8449217366 0.5117168106 -2.4495843086
0.0821898335 -2.7055268333 0.0000000000 0.0000000000 0.0000000000 -744.5002054399 0.5117168106 -2.4495843086
0.0931335716 -2.7230583878 0.0000000000 0.0000000000 0.0000000000 -805.5585764681 0.5117168106 -2.4495843086
0.1047924521 -2.7401227165 0.0000000000 0.0000000000 0.0000000000 -865.8092524657 0.5117168106 -2.4495843086
0.1171465561 -2.7566906651 0.0000000000 0.0000000000 0.0000000000 -925.0160187402 0.5117168106 -2.4495843086
0.1301747767 -2.7727339277 0.0000000000 0.0000000000 0.0000000000 -982.9251166972 0.5117168106 -2.4495843086
0.1438548554 -2.7882250946 0.0000000000 0.0000000000 0.0000000000 -1039.2734306792 0.5117168106 -2.4495843086
0.1730760250 -2.8174462641 0.0000000000 0.0000000000 0.0000000000 -1146.2333875252 0.5117168106 -2.4495843086
0.1885671919 -2.8311263428 0.0000000000 0.0000000000 0.0000000000 -1196.3351860100 0.5117168106 -2.4495843086
0.2046104545 -2.8441545634 0.0000000000 0.0000000000 0.0000000000 -1243.8656244049 0.5117168106 -2.4495843086
0.2211784031 -2.8565086674 0.0000000000 0.0000000000 0.0000000000 -1288.6055278085 0.5117168106 -2.4495843086
0.2382427318 -2.8681675479 0.0000000000 0.0000000000 0.0000000000 -1330.3542417195 0.5117168106 -2.4495843086
0.2557742863 -2.8791112859 0.0000000000 0.0000000000 0.0000000000 -1368.9307874892 0.5117168106 -2.4495843086
0.2737431143 -2.8893211843 0.0000000000 0.0000000000 0.0000000000 -1404.1743994865 0.5117168106 -2.4495843086
0.2921185164 -2.8987797996 0.0000000000 0.0000000000 0.0000000000 -1435.9447351113 0.5117168106 -2.4495843086
0.3108690985 -2.9074709720 0.0000000000 0.0000000000 0.0000000000 -1464.1217854371 0.5117168106 -2.4495843086
0.3299628256 -2.9153798527 0.0000000000 0.0000000000 0.0000000000 -1488.6056237646 0.5117168106 -2.4495843086
0.3493670763 -2.9224929295 0.0000000000 0.0000000000 0.0000000000 -1509.3160218704 0.5117168106 -2.4495843086
0.3690486988 -2.9287980499 0.0000000000 0.0000000000 0.0000000000 -1526.1919980221 0.5117168106 -2.4495843086
0.3889740673 -2.9342844416 0.0000000000 0.0000000000 0.0000000000 -1539.1913178395 0.5117168106 -2.4495843086
0.4091091398 -2.9389427313 0.0000000000 0.0000000000 0.0000000000 -1548.2899786763 0.5117168106 -2.4495843086
0.4294195158 -2.9427649603 0.0000000000 0.0000000000 0.0000000000 -1553.4816886123 0.5117168106 -2.4495843086
0.4498704953 -2.9457445985 0.0000000000 0.0000000000 0.0000000000 -1554.7773552614 0.5117168106 -2.4495843086
0.4704271382 -2.9478765551 0.0000000000 0.0000000000 0.0000000000 -1552.2045848985 0.5117168106 -2.4495843086
0.4910543238 -2.9491571878 0.0000000000 0.0000000000 0.0000000000 -1545.8072037264 0.5117168106 -2.4495843086
0.5117168109 -2.9495843086 0.0000000000 0.0000000000 0.0000000000 -1535.6447861728 0.5117168106 -2.4495843086
0.5323792980 -2.9491571878 0.0000000000 0.0000000000 0.0000000000 -1521.7922176979 0.5117168106 -2.4495843086
0.5530064836 -2.9478765551 0.0000000000 0.0000000000 0.0000000000 -1504.3392370945 0.5117168106 -2.4495843086
0.5735631265 -2.9457445984 0.0000000000 0.0000000000 0.0000000000 -1483.3900550351 0.5117168106 -2.4495843086
0.5940141061 -2.9427649602 0.0000000000 0.0000000000 0.0000000000 -1459.0628595945 0.5117168106 -2.4495843086
0.6143244820 -2.9389427312 0.0000000000 0.0000000000 0.0000000000 -1431.4895596360 0.5117168106 -2.4495843086
0.6344595545 -2.9342844415 0.0000000000 0.0000000000 0.0000000000 -1400.8150925467 0.5117168106 -2.4495843086
0.6543849230 -2.9287980497 0.0000000000 0.0000000000 0.0000000000 -1367.1975787262 0.5117168106 -2.4495843086
0.6740665455 -2.9224929293 0.0000000000 0.0000000000 0.0000000000 -1330.8068546519 0.5117168106 -2.4495843086
0.6934707962 -2.9153798525 0.0000000000 0.0000000000 0.0000000000 -1291.8261531540 0.5117168106 -2.4495843086
0.7125645232 -2.9074709718 0.0000000000 0.0000000000 0.0000000000 -1250.4476606764 0.5117168106 -2.4495843086
0.7313151053 -2.8987797994 0.0000000000 0.0000000000 0.0000000000 -1206.8800699400 0.5117168106 -2.4495843086
0.7496905074 -2.8893211840 0.0000000000 0.0000000000 0.0000000000 -1161.3325111906 0.5117168106 -2.4495843086
0.7676593354 -2.8791112856 0.0000000000 0.0000000000 0.0000000000 -1114.0452340638 0.5117168106 -2.4495843086
0.7851908899 -2.8681675475 0.0000000000 0.0000000000 0.0000000000 -1065.2271714866 0.5117168106 -2.4495843086
0.8022552186 -2.8565086670 0.0000000000 0.0000000000 0.0000000000 -1015.1797932004 0.5117168106 -2.4495843086
0.8188231672 -2.8441545631 0.0000000000 0.0000000000 0.0000000000 -964.0454391746 0.5117168106 -2.4495843086
0.8348664298 -2.8311263424 0.0000000000 0.0000000000 0.0000000000 -912.3188369457 0.5117168106 -2.4495843086
0.8503575967 -2.8174462637 0.0000000000 0.0000000000 0.0000000000 -859.7862247662 0.5117168106 -2.4495843086
1.0693181104 -2.9469320459 0.0000000000 0.6748729299 0.6916098309 -574.5658240875 0.5195292062 -2.4368024930
1.0875140832 -2.9251706019 0.0000000000 0.6238004956 0.6850220499 -525.4369162687 0.5190352905 -2.4359550439
1.1049067119 -2.9027436717 0.0000000000 0.5750718691 0.6734380594 -477.9854500038 0.5185330997 -2.4351263207
1.1214728607 -2.8796862503 0.0000000000 0.5291294672 0.6569730482 -432.5766502931 0.5180245256 -2.4343211115
1.1371907080 -2.8560346769 0.0000000000 0.4863763072 0.6358747797 -389.5477117363 0.5175116269 -2.4335446337
1.1520395498 -2.8318262738 0.0000000000 0.4471407665 0.6105297905 -349.1841110284 0.5169964001 -2.4328022169
1.1659997104 -2.8070991243 0.0000000000 0.4116475025 0.5814595281 -311.7077124083 0.5164806573 -2.4320991247
1.1790525107 -2.7818919055 0.0000000000 0.3799980839 0.5492996450 -277.2682886264 0.5159659654 -2.4314404347
1.1911802786 -2.7562437518 0.0000000000 0.3521651298 0.5147642071 -245.9403257909 0.5154536275 -2.4308309478
1.2023663927 -2.7301941353 0.0000000000 0.3280011856 0.4785993107 -217.7254262128 0.5149447007 -2.4302751175
1.2125953478 -2.7037827588 0.0000000000 0.3072604963 0.4415333169 -192.5597712123 0.5144400361 -2.4297769909
1.2218528296 -2.6770494542 0.0000000000 0.2896290780 0.4042319053 -170.3253115850 0.5139403317 -2.4293401581
1.2301257878 -2.6500340876 0.0000000000 0.2747571327 0.3672648529 -150.8628962956 0.5134461833 -2.4289677072
1.2374024993 -2.6227764684 0.0000000000 0.2622883240 0.3310882190 -133.9855145189 0.5129581295 -2.4286621850
1.2436726204 -2.5953162633 0.0000000000 0.2518823296 0.2960417320 -119.4901860955 0.5124766862 -2.4284255632
1.2489272254 -2.5676929160 0.0000000000 0.2432294537 0.2623580552 -107.1676270496 0.5120023704 -2.4282592110
1.2531588347 -2.5399455718 0.0000000000 0.2360580049 0.2301791418 -96.8094291528 0.5115357149 -2.4281638725
1.2563614320 -2.5121130084 0.0000000000 0.2301361577 0.1995750711 -88.2129583896 0.5110772746 -2.4281396517
1.2585304729 -2.4842335721 0.0000000000 0.2252701869 0.1705619962 -81.1844276207 0.5106276250 -2.4281860022
1.2596628828 -2.4563451198 0.0000000000 0.2213006325 0.1431173458 -75.5406561426 0.5101873542 -2.4283017244
1.2597570470 -2.4284849670 0.0000000000 0.2180974812 0.1171916801 -71.1099645040 0.5097570470 -2.4284849673
1.2588127919 -2.4006898430 0.0000000000 0.2155550511 0.0927173719 -67.7325411643 0.5093372633 -2.4287332390
1.2568313593 -2.3729958513 0.0000000000 0.2135870084 0.0696146208 -65.2605090353 0.5089285114 -2.4290434218
1.2538153746 -2.3454384400 0.0000000000 0.2121217938 0.0477953562 -63.5578369530 0.5085312172 -2.4294117974
1.2497688128 -2.3180523800 0.0000000000 0.2110986377 0.0271655088 -62.5001860769 0.5081456931 -2.4298340799
1.2446969629 -2.2908717546 0.0000000000 0.2104642712 0.0076260286 -61.9747475613 0.5077721080 -2.4303054602
1.2386063939 -2.2639299633 0.0000000000 0.2101703632 -0.0109270344 -61.8801077473 0.5074104598 -2.4308206640
1.2315049230 -2.2372597411 0.0000000000 0.2101716612 -0.0286030801 -62.1261644151 0.5070605534 -2.4313740251
1.2234015872 -2.2108931950 0.0000000000 0.2104247718 -0.0455177641 -62.6341076947 0.5067219829 -2.4319595761
1.2143066157 -2.1848618609 0.0000000000 0.2108875119 -0.0617935395 -63.3364677969 0.5063941180 -2.4325711576
1.2042314038 -2.1591967779 0.0000000000 0.2115187764 -0.0775591860 -64.1772139842 0.5060760924 -2.4332025464
1.1931884839 -2.1339285810 0.0000000000 0.2122789179 -0.0929472712 -65.1118601634 0.5057667920 -2.4338475994
1.1811914928 -2.1090876061 0.0000000000 0.2131306965 -0.1080881594 -66.1074886278 0.5054648420 -2.4345004106
1.1682551351 -2.0847040042 0.0000000000 0.2140409247 -0.1230989280 -67.1425458082 0.5051685901 -2.4351554755
1.1543951429 -2.0608078584 0.0000000000 0.2149829830 -0.1380655636 -68.2062014743 0.5048760902 -2.4358078586
1.1396282405 -2.0374293011 0.0000000000 0.2159403607 -0.1530173620 -69.2970158301 0.5045850912 -2.4364533586
1.1239721229 -2.0145986269 0.0000000000 0.2169112255 -0.1678938989 -70.4206587685 0.5042930423 -2.4370886705
1.1074454579 -1.9923464055 0.0000000000 0.2179136540 -0.1825075588 -71.5865096250 0.5039971231 -2.4377115448
1.0900678949 -1.9707036006 0.0000000000 0.2189904977 -0.1965084595 -72.8031581429 0.5036942831 -2.4383209521
1.0718600064 -1.9497017199 0.0000000000 0.2202119923 -0.2093630739 -74.0731545846 0.5033812141 -2.4389172784
1.0528429000 -1.9293729960 0.0000000000 0.2216736288 -0.2203610076 -75.3875206159 0.5030539962 -2.4395025494
1.0104389031 -1.8887708003 0.0000000000 0.2261125277 -0.2337253813 -78.1485419707 0.5024777244 -2.4405637333
0.9869561237 -1.8687255382 0.0000000000 0.2294389608 -0.2334532714 -79.4295153243 0.5022316954 -2.4410385894
0.9626336184 -1.8496459716 0.0000000000 0.2335181628 -0.2272731831 -80.4684373155 0.5019740840 -2.4415013537
0.9375168352 -1.8315640653 0.0000000000 0.2383219423 -0.2152021991 -81.1309022315 0.5017092238 -2.4419506033
0.9116522169 -1.8145110638 0.0000000000 0.2437194059 -0.1979665791 -81.2788163365 0.5014410984 -2.4423859226
0.8850874083 -1.7985168830 0.0000000000 0.2495037511 -0.1769072974 -80.7846779520 0.5011736216 -2.4428073489
0.8578713612 -1.7836099035 0.0000000000 0.2554404556 -0.1537141525 -79.5459702868 0.5009108165 -2.4432152169
0.8300543182 -1.7698168417 0.0000000000 0.2613234335 -0.1300632004 -77.4951915434 0.5006568766 -2.4436100781
0.8016877134 -1.7571626246 0.0000000000 0.2670171154 -0.1072818966 -74.6024889437 0.5004161450 -2.4439926197
0.7728240151 -1.7456702627 0.0000000000 0.2724693963 -0.0861544341 -70.8701482394 0.5001930373 -2.4443635788
0.7435165332 -1.7353607357 0.0000000000 0.2776952036 -0.0669139504 -66.3213315032 0.4999919314 -2.4447236670
0.7138192123 -1.7262528986 0.0000000000 0.2827441361 -0.0493844728 -60.9875856224 0.4998170443 -2.4450735105
0.6837864287 -1.7183634074 0.0000000000 0.2876696027 -0.0331818314 -54.8994147418 0.4996723135 -2.4454136069
0.6534728001 -1.7117066608 0.0000000000 0.2925104561 -0.0178848302 -48.0818968782 0.4995612935 -2.4457442948
0.6229330163 -1.7062947570 0.0000000000 0.2972860713 -0.0031322660 -40.5546140400 0.4994870737 -2.4460657346
0.5922216930 -1.7021374639 0.0000000000 0.3019995532 0.0113491903 -32.3337091542 0.4994522197 -2.4463778987
0.5613932461 -1.6992422031 0.0000000000 0.3066433212 0.0257559280 -23.4340858954 0.4994587371 -2.4466805729
0.5305017843 -1.6976140490 0.0000000000 0.3112039066 0.0402288298 -13.8708452612 0.4995080538 -2.4469733678
0.4996010159 -1.6972557407 0.0000000000 0.3156651457 0.0548708272 -3.6599776699 0.4996010160 -2.4472557407
0.4687441648 -1.6981677043 0.0000000000 0.3200099431 0.0697573719 7.1813443452 0.4997378957 -2.4475270231
0.4379838938 -1.7003480837 0.0000000000 0.3242208790 0.0849408025 18.6345994775 0.4999184031 -2.4477864534
0.4073722312 -1.7037927730 0.0000000000 0.3282797473 0.1004494780 30.6797359303 0.5001417049 -2.4480332078
0.3769605013 -1.7084954517 0.0000000000 0.3321658816 0.1162812364 43.2948906276 0.5004064442 -2.4482664293
0.3467992571 -1.7144476175 0.0000000000 0.3358529055 0.1323893827 56.4559297711 0.5007107639 -2.4484852515
0.3169382164 -1.7216386203 0.0000000000 0.3393033438 0.1486580912 70.1357310884 0.5010523320 -2.4486888197
0.2874262014 -1.7300556979 0.0000000000 0.3424604825 0.1648630501 84.3031348957 0.5014283698 -2.4488763097
0.2583110817 -1.7396840159 0.0000000000 0.3452374281 0.1806139640 98.9214253432 0.5018356838 -2.4490469472
0.2296397224 -1.7505067145 0.0000000000 0.3475052160 0.1952816234 113.9459278473 0.5022707005 -2.4492000305
0.2014579374 -1.7625049633 0.0000000000 0.3490852087 0.2079268788 129.3199078758 0.5027295060 -2.4493349582
0.1738104486 -1.7756580239 0.0000000000 0.3497542800 0.2172693286 144.9680238391 0.5032078904 -2.4494512603
0.1467408526 -1.7899433196 0.0000000000 0.3492709381 0.2217467272 160.7878571597 0.5037013975 -2.4495486329
0.1202915948 -1.8053365076 0.0000000000 0.3474238502 0.2197034059 176.6422756218 0.5042053818 -2.4496269733
0.0945039542 -1.8218115527 0.0000000000 0.3440926507 0.2096987995 192.3569282534 0.5047150730 -2.4496864113
0.0694180373 -1.8393407966 0.0000000000 0.3393007874 0.1908617391 207.7261634172 0.5052256491 -2.4497273344
0.0450727834 -1.8578950229 0.0000000000 0.3332388035 0.1631699756 222.5271570065 0.5057323181 -2.4497504048
0.0215059792 -1.8774435139 0.0000000000 0.3262462899 0.1275420799 236.5380882266 0.5062304078 -2.4497565649
-0.0012457158 -1.8979541047 0.0000000000 0.3187570844 0.0856949571 249.5540671347 0.5067154631 -2.4497470375
-0.0441624862 -1.9417253558 0.0000000000 0.3040648894 -0.0078634884 271.9059107630 0.5076304470 -2.4496865344
-0.0642595653 -1.9649146796 0.0000000000 0.2975936354 -0.0553868238 280.9467034932 0.5080534860 -2.4496391078
-0.0834055007 -1.9889233966 0.0000000000 0.2920329167 -0.1013319901 288.3870994891 0.5084498815 -2.4495829309
-0.1015688120 -2.0137124029 0.0000000000 0.2875121816 -0.1448581479 294.1011403027 0.5088177261 -2.4495200143
-0.1187190364 -2.0392412893 0.0000000000 0.2840944827 -0.1856513101 297.9678191596 0.5091558224 -2.4494524077
-0.1348267754 -2.0654683508 0.0000000000 0.2818037657 -0.2237970155 299.8736861862 0.5094636905 -2.4493821374
-0.1498637705 -2.0923506107 0.0000000000 0.2806484401 -0.2596355347 299.7157716265 0.5097415430 -2.4493111553
-0.1638030084 -2.1198438562 0.0000000000 0.2806384278 -0.2936339479 297.4039137463 0.5099902282 -2.4492412976
-0.1766188508 -2.1479026843 0.0000000000 0.2817955685 -0.3262904383 292.8624597449 0.5102111443 -2.4491742526
-0.1882871816 -2.1764805608 0.0000000000 0.2841585492 -0.3580722286 286.0315754233 0.5104061345 -2.4491115384
-0.1987855595 -2.2055298885 0.0000000000 0.2877838245 -0.3893812703 276.8683019525 0.5105773718 -2.4490544902
-0.2080933677 -2.2350020865 0.0000000000 0.2927438415 -0.4205396772 265.3473142731 0.5107272442 -2.4490042544
-0.2161919506 -2.2648476752 0.0000000000 0.2991236336 -0.4517876984 251.4612130079 0.5108582489 -2.4489617903
-0.2230647317 -2.2950163680 0.0000000000 0.3070166451 -0.4832888856 235.2201697041 0.5109729023 -2.4489278744
-0.2286973077 -2.3254571646 0.0000000000 0.3165204800 -0.5151389130 216.6508298636 0.5110736699 -2.4489031070
-0.2330775188 -2.3561184468 0.0000000000 0.3277330876 -0.5473758426 195.7945068075 0.5111629161 -2.4488879199
-0.2361954961 -2.3869480748 0.0000000000 0.3407497048 -0.5799904875 172.7048138313 0.5112428737 -2.4488825836
-0.2380436898 -2.4178934832 0.0000000000 0.3556606777 -0.6129360528 147.4449478785 0.5113156290 -2.4488872136
-0.2386168811 -2.4489017773 0.0000000000 0.3725501341 -0.6461365700 120.0848519237 0.5113831189 -2.4489017770
-0.2379121823 -2.4799198294 0.0000000000 0.3914953713 -0.6794938792 90.6984621624 0.5114471365 -2.4489260984
-0.2359290291 -2.5108943753 0.0000000000 0.4125667715 -0.7128930855 59.3612101010 0.5115093407 -2.4489598659
-0.2326691648 -2.5417721110 0.0000000000 0.4358280413 -0.7462065511 26.1479120242 0.5115712700 -2.4490026372
-0.2281366204 -2.5724997899 0.0000000000 0.4613365820 -0.7792965659 -8.8688561916 0.5116343571 -2.4490538469