 TITLE = "Tecplot data"
 VARIABLES = "X", "Y", "Z" "U", "V", "p", "dispX", "dispY"
 ZONE SOLUTIONTIME=79.900000, NODES=26114 , ELEMENTS=25916, DATAPACKING=POINT, ZONETYPE=FEQUADRILATERAL
0.5031580708 -0.0233913471 0.0000000000 0.0000000000 0.0000000000 -1186.7697019186 0.1496046802 -0.3769447377
0.5031580711 -0.7304981281 0.0000000000 0.0000000000 0.0000000000 -403.7386659402 0.1496046802 -0.3769447377
-0.2039487105 -0.0233913472 0.0000000000 0.0000000000 0.0000000000 821.6771617241 0.1496046802 -0.3769447377
-0.2039487102 -0.7304981285 0.0000000000 0.0000000000 0.0000000000 357.3222661952 0.1496046802 -0.3769447377
0.6784207389 0.1548356183 0.0000000000 0.4667632589 -0.0954027059 -705.1349525421 0.1480906531 -0.3754944676
0.6806840042 -0.9055652494 0.0000000000 -0.0931340319 -0.1422094672 -421.5918088266 0.1503539180 -0.3752351639
-0.3815636358 0.1532986937 0.0000000000 0.7806210282 0.4256960808 542.1025655571 0.1487664503 -0.3770313921
-0.3806540210 -0.9072251281 0.0000000000 0.3577012073 -0.5004664198 372.6905664995 0.1496760646 -0.3768950419
1.2003261922 0.6944706160 0.0000000000 0.5272873624 0.0038459501 -314.4711333091 0.1396660205 -0.3661895559
1.2144271897 -1.4257971604 0.0000000000 0.5211978500 0.6028639689 -362.1471464269 0.1537670172 -0.3651369894
-0.9160384428 0.6838633596 0.0000000000 0.8357270372 0.1864627258 286.3534697817 0.1446217293 -0.3767968119
-0.9103086490 -1.4368175665 0.0000000000 0.8095860574 -0.3270193481 321.8720658731 0.1503515222 -0.3761573942
4.3002328654 2.9891479704 0.0000000000 1.1457926524 -0.1656473592 -133.9904915237 0.1002328654 -0.3108520296
4.3711998900 -3.6108566858 0.0000000000 1.1664070838 0.0287889667 -57.1444242922 0.1711998900 -0.3108566858
20.0000000000 4.7000000000 0.0000000000 1.0769003413 0.0226586768 0.0623212937 0.0000000000 0.0000000000
20.0000000000 -4.7000000000 0.0000000000 1.0443951034 -0.0512318627 0.4976492373 0.0000000000 0.0000000000
-10.0000000000 15.0000000000 0.0000000000 1.0000000000 0.0000000000 74.2765780391 0.0000000000 0.0000000000
20.0000000000 15.0000000000 0.0000000000 1.0459189540 0.0000000000 0.0180738961 0.0000000000 0.0000000000
20.0000000000 -15.0000000000 0.0000000000 1.0442172445 0.0000000000 0.0225754842 0.0000000000 0.0000000000
-10.0000000000 -15.0000000000 0.0000000000 1.0000000000 0.0000000000 105.8282384749 0.0000000000 0.0000000000
0.5161306164 -0.7170311063 0.0000000000 0.0000000000 0.0000000000 -407.6724027860 0.1496046802 -0.3769447377
0.5285905420 -0.7030884431 0.0000000000 0.0000000000 0.0000000000 -411.3306492156 0.1496046802 -0.3769447377
0.5405204217 -0.6886896384 0.0000000000 0.0000000000 0.0000000000 -414.9258348042 0.1496046802 -0.3769447377
0.5519035703 -0.6738548302 0.0000000000 0.0000000000 0.0000000000 -418.4847033071 0.1496046802 -0.3769447377
0.5627240676 -0.6586047665 0.0000000000 0.0000000000 0.0000000000 -422.1163322484 0.1496046802 -0.3769447377
0.5729667800 -0.6429607757 0.0000000000 0.0000000000 0.0000000000 -425.8911246596 0.1496046802 -0.3769447377
0.5826173823 -0.6269447374 0.0000000000 0.0000000000 0.0000000000 -429.8906292625 0.1496046802 -0.3769447377
0.5916623771 -0.6105790516 0.0000000000 0.0000000000 0.0000000000 -434.1878508563 0.1496046802 -0.3769447377
0.6000891143 -0.5938866070 0.0000000000 0.0000000000 0.0000000000 -438.8554425824 0.1496046802 -0.3769447377
0.6078858083 -0.5768907496 0.0000000000 0.0000000000 0.0000000000 -443.9641389931 0.1496046802 -0.3769447377
0.6150415546 -0.5596152496 0.0000000000 0.0000000000 0.0000000000 -449.5854412947 0.1496046802 -0.3769447377
0.6215463455 -0.5420842684 0.0000000000 0.0000000000 0.0000000000 -455.7931960611 0.1496046802 -0.3769447377
0.6273910832 -0.5243223247 0.0000000000 0.0000000000 0.0000000000 -462.6656356194 0.1496046802 -0.3769447377
0.6325675934 -0.5063542600 0.0000000000 0.0000000000 0.0000000000 -470.2868595391 0.1496046802 -0.3769447377
0.6370686364 -0.4882052044 0.0000000000 0.0000000000 0.0000000000 -478.7476393439 0.1496046802 -0.3769447377
0.6408879169 -0.4699005411 0.0000000000 0.0000000000 0.0000000000 -488.1451075852 0.1496046802 -0.3769447377
0.6440200934 -0.4514658706 0.0000000000 0.0000000000 0.0000000000 -498.5812699292 0.1496046802 -0.3769447377
0.6464607852 -0.4329269755 0.0000000000 0.0000000000 0.0000000000 -510.1601605210 0.1496046802 -0.3769447377
0.6482065788 -0.4143097843 0.0000000000 0.0000000000 0.0000000000 -522.9841516010 0.1496046802 -0.3769447377
0.6492550326 -0.3956403346 0.0000000000 0.0000000000 0.0000000000 -537.1492517400 0.1496046802 -0.3769447377
0.6496046802 -0.3769447375 0.0000000000 0.0000000000 0.0000000000 -552.7408477937 0.1496046802 -0.3769447377
0.6492550326 -0.3582491404 0.0000000000 0.0000000000 0.0000000000 -569.8287658877 0.1496046802 -0.3769447377
0.6482065788 -0.3395796907 0.0000000000 0.0000000000 0.0000000000 -588.4650390087 0.1496046802 -0.3769447377
0.6464607851 -0.3209624995 0.0000000000 0.0000000000 0.0000000000 -608.6797881741 0.1496046802 -0.3769447377
0.6440200933 -0.3024236045 0.0000000000 0.0000000000 0.0000000000 -630.4839613125 0.1496046802 -0.3769447377
0.6408879168 -0.2839889340 0.0000000000 0.0000000000 0.0000000000 -653.8644081750 0.1496046802 -0.3769447377
0.6370686363 -0.2656842706 0.0000000000 0.0000000000 0.0000000000 -678.7957820043 0.1496046802 -0.3769447377
0.6325675933 -0.2475352150 0.0000000000 0.0000000000 0.0000000000 -705.2272533318 0.1496046802 -0.3769447377
0.6273910831 -0.2295671504 0.0000000000 0.0000000000 0.0000000000 -733.1136187013 0.1496046802 -0.3769447377
0.6215463453 -0.2118052066 0.0000000000 0.0000000000 0.0000000000 -762.3728665785 0.1496046802 -0.3769447377
0.6150415545 -0.1942742254 0.0000000000 0.0000000000 0.0000000000 -792.9655835056 0.1496046802 -0.3769447377
0.6078858081 -0.1769987254 0.0000000000 0.0000000000 0.0000000000 -824.7696261772 0.1496046802 -0.3769447377
0.6000891141 -0.1600028680 0.0000000000 0.0000000000 0.0000000000 -857.7907576917 0.1496046802 -0.3769447377
0.5916623769 -0.1433104235 0.0000000000 0.0000000000 0.0000000000 -891.8133219191 0.1496046802 -0.3769447377
0.5826173821 -0.1269447376 0.0000000000 0.0000000000 0.0000000000 -926.9709727592 0.1496046802 -0.3769447377
0.5729667798 -0.1109286994 0.0000000000 0.0000000000 0.0000000000 -962.7953109621 0.1496046802 -0.3769447377
0.5627240673 -0.0952847086 0.0000000000 0.0000000000 0.0000000000 -999.7717990722 0.1496046802 -0.3769447377
0.5519035701 -0.0800346449 0.0000000000 0.0000000000 0.0000000000 -1036.7509588716 0.1496046802 -0.3769447377
0.5405204214 -0.0651998367 0.0000000000 0.0000000000 0.0000000000 -1075.2356739769 0.1496046802 -0.3769447377
0.5285905418 -0.0508010320 0.0000000000 0.0000000000 0.0000000000 -1112.1675048598 0.1496046802 -0.3769447377
0.5161306161 -0.0368583688 0.0000000000 0.0000000000 0.0000000000 -1152.2786617974 0.1496046802 -0.3769447377
0.4882454660 -0.0090827823 0.0000000000 0.0000000000 0.0000000000 -1229.9104427691 0.1496046802 -0.3769447377
0.4727542991 0.0045972964 0.0000000000 0.0000000000 0.0000000000 -1268.3577333982 0.1496046802 -0.3769447377
0.4567110365 0.0176255170 0.0000000000 0.0000000000 0.0000000000 -1306.0778259175 0.1496046802 -0.3769447377
0.4401430879 0.0299796210 0.0000000000 0.0000000000 0.0000000000 -1340.4417498114 0.1496046802 -0.3769447377
0.4230787592 0.0416385015 0.0000000000 0.0000000000 0.0000000000 -1371.5172683609 0.1496046802 -0.3769447377
0.4055472047 0.0525822395 0.0000000000 0.0000000000 0.0000000000 -1398.1359151551 0.1496046802 -0.3769447377
0.3875783767 0.0627921379 0.0000000000 0.0000000000 0.0000000000 -1419.6326042412 0.1496046802 -0.3769447377
0.3692029746 0.0722507533 0.0000000000 0.0000000000 0.0000000000 -1435.1255203188 0.1496046802 -0.3769447377
0.3504523925 0.0809419256 0.0000000000 0.0000000000 0.0000000000 -1443.8698119553 0.1496046802 -0.3769447377
0.3313586654 0.0888508063 0.0000000000 0.0000000000 0.0000000000 -1445.1551168816 0.1496046802 -0.3769447377
0.3119544147 0.0959638832 0.0000000000 0.0000000000 0.0000000000 -1438.3942693566 0.1496046802 -0.3769447377
0.2922727923 0.1022690035 0.0000000000 0.0000000000 0.0000000000 -1423.1315349354 0.1496046802 -0.3769447377
0.2723474237 0.1077553953 0.0000000000 0.0000000000 0.0000000000 -1399.0740986151 0.1496046802 -0.3769447377
0.2522123512 0.1124136850 0.0000000000 0.0000000000 0.0000000000 -1366.1037545617 0.1496046802 -0.3769447377
0.2319019753 0.1162359140 0.0000000000 0.0000000000 0.0000000000 -1324.2807203107 0.1496046802 -0.3769447377
0.2114509958 0.1192155522 0.0000000000 0.0000000000 0.0000000000 -1273.8347182180 0.1496046802 -0.3769447377
0.1908943529 0.1213475088 0.0000000000 0.0000000000 0.0000000000 -1215.1450755717 0.1496046802 -0.3769447377
0.1702671672 0.1226281415 0.0000000000 0.0000000000 0.0000000000 -1148.7124279256 0.1496046802 -0.3769447377
0.1496046801 0.1230552623 0.0000000000 0.0000000000 0.0000000000 -1075.1254885862 0.1496046802 -0.3769447377
0.1289421930 0.1226281415 0.0000000000 0.0000000000 0.0000000000 -995.0274082275 0.1496046802 -0.3769447377
0.1083150074 0.1213475088 0.0000000000 0.0000000000 0.0000000000 -909.0857174099 0.1496046802 -0.3769447377
0.0877583645 0.1192155521 0.0000000000 0.0000000000 0.0000000000 -817.9691314297 0.1496046802 -0.3769447377
0.0673073850 0.1162359140 0.0000000000 0.0000000000 0.0000000000 -722.3329540869 0.1496046802 -0.3769447377
0.0469970090 0.1124136849 0.0000000000 0.0000000000 0.0000000000 -622.8132760014 0.1496046802 -0.3769447377
0.0268619365 0.1077553952 0.0000000000 0.0000000000 0.0000000000 -520.0287086963 0.1496046802 -0.3769447377
0.0069365680 0.1022690035 0.0000000000 0.0000000000 0.0000000000 -414.5874242267 0.1496046802 -0.3769447377
-0.0127450545 0.0959638831 0.0000000000 0.0000000000 0.0000000000 -307.0968454553 0.1496046802 -0.3769447377
-0.0321493052 0.0888508063 0.0000000000 0.0000000000 0.0000000000 -198.1734611644 0.1496046802 -0.3769447377
-0.0512430322 0.0809419256 0.0000000000 0.0000000000 0.0000000000 -88.4507702078 0.1496046802 -0.3769447377
-0.0699936143 0.0722507532 0.0000000000 0.0000000000 0.0000000000 21.4159045158 0.1496046802 -0.3769447377
-0.0883690164 0.0627921378 0.0000000000 0.0000000000 0.0000000000 130.7482515873 0.1496046802 -0.3769447377
-0.1063378444 0.0525822394 0.0000000000 0.0000000000 0.0000000000 238.8473834470 0.1496046802 -0.3769447377
-0.1238693990 0.0416385013 0.0000000000 0.0000000000 0.0000000000 344.9993855031 0.1496046802 -0.3769447377
-0.1409337276 0.0299796208 0.0000000000 0.0000000000 0.0000000000 448.4834119243 0.1496046802 -0.3769447377
-0.1575016762 0.0176255169 0.0000000000 0.0000000000 0.0000000000 548.5817327658 0.1496046802 -0.3769447377
-0.1735449388 0.0045972963 0.0000000000 0.0000000000 0.0000000000 644.5911716523 0.1496046802 -0.3769447377
-0.1890361057 -0.0090827825 0.0000000000 0.0000000000 0.0000000000 735.8353612694 0.1496046802 -0.3769447377
-0.2182572752 -0.0383039520 0.0000000000 0.0000000000 0.0000000000 901.5304915040 0.1496046802 -0.3769447377
-0.2319373540 -0.0537951189 0.0000000000 0.0000000000 0.0000000000 974.8708149403 0.1496046802 -0.3769447377
-0.2449655746 -0.0698383815 0.0000000000 0.0000000000 0.0000000000 1041.2436944542 0.1496046802 -0.3769447377
-0.2573196785 -0.0864063301 0.0000000000 0.0000000000 0.0000000000 1100.2711391523 0.1496046802 -0.3769447377
-0.2689785590 -0.1034706588 0.0000000000 0.0000000000 0.0000000000 1151.6558667131 0.1496046802 -0.3769447377
-0.2799222970 -0.1210022133 0.0000000000 0.0000000000 0.0000000000 1195.1839021716 0.1496046802 -0.3769447377
-0.2901321955 -0.1389710413 0.0000000000 0.0000000000 0.0000000000 1230.7260676682 0.1496046802 -0.3769447377
-0.2995908108 -0.1573464434 0.0000000000 0.0000000000 0.0000000000 1258.2388609570 0.1496046802 -0.3769447377
-0.3082819832 -0.1760970255 0.0000000000 0.0000000000 0.0000000000 1277.7650396659 0.1496046802 -0.3769447377
-0.3161908639 -0.1951907526 0.0000000000 0.0000000000 0.0000000000 1289.4340090383 0.1496046802 -0.3769447377
-0.3233039407 -0.2145950033 0.0000000000 0.0000000000 0.0000000000 1293.4619186376 0.1496046802 -0.3769447377
-0.3296090611 -0.2342766258 0.0000000000 0.0000000000 0.0000000000 1290.1512349412 0.1496046802 -0.3769447377
-0.3350954528 -0.2542019943 0.0000000000 0.0000000000 0.0000000000 1279.8894659026 0.1496046802 -0.3769447377
-0.3397537425 -0.2743370668 0.0000000000 0.0000000000 0.0000000000 1263.1466489456 0.1496046802 -0.3769447377
-0.3435759715 -0.2946474428 0.0000000000 0.0000000000 0.0000000000 1240.4711543259 0.1496046802 -0.3769447377
-0.3465556097 -0.3150984223 0.0000000000 0.0000000000 0.0000000000 1212.4832906558 0.1496046802 -0.3769447377
-0.3486875663 -0.3356550652 0.0000000000 0.0000000000 0.0000000000 1179.8661340791 0.1496046802 -0.3769447377
-0.3499681990 -0.3562822508 0.0000000000 0.0000000000 0.0000000000 1143.3529621892 0.1496046802 -0.3769447377
-0.3503953198 -0.3769447379 0.0000000000 0.0000000000 0.0000000000 1103.7107067751 0.1496046802 -0.3769447377
-0.3499681990 -0.3976072250 0.0000000000 0.0000000000 0.0000000000 1061.7190184072 0.1496046802 -0.3769447377
-0.3486875663 -0.4182344107 0.0000000000 0.0000000000 0.0000000000 1018.1449494746 0.1496046802 -0.3769447377
-0.3465556096 -0.4387910536 0.0000000000 0.0000000000 0.0000000000 973.7139878721 0.1496046802 -0.3769447377
-0.3435759714 -0.4592420331 0.0000000000 0.0000000000 0.0000000000 929.0792224605 0.1496046802 -0.3769447377
-0.3397537424 -0.4795524090 0.0000000000 0.0000000000 0.0000000000 884.7916632578 0.1496046802 -0.3769447377
-0.3350954527 -0.4996874815 0.0000000000 0.0000000000 0.0000000000 841.2758411333 0.1496046802 -0.3769447377
-0.3296090609 -0.5196128500 0.0000000000 0.0000000000 0.0000000000 798.8152585283 0.1496046802 -0.3769447377
-0.3233039406 -0.5392944725 0.0000000000 0.0000000000 0.0000000000 757.5515241509 0.1496046802 -0.3769447377
-0.3161908637 -0.5586987232 0.0000000000 0.0000000000 0.0000000000 717.4988386056 0.1496046802 -0.3769447377
-0.3082819830 -0.5777924502 0.0000000000 0.0000000000 0.0000000000 678.5722478350 0.1496046802 -0.3769447377
-0.2995908106 -0.5965430323 0.0000000000 0.0000000000 0.0000000000 640.6247283408 0.1496046802 -0.3769447377
-0.2901321953 -0.6149184344 0.0000000000 0.0000000000 0.0000000000 603.4859835798 0.1496046802 -0.3769447377
-0.2799222968 -0.6328872625 0.0000000000 0.0000000000 0.0000000000 566.9957436118 0.1496046802 -0.3769447377
-0.2689785588 -0.6504188170 0.0000000000 0.0000000000 0.0000000000 531.0264262356 0.1496046802 -0.3769447377
-0.2573196783 -0.6674831456 0.0000000000 0.0000000000 0.0000000000 495.4933643756 0.1496046802 -0.3769447377
-0.2449655743 -0.6840510943 0.0000000000 0.0000000000 0.0000000000 460.3541057769 0.1496046802 -0.3769447377
-0.2319373537 -0.7000943568 0.0000000000 0.0000000000 0.0000000000 425.6004340223 0.1496046802 -0.3769447377
-0.2182572749 -0.7155855237 0.0000000000 0.0000000000 0.0000000000 391.2473224630 0.1496046802 -0.3769447377
-0.1890361054 -0.7448066932 0.0000000000 0.0000000000 0.0000000000 323.8570383407 0.1496046802 -0.3769447377
-0.1735449385 -0.7584867720 0.0000000000 0.0000000000 0.0000000000 290.8824999534 0.1496046802 -0.3769447377
-0.1575016759 -0.7715149926 0.0000000000 0.0000000000 0.0000000000 258.4261409310 0.1496046802 -0.3769447377
-0.1409337273 -0.7838690965 0.0000000000 0.0000000000 0.0000000000 226.5115493805 0.1496046802 -0.3769447377
-0.1238693986 -0.7955279770 0.0000000000 0.0000000000 0.0000000000 195.1589826021 0.1496046802 -0.3769447377
-0.1063378441 -0.8064717150 0.0000000000 0.0000000000 0.0000000000 164.3863678225 0.1496046802 -0.3769447377
-0.0883690161 -0.8166816134 0.0000000000 0.0000000000 0.0000000000 134.2103121496 0.1496046802 -0.3769447377
-0.0699936140 -0.8261402288 0.0000000000 0.0000000000 0.0000000000 104.6469084718 0.1496046802 -0.3769447377
-0.0512430318 -0.8348314012 0.0000000000 0.0000000000 0.0000000000 75.7122878832 0.1496046802 -0.3769447377
-0.0321493048 -0.8427402818 0.0000000000 0.0000000000 0.0000000000 47.4229625483 0.1496046802 -0.3769447377
-0.0127450541 -0.8498533587 0.0000000000 0.0000000000 0.0000000000 19.7960460391 0.1496046802 -0.3769447377
0.0069365684 -0.8561584790 0.0000000000 0.0000000000 0.0000000000 -7.1505654564 0.1496046802 -0.3769447377
0.0268619369 -0.8616448708 0.0000000000 0.0000000000 0.0000000000 -33.3979974946 0.1496046802 -0.3769447377
0.0469970094 -0.8663031604 0.0000000000 0.0000000000 0.0000000000 -58.9261742194 0.1496046802 -0.3769447377
0.0673073854 -0.8701253895 0.0000000000 0.0000000000 0.0000000000 -83.7135883143 0.1496046802 -0.3769447377
0.0877583649 -0.8731050276 0.0000000000 0.0000000000 0.0000000000 -107.7371031925 0.1496046802 -0.3769447377
0.1083150078 -0.8752369842 0.0000000000 0.0000000000 0.0000000000 -130.9718319932 0.1496046802 -0.3769447377
0.1289421934 -0.8765176169 0.0000000000 0.0000000000 0.0000000000 -153.3911321428 0.1496046802 -0.3769447377
0.1496046805 -0.8769447377 0.0000000000 0.0000000000 0.0000000000 -174.9667509619 0.1496046802 -0.3769447377
0.1702671677 -0.8765176169 0.0000000000 0.0000000000 0.0000000000 -195.6691452023 0.1496046802 -0.3769447377
0.1908943533 -0.8752369842 0.0000000000 0.0000000000 0.0000000000 -215.4680049744 0.1496046802 -0.3769447377
0.2114509962 -0.8731050275 0.0000000000 0.0000000000 0.0000000000 -234.3329827636 0.1496046802 -0.3769447377
0.2319019757 -0.8701253894 0.0000000000 0.0000000000 0.0000000000 -252.2346665356 0.1496046802 -0.3769447377
0.2522123516 -0.8663031603 0.0000000000 0.0000000000 0.0000000000 -269.1457338075 0.1496046802 -0.3769447377
0.2723474241 -0.8616448706 0.0000000000 0.0000000000 0.0000000000 -285.0423809146 0.1496046802 -0.3769447377
0.2922727927 -0.8561584788 0.0000000000 0.0000000000 0.0000000000 -299.9057622815 0.1496046802 -0.3769447377
0.3119544151 -0.8498533585 0.0000000000 0.0000000000 0.0000000000 -313.7238153462 0.1496046802 -0.3769447377
0.3313586658 -0.8427402816 0.0000000000 0.0000000000 0.0000000000 -326.4925242242 0.1496046802 -0.3769447377
0.3504523929 -0.8348314009 0.0000000000 0.0000000000 0.0000000000 -338.2182272345 0.1496046802 -0.3769447377
0.3692029749 -0.8261402285 0.0000000000 0.0000000000 0.0000000000 -348.9174785580 0.1496046802 -0.3769447377
0.3875783770 -0.8166816132 0.0000000000 0.0000000000 0.0000000000 -358.6210920250 0.1496046802 -0.3769447377
0.4055472051 -0.8064717147 0.0000000000 0.0000000000 0.0000000000 -367.3688319590 0.1496046802 -0.3769447377
0.4230787596 -0.7955279767 0.0000000000 0.0000000000 0.0000000000 -375.2215847450 0.1496046802 -0.3769447377
0.4401430882 -0.7838690961 0.0000000000 0.0000000000 0.0000000000 -382.2371195497 0.1496046802 -0.3769447377
0.4567110368 -0.7715149922 0.0000000000 0.0000000000 0.0000000000 -388.5171428632 0.1496046802 -0.3769447377
0.4727542994 -0.7584867716 0.0000000000 0.0000000000 0.0000000000 -394.1110911008 0.1496046802 -0.3769447377
0.4882454663 -0.7448066928 0.0000000000 0.0000000000 0.0000000000 -399.2011472637 0.1496046802 -0.3769447377
0.7000959233 -0.8852379833 0.0000000000 -0.0978132240 -0.1382589278 -419.5944013783 0.1503070190 -0.3751084303
0.7187372416 -0.8641985686 0.0000000000 -0.0995077455 -0.1316141298 -417.4290709167 0.1502584489 -0.3749830105
0.7365817916 -0.8424768601 0.0000000000 -0.0983995742 -0.1234362817 -415.3129372142 0.1502081794 -0.3748595091
0.7536046335 -0.8201038589 0.0000000000 -0.0948401624 -0.1147857483 -413.4317025982 0.1501562984 -0.3747387201
0.7697820177 -0.7971115441 0.0000000000 -0.0892426156 -0.1065416948 -411.9473715598 0.1501029367 -0.3746215010
0.7850913899 -0.7735327829 0.0000000000 -0.0820427602 -0.0993546454 -410.9926493383 0.1500482403 -0.3745087259
0.7995114091 -0.7494012586 0.0000000000 -0.0736616730 -0.0936511749 -410.6723335076 0.1499923560 -0.3744012590
0.8130219702 -0.7247514066 0.0000000000 -0.0644759924 -0.0896670823 -411.0659894907 0.1499354249 -0.3742999358
0.8256042302 -0.6996183515 0.0000000000 -0.0547981020 -0.0874883506 -412.2311361528 0.1498775791 -0.3742055476
0.8372406351 -0.6740378482 0.0000000000 -0.0448673346 -0.0870879821 -414.2063991358 0.1498189430 -0.3741188304
0.8479149474 -0.6480462228 0.0000000000 -0.0348514275 -0.0883548322 -417.0143495585 0.1497596358 -0.3740404549
0.8576122731 -0.6216803146 0.0000000000 -0.0248554702 -0.0911154394 -420.6639227584 0.1496997753 -0.3739710185
0.8663190857 -0.5949774183 0.0000000000 -0.0149344262 -0.0951514583 -425.1524068291 0.1496394813 -0.3739110379
0.8740232477 -0.5679752272 0.0000000000 -0.0051054379 -0.1002148362 -430.4670436922 0.1495788779 -0.3738609437
0.8807140293 -0.5407117754 0.0000000000 0.0046426386 -0.1060417166 -436.5863079337 0.1495180951 -0.3738210753
0.8863821240 -0.5132253822 0.0000000000 0.0143432583 -0.1123651326 -443.4809308761 0.1494572690 -0.3737916772
0.8910196611 -0.4855545954 0.0000000000 0.0240489888 -0.1189261546 -451.1147321937 0.1493965413 -0.3737728961
0.8946202158 -0.4577381361 0.0000000000 0.0338294398 -0.1254831749 -459.4453185353 0.1493360583 -0.3737647794
0.8971788166 -0.4298148436 0.0000000000 0.0437686648 -0.1318192026 -468.4247092243 0.1492759686 -0.3737672738
0.8986919496 -0.4018236208 0.0000000000 0.0539610586 -0.1377472287 -477.9999472550 0.1492164210 -0.3737802254
0.8991575604 -0.3738033806 0.0000000000 0.0645057180 -0.1431138267 -488.1137425332 0.1491575604 -0.3738033809
0.8985750531 -0.3457929926 0.0000000000 0.0755000392 -0.1478011713 -498.7051712710 0.1490995245 -0.3738363886
0.8969452866 -0.3178312311 0.0000000000 0.0870337160 -0.1517276106 -509.7104249361 0.1490424387 -0.3738788016
0.8942705691 -0.2899567238 0.0000000000 0.0991842346 -0.1548468483 -521.0635728732 0.1489864117 -0.3739300812
0.8905546499 -0.2622079021 0.0000000000 0.1120145576 -0.1571457168 -532.6972833240 0.1489315303 -0.3739896019
0.8858027102 -0.2346229528 0.0000000000 0.1255731645 -0.1586404706 -544.5434425109 0.1488778553 -0.3740566584
0.8800213522 -0.2072397730 0.0000000000 0.1398961480 -0.1593715303 -556.5336196610 0.1488254181 -0.3741304737
0.8732185864 -0.1800959260 0.0000000000 0.1550107658 -0.1593966726 -568.5993421528 0.1487742168 -0.3742102100
0.8654038188 -0.1532286018 0.0000000000 0.1709397298 -0.1587828040 -580.6721634899 0.1487242146 -0.3742949828
0.8565878352 -0.1266745799 0.0000000000 0.1877055327 -0.1575966709 -592.6835239575 0.1486753376 -0.3743838765
0.8467827845 -0.1004701958 0.0000000000 0.2053341911 -0.1558951298 -604.5644197890 0.1486274731 -0.3744759643
0.8360021597 -0.0746513108 0.0000000000 0.2238578885 -0.1537158826 -616.2449144265 0.1485804679 -0.3745703292
0.8242607765 -0.0492532837 0.0000000000 0.2433160916 -0.1510698065 -627.6535479278 0.1485341256 -0.3746660882
0.8115747494 -0.0243109455 0.0000000000 0.2637548338 -0.1479360868 -638.7167273898 0.1484882043 -0.3747624169
0.7979614661 0.0001414247 0.0000000000 0.2852240175 -0.1442612132 -649.3582069274 0.1484424134 -0.3748585754
0.7834395612 0.0240701241 0.0000000000 0.3077728173 -0.1399624913 -659.4987798471 0.1483964119 -0.3749539334
0.7680288900 0.0474420479 0.0000000000 0.3314435407 -0.1349360815 -669.0562994774 0.1483498093 -0.3750479958
0.7517505056 0.0702247119 0.0000000000 0.3562645731 -0.1290688222 -677.9460993089 0.1483021708 -0.3751404273
0.7346266356 0.0923862718 0.0000000000 0.3822432289 -0.1222524250 -686.0818700765 0.1482530238 -0.3752310797
0.7166806462 0.1138955358 0.0000000000 0.4093593260 -0.1143981748 -693.3767572436 0.1482018539 -0.3753200227
0.6979369530 0.1347219729 0.0000000000 0.4375601119 -0.1054500141 -699.7436491544 0.1481480492 -0.3754075805
0.6560125219 0.1762277001 0.0000000000 0.5000150773 -0.0830596615 -709.7435695630 0.1480513433 -0.3755652329
0.6327332191 0.1966777023 0.0000000000 0.5341489567 -0.0695058255 -712.9137010992 0.1480087908 -0.3756353489
0.6086234731 0.2161513197 0.0000000000 0.5688641973 -0.0549762689 -714.5462960911 0.1479639386 -0.3757040624
0.5837251279 0.2346154139 0.0000000000 0.6038633161 -0.0397327355 -714.5448648464 0.1479175164 -0.3757711241
0.5580813187 0.2520384099 0.0000000000 0.6388159412 -0.0240930980 -712.8129468110 0.1478702002 -0.3758364489
0.5317364452 0.2683904387 0.0000000000 0.6733763660 -0.0084027828 -709.2490745984 0.1478226585 -0.3759000271
0.5047361271 0.2836434139 0.0000000000 0.7071973011 0.0069932159 -703.7418246685 0.1477755824 -0.3759618996
0.4771271372 0.2977710925 0.0000000000 0.7399457262 0.0217842059 -696.1656049874 0.1477296957 -0.3760221439
0.4489573193 0.3107491338 0.0000000000 0.7713187980 0.0357298718 -686.3784652757 0.1476857509 -0.3760808612
0.4202754948 0.3225551545 0.0000000000 0.8010581189 0.0486941437 -674.2230780388 0.1476445170 -0.3761381616
0.3911313618 0.3331687804 0.0000000000 0.8289603204 0.0606710579 -659.5316888062 0.1476067600 -0.3761941509
0.3615753909 0.3425716913 0.0000000000 0.8548821049 0.0717966974 -642.1351657107 0.1475732228 -0.3762489206
0.3316587199 0.3507476593 0.0000000000 0.8787385344 0.0823426288 -621.8753976678 0.1475446046 -0.3763025402
0.3014330498 0.3576825823 0.0000000000 0.9004944048 0.0926890111 -598.6194009320 0.1475215432 -0.3763550517
0.2709505436 0.3633645111 0.0000000000 0.9201498140 0.1032793430 -572.2728675660 0.1475046010 -0.3764064665
0.2402637279 0.3677836711 0.0000000000 0.9377222619 0.1145628352 -542.7907780187 0.1474942545 -0.3764567637
0.2094253967 0.3709324792 0.0000000000 0.9532284832 0.1269336219 -510.1832242295 0.1474908878 -0.3765058905
0.1784885191 0.3728055543 0.0000000000 0.9666694369 0.1406774442 -474.5156557623 0.1474947886 -0.3765537645
0.1475061472 0.3733997230 0.0000000000 0.9780212993 0.1559353971 -435.9040600056 0.1475061473 -0.3766002770
0.1165313265 0.3727140209 0.0000000000 0.9872340056 0.1726908627 -394.5066967412 0.1475250574 -0.3766452978
0.0856170071 0.3707496895 0.0000000000 0.9942371548 0.1907806503 -350.5145662749 0.1475515163 -0.3766886802
0.0548159551 0.3675101692 0.0000000000 0.9989514217 0.2099260521 -304.1426555992 0.1475854287 -0.3767302656
0.0241806655 0.3630010899 0.0000000000 1.0013025013 0.2297755402 -255.6233089131 0.1476266084 -0.3767698876
-0.0062367248 0.3572302584 0.0000000000 1.0012343545 0.2499493099 -205.2021336385 0.1476747821 -0.3768073755
-0.0363845227 0.3502076424 0.0000000000 0.9987191712 0.2700770584 -153.1360401609 0.1477295928 -0.3768425570
-0.0662115637 0.3419453512 0.0000000000 0.9937626973 0.2898236258 -99.6925592516 0.1477906046 -0.3768752606
-0.0956672953 0.3324576129 0.0000000000 0.9864049358 0.3089011267 -45.1495293304 0.1478573068 -0.3769053183
-0.1247018587 0.3217607463 0.0000000000 0.9767172721 0.3270696433 10.2055178927 0.1479291194 -0.3769325697
-0.1532661692 0.3098731291 0.0000000000 0.9647975553 0.3441305423 66.0765986685 0.1480053994 -0.3769568658
-0.1813119942 0.2968151614 0.0000000000 0.9507646118 0.3599168049 122.1611680246 0.1480854476 -0.3769780749
-0.2087920289 0.2826092243 0.0000000000 0.9347532663 0.3742838209 178.1525043747 0.1481685161 -0.3769960891
-0.2356599695 0.2672796355 0.0000000000 0.9169104270 0.3871025912 233.7423819631 0.1482538175 -0.3770108302
-0.2618705830 0.2508526016 0.0000000000 0.8973923471 0.3982558650 288.6238590825 0.1483405358 -0.3770222569
-0.2873797741 0.2333561676 0.0000000000 0.8763628864 0.4076367699 342.4940769120 0.1484278376 -0.3770303702
-0.3121446479 0.2148201646 0.0000000000 0.8539924486 0.4151490743 395.0570353249 0.1485148868 -0.3770352174
-0.3361235691 0.1952761559 0.0000000000 0.8304572127 0.4207082801 446.0263370276 0.1486008594 -0.3770368951
-0.3592762178 0.1747573813 0.0000000000 0.8059383473 0.4242429727 495.1278906202 0.1486849611 -0.3770355515
-0.4029483008 0.1309366573 0.0000000000 0.7546932453 0.4250257710 586.7085254693 0.1488446324 -0.3770245213
-0.4233941268 0.1077090838 0.0000000000 0.7283439032 0.4222066122 628.7242431580 0.1489189245 -0.3770153445
-0.4428665608 0.0836553939 0.0000000000 0.7017613085 0.4172298316 667.9500797187 0.1489888214 -0.3770041405
-0.4613326014 0.0588163880 0.0000000000 0.6751313011 0.4101036867 704.2105467159 0.1490539367 -0.3769912233
-0.4787608542 0.0332341951 0.0000000000 0.6486354492 0.4008534118 737.3560289625 0.1491140047 -0.3769769233
-0.4951215836 0.0069522110 0.0000000000 0.6224493254 0.3895208401 767.2642334338 0.1491688823 -0.3769615756
-0.5103867667 -0.0199849672 0.0000000000 0.5967408968 0.3761636686 793.8413102636 0.1492185468 -0.3769455117
-0.5245301505 -0.0475316107 0.0000000000 0.5716690101 0.3608543997 817.0226004235 0.1492630860 -0.3769290521
-0.5375273100 -0.0756409318 0.0000000000 0.5473819192 0.3436790353 836.7729603416 0.1493026851 -0.3769125000
-0.5493557078 -0.1042651596 0.0000000000 0.5240158212 0.3247356153 853.0866203351 0.1493376084 -0.3768961373
-0.5599947511 -0.1333556198 0.0000000000 0.5016934303 0.3041326584 865.9865539728 0.1493681802 -0.3768802215
-0.5694258468 -0.1628628165 0.0000000000 0.4805226861 0.2819875072 875.5233585982 0.1493947651 -0.3768649844
-0.5776324504 -0.1927365163 0.0000000000 0.4605957063 0.2584245423 881.7736618290 0.1494177492 -0.3768506314
-0.5846001091 -0.2229258355 0.0000000000 0.4419880605 0.2335732290 884.8380729054 0.1494375250 -0.3768373418
-0.5903164987 -0.2533793268 0.0000000000 0.4247583849 0.2075659991 884.8386978740 0.1494544789 -0.3768252692
-0.5947714525 -0.2840450687 0.0000000000 0.4089483172 0.1805360132 881.9162424227 0.1494689824 -0.3768145418
-0.5979569835 -0.3148707547 0.0000000000 0.3945827283 0.1526148728 876.2267394613 0.1494813863 -0.3768052635
-0.5998673008 -0.3458037834 0.0000000000 0.3816702397 0.1239303600 867.9379579277 0.1494920180 -0.3767975138
-0.6004988193 -0.3767913487 0.0000000000 0.3702040361 0.0946042705 857.2255701538 0.1495011807 -0.3767913484
-0.5998501651 -0.4077805303 0.0000000000 0.3601629787 0.0647503963 844.2691740785 0.1495091537 -0.3767867993
-0.5979221763 -0.4387183845 0.0000000000 0.3515130142 0.0344727079 829.2482821986 0.1495161934 -0.3767838751
-0.5947178989 -0.4695520346 0.0000000000 0.3442088492 0.0038637800 812.3384004991 0.1495225358 -0.3767825608
-0.5902425794 -0.5002287617 0.0000000000 0.3381958361 -0.0269965003 793.7073271294 0.1495283981 -0.3767828187