 TITLE = "Tecplot data"
 VARIABLES = "X", "Y", "Z" "U", "V", "p", "dispX", "dispY"
 ZONE SOLUTIONTIME=159.900000, NODES=26114 , ELEMENTS=25916, DATAPACKING=POINT, ZONETYPE=FEQUADRILATERAL
3.6137858377 -10.8010693613 0.0000000000 0.0000000000 0.0000000000 -3120.8312317735 3.2602324471 -11.1546227519
3.6137858380 -11.5081761423 0.0000000000 0.0000000000 0.0000000000 -20167.4142555428 3.2602324471 -11.1546227519
2.9066790564 -10.8010693615 0.0000000000 0.0000000000 0.0000000000 5448.7411130934 3.2602324471 -11.1546227519
2.9066790567 -11.5081761427 0.0000000000 0.0000000000 0.0000000000 18540.1389536919 3.2602324471 -11.1546227519
3.7478589890 -10.5811773044 0.0000000000 0.3512368466 -0.1439635551 -2213.8410416100 3.2175289032 -11.1115073903
3.8214205645 -11.6323118719 0.0000000000 1.7846437464 1.1245713821 -10370.7649448216 3.2910904783 -11.1019817864
2.7074129137 -10.6257822886 0.0000000000 0.1905566729 0.4075134306 5403.9626075297 3.2377429997 -11.1561123743
2.7355508932 -11.6858839159 0.0000000000 2.1166589536 -1.4221444872 11813.1018162384 3.2658809788 -11.1555538298
4.0413840297 -9.7715356032 0.0000000000 0.7059753625 -0.3239451905 -207.5097381042 2.9807238580 -10.8321957750
4.4973799311 -11.8575630972 0.0000000000 1.5212413125 0.2893414586 -3649.6333223189 3.4367197585 -10.7969029262
2.0666673166 -10.0831820646 0.0000000000 0.7674759681 -0.5491680238 4434.8972813872 3.1273274887 -11.1438422360
2.2480906115 -12.2043961274 0.0000000000 1.7063233533 -0.6426610237 6355.9398245312 3.3087507827 -11.1437359551
6.0571597091 -5.8652591607 0.0000000000 0.7610660428 -0.0361399525 1026.6744148805 1.8571597091 -9.1652591607
8.3486860939 -12.4119912940 0.0000000000 1.8708126208 -0.2081786795 -207.0132034750 4.1486860939 -9.1119912940
20.0000000000 4.7000000000 0.0000000000 -0.7869228533 2.5206225770 3.7800271218 0.0000000000 0.0000000000
20.0000000000 -4.7000000000 0.0000000000 1.3485985950 -0.9783228092 -11.0566373288 0.0000000000 0.0000000000
-10.0000000000 15.0000000000 0.0000000000 1.0000000000 0.0000000000 2200.0658718416 0.0000000000 0.0000000000
20.0000000000 15.0000000000 0.0000000000 2.7475844043 0.0000000000 21.8009434900 0.0000000000 0.0000000000
20.0000000000 -15.0000000000 0.0000000000 2.3097730241 0.0000000000 0.7994840595 0.0000000000 0.0000000000
-10.0000000000 -15.0000000000 0.0000000000 1.0000000000 0.0000000000 3199.6821319451 0.0000000000 0.0000000000
3.6267583833 -11.4947091206 0.0000000000 0.0000000000 0.0000000000 -20525.0511232259 3.2602324471 -11.1546227519
3.6392183089 -11.4807664573 0.0000000000 0.0000000000 0.0000000000 -20701.4855804901 3.2602324471 -11.1546227519
3.6511481886 -11.4663676526 0.0000000000 0.0000000000 0.0000000000 -20870.7610835670 3.2602324471 -11.1546227519
3.6625313372 -11.4515328445 0.0000000000 0.0000000000 0.0000000000 -20932.2226646710 3.2602324471 -11.1546227519
3.6733518345 -11.4362827807 0.0000000000 0.0000000000 0.0000000000 -20943.2485116724 3.2602324471 -11.1546227519
3.6835945469 -11.4206387899 0.0000000000 0.0000000000 0.0000000000 -20873.5344283941 3.2602324471 -11.1546227519
3.6932451492 -11.4046227517 0.0000000000 0.0000000000 0.0000000000 -20743.5579013147 3.2602324471 -11.1546227519
3.7022901440 -11.3882570658 0.0000000000 0.0000000000 0.0000000000 -20544.8326694148 3.2602324471 -11.1546227519
3.7107168812 -11.3715646212 0.0000000000 0.0000000000 0.0000000000 -20286.6683287051 3.2602324471 -11.1546227519
3.7185135752 -11.3545687638 0.0000000000 0.0000000000 0.0000000000 -19968.1369195872 3.2602324471 -11.1546227519
3.7256693216 -11.3372932639 0.0000000000 0.0000000000 0.0000000000 -19595.0377523220 3.2602324471 -11.1546227519
3.7321741124 -11.3197622827 0.0000000000 0.0000000000 0.0000000000 -19169.4232555096 3.2602324471 -11.1546227519
3.7380188501 -11.3020003389 0.0000000000 0.0000000000 0.0000000000 -18696.0511223688 3.2602324471 -11.1546227519
3.7431953604 -11.2840322742 0.0000000000 0.0000000000 0.0000000000 -18178.2994660645 3.2602324471 -11.1546227519
3.7476964033 -11.2658832187 0.0000000000 0.0000000000 0.0000000000 -17620.7028094520 3.2602324471 -11.1546227519
3.7515156838 -11.2475785553 0.0000000000 0.0000000000 0.0000000000 -17027.2960717262 3.2602324471 -11.1546227519
3.7546478603 -11.2291438848 0.0000000000 0.0000000000 0.0000000000 -16402.6358299531 3.2602324471 -11.1546227519
3.7570885521 -11.2106049898 0.0000000000 0.0000000000 0.0000000000 -15751.1015553535 3.2602324471 -11.1546227519
3.7588343457 -11.1919877985 0.0000000000 0.0000000000 0.0000000000 -15077.3151449514 3.2602324471 -11.1546227519
3.7598827995 -11.1733183489 0.0000000000 0.0000000000 0.0000000000 -14385.8371540817 3.2602324471 -11.1546227519
3.7602324471 -11.1546227517 0.0000000000 0.0000000000 0.0000000000 -13681.3489787597 3.2602324471 -11.1546227519
3.7598827995 -11.1359271546 0.0000000000 0.0000000000 0.0000000000 -12968.5301447305 3.2602324471 -11.1546227519
3.7588343457 -11.1172577050 0.0000000000 0.0000000000 0.0000000000 -12252.1624012445 3.2602324471 -11.1546227519
3.7570885521 -11.0986405137 0.0000000000 0.0000000000 0.0000000000 -11537.1140297616 3.2602324471 -11.1546227519
3.7546478602 -11.0801016187 0.0000000000 0.0000000000 0.0000000000 -10828.4413610200 3.2602324471 -11.1546227519
3.7515156837 -11.0616669482 0.0000000000 0.0000000000 0.0000000000 -10131.4433006003 3.2602324471 -11.1546227519
3.7476964032 -11.0433622848 0.0000000000 0.0000000000 0.0000000000 -9451.7484137018 3.2602324471 -11.1546227519
3.7431953602 -11.0252132292 0.0000000000 0.0000000000 0.0000000000 -8795.3124889221 3.2602324471 -11.1546227519
3.7380188500 -11.0072451646 0.0000000000 0.0000000000 0.0000000000 -8168.2754341479 3.2602324471 -11.1546227519
3.7321741122 -10.9894832208 0.0000000000 0.0000000000 0.0000000000 -7576.5535588401 3.2602324471 -11.1546227519
3.7256693214 -10.9719522396 0.0000000000 0.0000000000 0.0000000000 -7025.1089946593 3.2602324471 -11.1546227519
3.7185135750 -10.9546767397 0.0000000000 0.0000000000 0.0000000000 -6517.0146582719 3.2602324471 -11.1546227519
3.7107168810 -10.9376808823 0.0000000000 0.0000000000 0.0000000000 -6052.6243199569 3.2602324471 -11.1546227519
3.7022901438 -10.9209884377 0.0000000000 0.0000000000 0.0000000000 -5629.3119000463 3.2602324471 -11.1546227519
3.6932451490 -10.9046227519 0.0000000000 0.0000000000 0.0000000000 -5242.1204210737 3.2602324471 -11.1546227519
3.6835945467 -10.8886067136 0.0000000000 0.0000000000 0.0000000000 -4884.8990204620 3.2602324471 -11.1546227519
3.6733518342 -10.8729627228 0.0000000000 0.0000000000 0.0000000000 -4551.9527825521 3.2602324471 -11.1546227519
3.6625313370 -10.8577126591 0.0000000000 0.0000000000 0.0000000000 -4238.2408293146 3.2602324471 -11.1546227519
3.6511481883 -10.8428778510 0.0000000000 0.0000000000 0.0000000000 -3940.8307217438 3.2602324471 -11.1546227519
3.6392183087 -10.8284790463 0.0000000000 0.0000000000 0.0000000000 -3656.2457373488 3.2602324471 -11.1546227519
3.6267583830 -10.8145363830 0.0000000000 0.0000000000 0.0000000000 -3384.4270430517 3.2602324471 -11.1546227519
3.5988732329 -10.7867607966 0.0000000000 0.0000000000 0.0000000000 -2842.6871765239 3.2602324471 -11.1546227519
3.5833820660 -10.7730807178 0.0000000000 0.0000000000 0.0000000000 -2572.3163910989 3.2602324471 -11.1546227519
3.5673388034 -10.7600524972 0.0000000000 0.0000000000 0.0000000000 -2311.7395702339 3.2602324471 -11.1546227519
3.5507708548 -10.7476983933 0.0000000000 0.0000000000 0.0000000000 -2057.7958812851 3.2602324471 -11.1546227519
3.5337065261 -10.7360395128 0.0000000000 0.0000000000 0.0000000000 -1811.0366939004 3.2602324471 -11.1546227519
3.5161749716 -10.7250957747 0.0000000000 0.0000000000 0.0000000000 -1569.6618804030 3.2602324471 -11.1546227519
3.4982061436 -10.7148858763 0.0000000000 0.0000000000 0.0000000000 -1333.6542764660 3.2602324471 -11.1546227519
3.4798307415 -10.7054272610 0.0000000000 0.0000000000 0.0000000000 -1101.9355276251 3.2602324471 -11.1546227519
3.4610801594 -10.6967360886 0.0000000000 0.0000000000 0.0000000000 -874.2696750806 3.2602324471 -11.1546227519
3.4419864323 -10.6888272079 0.0000000000 0.0000000000 0.0000000000 -649.9587742864 3.2602324471 -11.1546227519
3.4225821817 -10.6817141311 0.0000000000 0.0000000000 0.0000000000 -428.6983715118 3.2602324471 -11.1546227519
3.4029005592 -10.6754090107 0.0000000000 0.0000000000 0.0000000000 -209.9947942704 3.2602324471 -11.1546227519
3.3829751906 -10.6699226190 0.0000000000 0.0000000000 0.0000000000 6.4612904083 3.2602324471 -11.1546227519
3.3628401182 -10.6652643293 0.0000000000 0.0000000000 0.0000000000 221.0485490019 3.2602324471 -11.1546227519
3.3425297422 -10.6614421002 0.0000000000 0.0000000000 0.0000000000 434.0573476087 3.2602324471 -11.1546227519
3.3220787627 -10.6584624621 0.0000000000 0.0000000000 0.0000000000 645.7975646245 3.2602324471 -11.1546227519
3.3015221198 -10.6563305054 0.0000000000 0.0000000000 0.0000000000 856.5349184565 3.2602324471 -11.1546227519
3.2808949342 -10.6550498727 0.0000000000 0.0000000000 0.0000000000 1066.5359299702 3.2602324471 -11.1546227519
3.2602324470 -10.6546227519 0.0000000000 0.0000000000 0.0000000000 1276.0437297444 3.2602324471 -11.1546227519
3.2395699599 -10.6550498728 0.0000000000 0.0000000000 0.0000000000 1485.2966694739 3.2602324471 -11.1546227519
3.2189427743 -10.6563305055 0.0000000000 0.0000000000 0.0000000000 1694.5200216946 3.2602324471 -11.1546227519
3.1983861314 -10.6584624621 0.0000000000 0.0000000000 0.0000000000 1903.9338271585 3.2602324471 -11.1546227519
3.1779351519 -10.6614421003 0.0000000000 0.0000000000 0.0000000000 2113.7506589555 3.2602324471 -11.1546227519
3.1576247759 -10.6652643293 0.0000000000 0.0000000000 0.0000000000 2324.1791711111 3.2602324471 -11.1546227519
3.1374897035 -10.6699226190 0.0000000000 0.0000000000 0.0000000000 2535.4240126460 3.2602324471 -11.1546227519
3.1175643349 -10.6754090108 0.0000000000 0.0000000000 0.0000000000 2747.6876818234 3.2602324471 -11.1546227519
3.0978827124 -10.6817141311 0.0000000000 0.0000000000 0.0000000000 2961.1711164267 3.2602324471 -11.1546227519
3.0784784617 -10.6888272080 0.0000000000 0.0000000000 0.0000000000 3176.0748770300 3.2602324471 -11.1546227519
3.0593847347 -10.6967360887 0.0000000000 0.0000000000 0.0000000000 3392.5999024832 3.2602324471 -11.1546227519
3.0406341526 -10.7054272611 0.0000000000 0.0000000000 0.0000000000 3610.9484224059 3.2602324471 -11.1546227519
3.0222587505 -10.7148858764 0.0000000000 0.0000000000 0.0000000000 3831.3247316446 3.2602324471 -11.1546227519
3.0042899225 -10.7250957748 0.0000000000 0.0000000000 0.0000000000 4053.9360099194 3.2602324471 -11.1546227519
2.9867583680 -10.7360395129 0.0000000000 0.0000000000 0.0000000000 4278.9931342467 3.2602324471 -11.1546227519
2.9696940393 -10.7476983934 0.0000000000 0.0000000000 0.0000000000 4506.7115868503 3.2602324471 -11.1546227519
2.9531260907 -10.7600524973 0.0000000000 0.0000000000 0.0000000000 4737.3125419789 3.2602324471 -11.1546227519
2.9370828281 -10.7730807179 0.0000000000 0.0000000000 0.0000000000 4971.0242931307 3.2602324471 -11.1546227519
2.9215916612 -10.7867607967 0.0000000000 0.0000000000 0.0000000000 5208.0841801037 3.2602324471 -11.1546227519
2.8923704917 -10.8159819662 0.0000000000 0.0000000000 0.0000000000 5693.2586249275 3.2602324471 -11.1546227519
2.8786904129 -10.8314731331 0.0000000000 0.0000000000 0.0000000000 5941.9181888007 3.2602324471 -11.1546227519
2.8656621923 -10.8475163957 0.0000000000 0.0000000000 0.0000000000 6195.0224267607 3.2602324471 -11.1546227519
2.8533080884 -10.8640843444 0.0000000000 0.0000000000 0.0000000000 6452.8979728350 3.2602324471 -11.1546227519
2.8416492079 -10.8811486730 0.0000000000 0.0000000000 0.0000000000 6715.8982290519 3.2602324471 -11.1546227519
2.8307054699 -10.8986802275 0.0000000000 0.0000000000 0.0000000000 6984.4068946406 3.2602324471 -11.1546227519
2.8204955715 -10.9166490556 0.0000000000 0.0000000000 0.0000000000 7258.8435837243 3.2602324471 -11.1546227519
2.8110369561 -10.9350244577 0.0000000000 0.0000000000 0.0000000000 7539.6727962583 3.2602324471 -11.1546227519
2.8023457837 -10.9537750398 0.0000000000 0.0000000000 0.0000000000 7827.4163553108 3.2602324471 -11.1546227519
2.7944369030 -10.9728687668 0.0000000000 0.0000000000 0.0000000000 8122.6684115229 3.2602324471 -11.1546227519
2.7873238262 -10.9922730175 0.0000000000 0.0000000000 0.0000000000 8426.1110581719 3.2602324471 -11.1546227519
2.7810187059 -11.0119546400 0.0000000000 0.0000000000 0.0000000000 8738.5310231648 3.2602324471 -11.1546227519
2.7755323141 -11.0318800086 0.0000000000 0.0000000000 0.0000000000 9060.8433578554 3.2602324471 -11.1546227519
2.7708740244 -11.0520150810 0.0000000000 0.0000000000 0.0000000000 9394.1395369789 3.2602324471 -11.1546227519
2.7670517954 -11.0723254570 0.0000000000 0.0000000000 0.0000000000 9739.7901371604 3.2602324471 -11.1546227519
2.7640721572 -11.0927764365 0.0000000000 0.0000000000 0.0000000000 10099.6478310079 3.2602324471 -11.1546227519
2.7619402006 -11.1133330794 0.0000000000 0.0000000000 0.0000000000 10476.4182698885 3.2602324471 -11.1546227519
2.7606595679 -11.1339602650 0.0000000000 0.0000000000 0.0000000000 10874.2771022829 3.2602324471 -11.1546227519
2.7602324471 -11.1546227521 0.0000000000 0.0000000000 0.0000000000 11299.6559892117 3.2602324471 -11.1546227519
2.7606595680 -11.1752852393 0.0000000000 0.0000000000 0.0000000000 11761.5878807741 3.2602324471 -11.1546227519
2.7619402007 -11.1959124249 0.0000000000 0.0000000000 0.0000000000 12270.3895306954 3.2602324471 -11.1546227519
2.7640721573 -11.2164690678 0.0000000000 0.0000000000 0.0000000000 12833.9507377576 3.2602324471 -11.1546227519
2.7670517955 -11.2369200473 0.0000000000 0.0000000000 0.0000000000 13452.9785099295 3.2602324471 -11.1546227519
2.7708740245 -11.2572304233 0.0000000000 0.0000000000 0.0000000000 14118.1223499085 3.2602324471 -11.1546227519
2.7755323142 -11.2773654957 0.0000000000 0.0000000000 0.0000000000 14810.8019440438 3.2602324471 -11.1546227519
2.7810187060 -11.2972908643 0.0000000000 0.0000000000 0.0000000000 15506.9628752437 3.2602324471 -11.1546227519
2.7873238264 -11.3169724868 0.0000000000 0.0000000000 0.0000000000 16181.6009662927 3.2602324471 -11.1546227519
2.7944369032 -11.3363767374 0.0000000000 0.0000000000 0.0000000000 16812.3083188474 3.2602324471 -11.1546227519
2.8023457839 -11.3554704645 0.0000000000 0.0000000000 0.0000000000 17381.1541541686 3.2602324471 -11.1546227519
2.8110369563 -11.3742210466 0.0000000000 0.0000000000 0.0000000000 17875.0460967010 3.2602324471 -11.1546227519
2.8204955716 -11.3925964487 0.0000000000 0.0000000000 0.0000000000 18285.1180332140 3.2602324471 -11.1546227519
2.8307054701 -11.4105652767 0.0000000000 0.0000000000 0.0000000000 18605.7278794455 3.2602324471 -11.1546227519
2.8416492081 -11.4280968312 0.0000000000 0.0000000000 0.0000000000 18833.4762131365 3.2602324471 -11.1546227519
2.8533080886 -11.4451611598 0.0000000000 0.0000000000 0.0000000000 18966.4402455046 3.2602324471 -11.1546227519
2.8656621926 -11.4617291085 0.0000000000 0.0000000000 0.0000000000 19003.6584435633 3.2602324471 -11.1546227519
2.8786904132 -11.4777723711 0.0000000000 0.0000000000 0.0000000000 18944.8230001119 3.2602324471 -11.1546227519
2.8923704920 -11.4932635379 0.0000000000 0.0000000000 0.0000000000 18790.1166434795 3.2602324471 -11.1546227519
2.9215916615 -11.5224847075 0.0000000000 0.0000000000 0.0000000000 18195.8825497511 3.2602324471 -11.1546227519
2.9370828284 -11.5361647862 0.0000000000 0.0000000000 0.0000000000 17758.7355919275 3.2602324471 -11.1546227519
2.9531260910 -11.5491930068 0.0000000000 0.0000000000 0.0000000000 17230.4947612648 3.2602324471 -11.1546227519
2.9696940397 -11.5615471107 0.0000000000 0.0000000000 0.0000000000 16613.3830834237 3.2602324471 -11.1546227519
2.9867583683 -11.5732059912 0.0000000000 0.0000000000 0.0000000000 15910.0652636120 3.2602324471 -11.1546227519
3.0042899228 -11.5841497293 0.0000000000 0.0000000000 0.0000000000 15123.6589735055 3.2602324471 -11.1546227519
3.0222587509 -11.5943596277 0.0000000000 0.0000000000 0.0000000000 14257.7367141556 3.2602324471 -11.1546227519
3.0406341530 -11.6038182430 0.0000000000 0.0000000000 0.0000000000 13316.3149795790 3.2602324471 -11.1546227519
3.0593847351 -11.6125094154 0.0000000000 0.0000000000 0.0000000000 12303.8281383793 3.2602324471 -11.1546227519
3.0784784621 -11.6204182961 0.0000000000 0.0000000000 0.0000000000 11225.0883260020 3.2602324471 -11.1546227519
3.0978827128 -11.6275313729 0.0000000000 0.0000000000 0.0000000000 10085.2436063855 3.2602324471 -11.1546227519
3.1175643353 -11.6338364933 0.0000000000 0.0000000000 0.0000000000 8889.7540938713 3.2602324471 -11.1546227519
3.1374897039 -11.6393228850 0.0000000000 0.0000000000 0.0000000000 7644.4152617550 3.2602324471 -11.1546227519
3.1576247763 -11.6439811747 0.0000000000 0.0000000000 0.0000000000 6355.4224190640 3.2602324471 -11.1546227519
3.1779351523 -11.6478034037 0.0000000000 0.0000000000 0.0000000000 5029.4034486106 3.2602324471 -11.1546227519
3.1983861318 -11.6507830419 0.0000000000 0.0000000000 0.0000000000 3673.2648041035 3.2602324471 -11.1546227519
3.2189427747 -11.6529149985 0.0000000000 0.0000000000 0.0000000000 2293.9792816699 3.2602324471 -11.1546227519
3.2395699603 -11.6541956312 0.0000000000 0.0000000000 0.0000000000 898.5311251972 3.2602324471 -11.1546227519
3.2602324474 -11.6546227519 0.0000000000 0.0000000000 0.0000000000 -506.0902248931 3.2602324471 -11.1546227519
3.2808949346 -11.6541956311 0.0000000000 0.0000000000 0.0000000000 -1912.8589949058 3.2602324471 -11.1546227519
3.3015221202 -11.6529149984 0.0000000000 0.0000000000 0.0000000000 -3314.6631896570 3.2602324471 -11.1546227519
3.3220787631 -11.6507830418 0.0000000000 0.0000000000 0.0000000000 -4704.2759418992 3.2602324471 -11.1546227519
3.3425297426 -11.6478034036 0.0000000000 0.0000000000 0.0000000000 -6074.4052424932 3.2602324471 -11.1546227519
3.3628401186 -11.6439811745 0.0000000000 0.0000000000 0.0000000000 -7417.8266861741 3.2602324471 -11.1546227519
3.3829751910 -11.6393228848 0.0000000000 0.0000000000 0.0000000000 -8727.5475060209 3.2602324471 -11.1546227519
3.4029005596 -11.6338364931 0.0000000000 0.0000000000 0.0000000000 -9996.9502179918 3.2602324471 -11.1546227519
3.4225821821 -11.6275313727 0.0000000000 0.0000000000 0.0000000000 -11219.8149917926 3.2602324471 -11.1546227519
3.4419864327 -11.6204182959 0.0000000000 0.0000000000 0.0000000000 -12390.4034364348 3.2602324471 -11.1546227519
3.4610801598 -11.6125094151 0.0000000000 0.0000000000 0.0000000000 -13503.1635042783 3.2602324471 -11.1546227519
3.4798307419 -11.6038182427 0.0000000000 0.0000000000 0.0000000000 -14553.2794772205 3.2602324471 -11.1546227519
3.4982061440 -11.5943596274 0.0000000000 0.0000000000 0.0000000000 -15535.3429816344 3.2602324471 -11.1546227519
3.5161749720 -11.5841497290 0.0000000000 0.0000000000 0.0000000000 -16446.1895369162 3.2602324471 -11.1546227519
3.5337065265 -11.5732059909 0.0000000000 0.0000000000 0.0000000000 -17279.2825063205 3.2602324471 -11.1546227519
3.5507708551 -11.5615471104 0.0000000000 0.0000000000 0.0000000000 -18035.5372080333 3.2602324471 -11.1546227519
3.5673388038 -11.5491930064 0.0000000000 0.0000000000 0.0000000000 -18704.2650930916 3.2602324471 -11.1546227519
3.5833820663 -11.5361647858 0.0000000000 0.0000000000 0.0000000000 -19293.2317448687 3.2602324471 -11.1546227519
3.5988732332 -11.5224847070 0.0000000000 0.0000000000 0.0000000000 -19792.6366703948 3.2602324471 -11.1546227519
3.8390361853 -11.6082617459 0.0000000000 1.7050444458 1.1354403087 -10579.2523571489 3.2892472810 -11.0981321929
3.8558370076 -11.5835541876 0.0000000000 1.6250057564 1.1411613687 -10746.9556098086 3.2873582149 -11.0943386296
3.8717994880 -11.5582350463 0.0000000000 1.5449585087 1.1414529466 -10869.3943578501 3.2854258759 -11.0906176953
3.8869045451 -11.5323570863 0.0000000000 1.4654519506 1.1364130323 -10947.2193052077 3.2834562100 -11.0869919476
3.9011352336 -11.5059759019 0.0000000000 1.3870204317 1.1261087067 -10980.1578995930 3.2814561526 -11.0834858588
3.9144758266 -11.4791484646 0.0000000000 1.3101977379 1.1107163805 -10969.0423740504 3.2794326769 -11.0801244076
3.9269113575 -11.4519322764 0.0000000000 1.2354938911 1.0904826165 -10915.2478674120 3.2773923044 -11.0769322768
3.9384273997 -11.4243847657 0.0000000000 1.1633799069 1.0657314686 -10820.8508290598 3.2753408544 -11.0739332949
3.9490100160 -11.3965628197 0.0000000000 1.0942726627 1.0368522778 -10688.5244683537 3.2732833649 -11.0711500158
3.9586458380 -11.3685224019 0.0000000000 1.0285227358 1.0042879046 -10521.4623696084 3.2712241459 -11.0686033840
3.9673222315 -11.3403182264 0.0000000000 0.9664059200 0.9685193286 -10323.2598577577 3.2691669199 -11.0663124585
3.9750274990 -11.3120034718 0.0000000000 0.9081188141 0.9300493064 -10097.7846390791 3.2671150012 -11.0642941757
3.9817510761 -11.2836295246 0.0000000000 0.8537784912 0.8893860240 -9849.0421523863 3.2650714716 -11.0625631442
3.9874836957 -11.2552457516 0.0000000000 0.8034258493 0.8470279083 -9581.0464687872 3.2630393259 -11.0611314682
3.9922175108 -11.2268992990 0.0000000000 0.7570319979 0.8034503948 -9297.7040022746 3.2610215766 -11.0600085989
3.9959461749 -11.1986349192 0.0000000000 0.7145068954 0.7590951795 -9002.7153206519 3.2590213199 -11.0592012142
3.9986648861 -11.1704948263 0.0000000000 0.6757094113 0.7143622028 -8699.4979950944 3.2570417664 -11.0587131270
4.0003703985 -11.1425185771 0.0000000000 0.6404580346 0.6696043802 -8391.1314168844 3.2550862411 -11.0585452204
4.0010610027 -11.1147429815 0.0000000000 0.6085415465 0.6251249062 -8080.3228355130 3.2531581548 -11.0586954116
4.0007364765 -11.0872020373 0.0000000000 0.5797291115 0.5811768199 -7769.3926135200 3.2512609479 -11.0591586419
3.9993980071 -11.0599268941 0.0000000000 0.5537793903 0.5379644403 -7460.2758624614 3.2493980071 -11.0599268944
3.9970480853 -11.0329458436 0.0000000000 0.5304484311 0.4956462436 -7154.5372059391 3.2475725568 -11.0609892396
3.9936903793 -11.0062843410 0.0000000000 0.5094962226 0.4543387628 -6853.3953595030 3.2457875314 -11.0623319115
3.9893295930 -10.9799650600 0.0000000000 0.4906919086 0.4141211270 -6557.7544458113 3.2440454356 -11.0639384173
3.9839713214 -10.9540079885 0.0000000000 0.4738177338 0.3750399178 -6268.2393810213 3.2423482018 -11.0657896884
3.9776219116 -10.9284305736 0.0000000000 0.4586718442 0.3371140797 -5985.2331746877 3.2406970567 -11.0678642792
3.9702883379 -10.9032479262 0.0000000000 0.4450700819 0.3003396889 -5708.9144909527 3.2390924038 -11.0701386269
3.9619780962 -10.8784730953 0.0000000000 0.4328469188 0.2646944359 -5439.2942569203 3.2375337266 -11.0725873793
3.9526991172 -10.8541174223 0.0000000000 0.4218556609 0.2301417286 -5176.2504384598 3.2360195129 -11.0751838033
3.9424596933 -10.8301909798 0.0000000000 0.4119680394 0.1966343659 -4919.5603280812 3.2345471956 -11.0779002765
3.9312684121 -10.8067030940 0.0000000000 0.4030732895 0.1641177783 -4668.9298199613 3.2331131007 -11.0807088624
3.9191340848 -10.7836629425 0.0000000000 0.3950768031 0.1325328953 -4424.0192232270 3.2317123930 -11.0835819609
3.9060656629 -10.7610802111 0.0000000000 0.3878984343 0.1018187069 -4184.4652671986 3.2303390121 -11.0864930156
3.8920721403 -10.7389657880 0.0000000000 0.3814704830 0.0719143455 -3949.8990619610 3.2289855952 -11.0894172594
3.8771624501 -10.7173324729 0.0000000000 0.3757353775 0.0427606633 -3719.9595108064 3.2276433974 -11.0923324730
3.8613453883 -10.6961956814 0.0000000000 0.3706433954 0.0143039276 -3494.3016308817 3.2263022389 -11.0952197389
3.8446296125 -10.6755741384 0.0000000000 0.3661510302 -0.0134949676 -3272.6031584077 3.2249505318 -11.0980641821
3.8270237560 -10.6554905650 0.0000000000 0.3622198216 -0.0406637203 -3054.5776521605 3.2235754213 -11.1008557043
3.8085365852 -10.6359723982 0.0000000000 0.3588155456 -0.0672792684 -2839.9829466411 3.2221629734 -11.1035897497
3.7891768474 -10.6170526536 0.0000000000 0.3559068037 -0.0935240488 -2628.5764297589 3.2206980551 -11.1062682121
3.7689516054 -10.5987709265 0.0000000000 0.3534357340 -0.1194110893 -2420.0150506707 3.2191627015 -11.1089004799
3.7243943499 -10.5618657659 0.0000000000 0.3499375203 -0.1677751754 -1988.3330075827 3.2164331712 -11.1136586990
3.6999756640 -10.5434692007 0.0000000000 0.3491641079 -0.1913322859 -1767.7820028227 3.2152512357 -11.1157822519
3.6746693012 -10.5260013764 0.0000000000 0.3511232048 -0.2276761187 -1552.2266119296 3.2140097668 -11.1178567585
3.6485369350 -10.5094887996 0.0000000000 0.3586360441 -0.2893980202 -1339.7807577649 3.2127293236 -11.1198753376
3.6216399905 -10.4939609615 0.0000000000 0.3701878742 -0.3638085886 -1128.4306425145 3.2114288720 -11.1218358202
3.5940408915 -10.4794477095 0.0000000000 0.3769743484 -0.4082427887 -919.0667467917 3.2101271048 -11.1237381753
3.5658038320 -10.4659784716 0.0000000000 0.3697669507 -0.3887074237 -714.1308225963 3.2088432874 -11.1255837851
3.5369949854 -10.4535818302 0.0000000000 0.3496347637 -0.3190420237 -513.0007003299 3.2075975439 -11.1273750666
3.5076823274 -10.4422850931 0.0000000000 0.3269494594 -0.2435598394 -312.3393463926 3.2064107590 -11.1291150882
3.4779351899 -10.4321138460 0.0000000000 0.3096752224 -0.1891192482 -110.5390997940 3.2053042121 -11.1308071621
3.4478236547 -10.4230915503 0.0000000000 0.2978677584 -0.1526790296 91.3176061619 3.2042990529 -11.1324544816
3.4174178846 -10.4152392222 0.0000000000 0.2886830867 -0.1238979608 292.0729470314 3.2034157166 -11.1340598341
3.3867874727 -10.4085751922 0.0000000000 0.2808783924 -0.0989617366 491.5942393150 3.2026733575 -11.1356253917
3.3560008609 -10.4031149310 0.0000000000 0.2742803709 -0.0772366274 689.9603120331 3.2020893544 -11.1371525650
3.3251248593 -10.3988709314 0.0000000000 0.2686770884 -0.0579354983 887.1272956794 3.2016789167 -11.1386419090
3.2942242736 -10.3958526452 0.0000000000 0.2638552317 -0.0403854454 1083.0809095970 3.2014548003 -11.1400930800
3.2633616365 -10.3940664730 0.0000000000 0.2596724982 -0.0241535770 1277.8549416042 3.2014271276 -11.1415048427
3.2325970248 -10.3935158092 0.0000000000 0.2560143159 -0.0089070820 1471.5104901144 3.2016032943 -11.1428751280
3.2019879439 -10.3942011339 0.0000000000 0.2527861075 0.0056138571 1664.1369864595 3.2019879440 -11.1442011339
3.1715892592 -10.3961201398 0.0000000000 0.2499087090 0.0196169638 1855.8504232407 3.2025829900 -11.1454794586
3.1414531594 -10.3992678757 0.0000000000 0.2473142351 0.0332737162 2046.7914921160 3.2033876687 -11.1467062455
3.1116291397 -10.4036368911 0.0000000000 0.2449435101 0.0467300415 2237.1238674033 3.2043986133 -11.1478773258
3.0821640006 -10.4092173673 0.0000000000 0.2427441493 0.0601138287 2427.0326969762 3.2056099435 -11.1489883448
3.0531018588 -10.4159972327 0.0000000000 0.2406691961 0.0735407821 2616.7234565860 3.2070133656 -11.1500348667
3.0244841713 -10.4239622636 0.0000000000 0.2386756474 0.0871237994 2806.4193250639 3.2085982868 -11.1510124630
2.9963497738 -10.4330961822 0.0000000000 0.2367227650 0.1009794249 2996.3565552693 3.2103519421 -11.1519167940
2.9687349344 -10.4433807637 0.0000000000 0.2347729166 0.1152083709 3186.7865958486 3.2122595364 -11.1527436949
2.9416734260 -10.4547959641 0.0000000000 0.2327945322 0.1298791276 3377.9919135685 3.2143044041 -11.1534892800
2.9151966190 -10.4673200761 0.0000000000 0.2307539180 0.1451267833 3570.2872454963 3.2164681877 -11.1541500710
2.8893335983 -10.4809299126 0.0000000000 0.2285893183 0.1613373080 3763.9547715725 3.2187310401 -11.1547231489
2.8641113094 -10.4956010117 0.0000000000 0.2262097755 0.1790136889 3959.1449294107 3.2210718543 -11.1552063250
2.8395547388 -10.5113078498 0.0000000000 0.2235826591 0.1980048576 4155.9339969148 3.2234685258 -11.1555983155
2.8156871348 -10.5280240479 0.0000000000 0.2208533970 0.2168747518 4354.7068924267 3.2258982535 -11.1558989065
2.7925302718 -10.5457225539 0.0000000000 0.2182437866 0.2342246618 4556.6027904726 3.2283378835 -11.1561090918
2.7701047620 -10.5643757884 0.0000000000 0.2155158549 0.2525226513 4763.2638976736 3.2307642966 -11.1562311703
2.7484304113 -10.5839557493 0.0000000000 0.2113082785 0.2811086531 4975.3599708615 3.2331548399 -11.1562688003
2.7275266185 -10.6044340907 0.0000000000 0.2033584179 0.3322400558 5190.6137241095 3.2354877974 -11.1562270236
2.6881091065 -10.6479677587 0.0000000000 0.1762336283 0.4821920552 5612.2494976338 3.2399020397 -11.1559289372
2.6696360472 -10.6709638853 0.0000000000 0.1701131976 0.5032490958 5819.6479899937 3.2419490985 -11.1556883135
2.6520155742 -10.6947393755 0.0000000000 0.1861461885 0.4113814058 6035.7041108235 3.2438709564 -11.1553989099
2.6352711700 -10.7192623320 0.0000000000 0.2355229184 0.1782850861 6267.9525266379 3.2456577081 -11.1550699434
2.6194279719 -10.7444998230 0.0000000000 0.3178309900 -0.1654321059 6517.0387874099 3.2473028307 -11.1547109414
2.6045127673 -10.7704176525 0.0000000000 0.4168772304 -0.5351615550 6773.3840745306 3.2488032333 -11.1543314391
2.5905538399 -10.7969801898 0.0000000000 0.5073325421 -0.8345456333 7017.6115202734 3.2501591535 -11.1539407343
2.5775806591 -10.8241502431 0.0000000000 0.5701299426 -1.0103706090 7236.6405968488 3.2513738956 -11.1535476845
2.5656234362 -10.8518889800 0.0000000000 0.6038366217 -1.0766509799 7440.5741258352 3.2524534313 -11.1531605482
2.5547125858 -10.8801558940 0.0000000000 0.6213618055 -1.0878521263 7650.5817640783 3.2534059019 -11.1527868716
2.5448781391 -10.9089088166 0.0000000000 0.6371726023 -1.0923302336 7875.8414066927 3.2542410704 -11.1524334183
2.5361491590 -10.9381039678 0.0000000000 0.6582769411 -1.1092125397 8112.4425182142 3.2549697709 -11.1521061357
2.5285532016 -10.9676960360 0.0000000000 0.6844029144 -1.1359157029 8354.3231671408 3.2556034011 -11.1518101511
2.5221158549 -10.9976382781 0.0000000000 0.7129988464 -1.1651117569 8598.5282588851 3.2561534890 -11.1515497845
2.5168603754 -11.0278826298 0.0000000000 0.7428140790 -1.1935077146 8845.0488305978 3.2566313530 -11.1513285722
2.5128074249 -11.0583798203 0.0000000000 0.7740853852 -1.2212608376 9094.6684095969 3.2570478597 -11.1511492935