 TITLE = "Tecplot data"
 VARIABLES = "X", "Y", "Z" "U", "V", "p", "dispX", "dispY"
 ZONE SOLUTIONTIME=189.900000, NODES=26114 , ELEMENTS=25916, DATAPACKING=POINT, ZONETYPE=FEQUADRILATERAL
7.5436368179 -18.6439115933 0.0000000000 0.0000000000 0.0000000000 -4473.4059115828 7.1900834274 -18.9974649840
7.5436368182 -19.3510183743 0.0000000000 0.0000000000 0.0000000000 -8191.9461485556 7.1900834274 -18.9974649840
6.8365300367 -18.6439115935 0.0000000000 0.0000000000 0.0000000000 1358.1954297083 7.1900834274 -18.9974649840
6.8365300370 -19.3510183747 0.0000000000 0.0000000000 0.0000000000 9560.1010780085 7.1900834274 -18.9974649840
7.6447381743 -18.3939838464 0.0000000000 0.1682180834 0.2564215974 -3142.1578628941 7.1144080885 -18.9243139323
7.7607777369 -19.4410202853 0.0000000000 1.2343069962 1.1441387960 -5258.6028634618 7.2304476506 -18.9106901998
6.6182018731 -18.4711800220 0.0000000000 0.1241775513 0.1692138791 1440.8719077030 7.1485319591 -19.0015101078
6.6644109479 -19.5260103734 0.0000000000 1.3858593065 -0.8463118026 6220.7711777848 7.1947410335 -18.9956802872
7.7542254064 -17.3935131327 0.0000000000 0.5909033352 0.0892327100 -1114.6426222938 6.6935652347 -18.4541733046
8.4765002037 -19.4605431784 0.0000000000 0.8323345949 0.5702888021 -2972.4696332791 7.4158400312 -18.3998830074
5.8826515647 -17.9274302682 0.0000000000 0.6937326540 -0.3710152450 1350.7541192372 6.9433117368 -18.9880904396
6.1749816084 -20.0221647776 0.0000000000 1.0538601331 -0.4011864081 3355.3941146096 7.2356417797 -18.9615046053
8.9191856198 -12.3564368270 0.0000000000 1.0229322651 -0.0929603362 -84.4969786870 4.7191856198 -15.6564368270
12.5532085651 -18.9406633149 0.0000000000 1.0473514801 0.1033198233 -818.4857406553 8.3532085651 -15.6406633149
20.0000000000 4.7000000000 0.0000000000 0.8870634489 -0.0138897985 -0.2809369389 0.0000000000 0.0000000000
20.0000000000 -4.7000000000 0.0000000000 0.9422508509 -0.1149185002 -0.0022429768 0.0000000000 0.0000000000
-10.0000000000 15.0000000000 0.0000000000 1.0000000000 0.0000000000 227.7717394016 0.0000000000 0.0000000000
20.0000000000 15.0000000000 0.0000000000 1.4899833653 0.0000000000 5.6092580759 0.0000000000 0.0000000000
20.0000000000 -15.0000000000 0.0000000000 1.2735031931 0.0000000000 5.2969254921 0.0000000000 0.0000000000
-10.0000000000 -15.0000000000 0.0000000000 1.0000000000 0.0000000000 482.6998478061 0.0000000000 0.0000000000
7.5566093635 -19.3375513526 0.0000000000 0.0000000000 0.0000000000 -8739.9552860070 7.1900834274 -18.9974649840
7.5690692892 -19.3236086893 0.0000000000 0.0000000000 0.0000000000 -9192.1362156976 7.1900834274 -18.9974649840
7.5809991688 -19.3092098846 0.0000000000 0.0000000000 0.0000000000 -9652.8197800010 7.1900834274 -18.9974649840
7.5923823175 -19.2943750765 0.0000000000 0.0000000000 0.0000000000 -10061.3958798149 7.1900834274 -18.9974649840
7.6032028147 -19.2791250127 0.0000000000 0.0000000000 0.0000000000 -10448.5867943031 7.1900834274 -18.9974649840
7.6134455272 -19.2634810219 0.0000000000 0.0000000000 0.0000000000 -10795.3876566907 7.1900834274 -18.9974649840
7.6230961294 -19.2474649837 0.0000000000 0.0000000000 0.0000000000 -11110.7344167781 7.1900834274 -18.9974649840
7.6321411243 -19.2310992978 0.0000000000 0.0000000000 0.0000000000 -11388.1794210285 7.1900834274 -18.9974649840
7.6405678615 -19.2144068532 0.0000000000 0.0000000000 0.0000000000 -11630.3851173313 7.1900834274 -18.9974649840
7.6483645554 -19.1974109958 0.0000000000 0.0000000000 0.0000000000 -11835.0011896356 7.1900834274 -18.9974649840
7.6555203018 -19.1801354959 0.0000000000 0.0000000000 0.0000000000 -12002.9116637980 7.1900834274 -18.9974649840
7.6620250926 -19.1626045147 0.0000000000 0.0000000000 0.0000000000 -12133.3441042705 7.1900834274 -18.9974649840
7.6678698304 -19.1448425709 0.0000000000 0.0000000000 0.0000000000 -12226.7972450470 7.1900834274 -18.9974649840
7.6730463406 -19.1268745063 0.0000000000 0.0000000000 0.0000000000 -12283.2686025772 7.1900834274 -18.9974649840
7.6775473835 -19.1087254507 0.0000000000 0.0000000000 0.0000000000 -12303.3346895807 7.1900834274 -18.9974649840
7.6813666641 -19.0904207873 0.0000000000 0.0000000000 0.0000000000 -12287.4828698987 7.1900834274 -18.9974649840
7.6844988405 -19.0719861168 0.0000000000 0.0000000000 0.0000000000 -12236.5224482787 7.1900834274 -18.9974649840
7.6869395324 -19.0534472218 0.0000000000 0.0000000000 0.0000000000 -12151.3217555637 7.1900834274 -18.9974649840
7.6886853260 -19.0348300305 0.0000000000 0.0000000000 0.0000000000 -12032.9669456202 7.1900834274 -18.9974649840
7.6897337798 -19.0161605809 0.0000000000 0.0000000000 0.0000000000 -11882.6517984076 7.1900834274 -18.9974649840
7.6900834274 -18.9974649837 0.0000000000 0.0000000000 0.0000000000 -11701.7370768964 7.1900834274 -18.9974649840
7.6897337798 -18.9787693866 0.0000000000 0.0000000000 0.0000000000 -11491.6989906118 7.1900834274 -18.9974649840
7.6886853260 -18.9600999370 0.0000000000 0.0000000000 0.0000000000 -11254.1475080929 7.1900834274 -18.9974649840
7.6869395323 -18.9414827457 0.0000000000 0.0000000000 0.0000000000 -10990.7979493144 7.1900834274 -18.9974649840
7.6844988405 -18.9229438507 0.0000000000 0.0000000000 0.0000000000 -10703.4722415680 7.1900834274 -18.9974649840
7.6813666640 -18.9045091802 0.0000000000 0.0000000000 0.0000000000 -10394.0806950037 7.1900834274 -18.9974649840
7.6775473834 -18.8862045168 0.0000000000 0.0000000000 0.0000000000 -10064.6190033796 7.1900834274 -18.9974649840
7.6730463405 -18.8680554613 0.0000000000 0.0000000000 0.0000000000 -9717.1558488407 7.1900834274 -18.9974649840
7.6678698302 -18.8500873966 0.0000000000 0.0000000000 0.0000000000 -9353.8401159127 7.1900834274 -18.9974649840
7.6620250925 -18.8323254528 0.0000000000 0.0000000000 0.0000000000 -8976.8892489257 7.1900834274 -18.9974649840
7.6555203017 -18.8147944716 0.0000000000 0.0000000000 0.0000000000 -8588.6373944918 7.1900834274 -18.9974649840
7.6483645553 -18.7975189717 0.0000000000 0.0000000000 0.0000000000 -8191.5022018012 7.1900834274 -18.9974649840
7.6405678613 -18.7805231143 0.0000000000 0.0000000000 0.0000000000 -7788.1424553945 7.1900834274 -18.9974649840
7.6321411241 -18.7638306697 0.0000000000 0.0000000000 0.0000000000 -7381.3420571116 7.1900834274 -18.9974649840
7.6230961292 -18.7474649839 0.0000000000 0.0000000000 0.0000000000 -6974.3933523495 7.1900834274 -18.9974649840
7.6134455270 -18.7314489456 0.0000000000 0.0000000000 0.0000000000 -6570.8299366183 7.1900834274 -18.9974649840
7.6032028145 -18.7158049548 0.0000000000 0.0000000000 0.0000000000 -6174.9709026143 7.1900834274 -18.9974649840
7.5923823172 -18.7005548911 0.0000000000 0.0000000000 0.0000000000 -5791.6305537894 7.1900834274 -18.9974649840
7.5809991686 -18.6857200830 0.0000000000 0.0000000000 0.0000000000 -5425.4379530581 7.1900834274 -18.9974649840
7.5690692889 -18.6713212783 0.0000000000 0.0000000000 0.0000000000 -5082.2512208124 7.1900834274 -18.9974649840
7.5566093633 -18.6573786150 0.0000000000 0.0000000000 0.0000000000 -4762.6781473954 7.1900834274 -18.9974649840
7.5287242132 -18.6296030286 0.0000000000 0.0000000000 0.0000000000 -4178.5991365553 7.1900834274 -18.9974649840
7.5132330463 -18.6159229498 0.0000000000 0.0000000000 0.0000000000 -3916.7107986748 7.1900834274 -18.9974649840
7.4971897837 -18.6028947292 0.0000000000 0.0000000000 0.0000000000 -3674.0184454910 7.1900834274 -18.9974649840
7.4806218350 -18.5905406253 0.0000000000 0.0000000000 0.0000000000 -3451.9406996056 7.1900834274 -18.9974649840
7.4635575064 -18.5788817448 0.0000000000 0.0000000000 0.0000000000 -3242.3438353535 7.1900834274 -18.9974649840
7.4460259519 -18.5679380067 0.0000000000 0.0000000000 0.0000000000 -3045.5688374241 7.1900834274 -18.9974649840
7.4280571238 -18.5577281083 0.0000000000 0.0000000000 0.0000000000 -2857.6659852017 7.1900834274 -18.9974649840
7.4096817218 -18.5482694930 0.0000000000 0.0000000000 0.0000000000 -2678.6885105393 7.1900834274 -18.9974649840
7.3909311397 -18.5395783206 0.0000000000 0.0000000000 0.0000000000 -2506.5776530242 7.1900834274 -18.9974649840
7.3718374126 -18.5316694399 0.0000000000 0.0000000000 0.0000000000 -2341.0745639485 7.1900834274 -18.9974649840
7.3524331619 -18.5245563631 0.0000000000 0.0000000000 0.0000000000 -2180.9556510758 7.1900834274 -18.9974649840
7.3327515394 -18.5182512427 0.0000000000 0.0000000000 0.0000000000 -2025.8441827718 7.1900834274 -18.9974649840
7.3128261709 -18.5127648510 0.0000000000 0.0000000000 0.0000000000 -1874.9670323061 7.1900834274 -18.9974649840
7.2926910984 -18.5081065613 0.0000000000 0.0000000000 0.0000000000 -1727.9549934876 7.1900834274 -18.9974649840
7.2723807224 -18.5042843322 0.0000000000 0.0000000000 0.0000000000 -1584.2873587068 7.1900834274 -18.9974649840
7.2519297429 -18.5013046941 0.0000000000 0.0000000000 0.0000000000 -1443.6343559143 7.1900834274 -18.9974649840
7.2313731000 -18.4991727374 0.0000000000 0.0000000000 0.0000000000 -1305.6166175128 7.1900834274 -18.9974649840
7.2107459144 -18.4978921048 0.0000000000 0.0000000000 0.0000000000 -1169.9481379008 7.1900834274 -18.9974649840
7.1900834273 -18.4974649840 0.0000000000 0.0000000000 0.0000000000 -1036.3350682917 7.1900834274 -18.9974649840
7.1694209402 -18.4978921048 0.0000000000 0.0000000000 0.0000000000 -904.5328018691 7.1900834274 -18.9974649840
7.1487937545 -18.4991727375 0.0000000000 0.0000000000 0.0000000000 -774.3040620062 7.1900834274 -18.9974649840
7.1282371116 -18.5013046941 0.0000000000 0.0000000000 0.0000000000 -645.4401462674 7.1900834274 -18.9974649840
7.1077861321 -18.5042843323 0.0000000000 0.0000000000 0.0000000000 -517.7435590554 7.1900834274 -18.9974649840
7.0874757562 -18.5081065613 0.0000000000 0.0000000000 0.0000000000 -391.0349740862 7.1900834274 -18.9974649840
7.0673406837 -18.5127648510 0.0000000000 0.0000000000 0.0000000000 -265.1458135365 7.1900834274 -18.9974649840
7.0474153152 -18.5182512428 0.0000000000 0.0000000000 0.0000000000 -139.9198802154 7.1900834274 -18.9974649840
7.0277336927 -18.5245563631 0.0000000000 0.0000000000 0.0000000000 -15.2099308830 7.1900834274 -18.9974649840
7.0083294420 -18.5316694400 0.0000000000 0.0000000000 0.0000000000 109.1224854704 7.1900834274 -18.9974649840
6.9892357149 -18.5395783207 0.0000000000 0.0000000000 0.0000000000 233.2088374884 7.1900834274 -18.9974649840
6.9704851329 -18.5482694931 0.0000000000 0.0000000000 0.0000000000 357.1742698594 7.1900834274 -18.9974649840
6.9521097308 -18.5577281084 0.0000000000 0.0000000000 0.0000000000 481.1387385671 7.1900834274 -18.9974649840
6.9341409027 -18.5679380068 0.0000000000 0.0000000000 0.0000000000 605.2177407575 7.1900834274 -18.9974649840
6.9166093482 -18.5788817449 0.0000000000 0.0000000000 0.0000000000 729.5231532578 7.1900834274 -18.9974649840
6.8995450196 -18.5905406254 0.0000000000 0.0000000000 0.0000000000 854.1639252109 7.1900834274 -18.9974649840
6.8829770709 -18.6028947293 0.0000000000 0.0000000000 0.0000000000 979.2467820140 7.1900834274 -18.9974649840
6.8669338083 -18.6159229499 0.0000000000 0.0000000000 0.0000000000 1104.8768776115 7.1900834274 -18.9974649840
6.8514426415 -18.6296030287 0.0000000000 0.0000000000 0.0000000000 1231.1584441254 7.1900834274 -18.9974649840
6.8222214719 -18.6588241983 0.0000000000 0.0000000000 0.0000000000 1486.0921474202 7.1900834274 -18.9974649840
6.8085413932 -18.6743153651 0.0000000000 0.0000000000 0.0000000000 1614.9539561287 7.1900834274 -18.9974649840
6.7955131726 -18.6903586277 0.0000000000 0.0000000000 0.0000000000 1744.8880246675 7.1900834274 -18.9974649840
6.7831590687 -18.7069265764 0.0000000000 0.0000000000 0.0000000000 1876.0042599442 7.1900834274 -18.9974649840
6.7715001882 -18.7239909050 0.0000000000 0.0000000000 0.0000000000 2008.4165046315 7.1900834274 -18.9974649840
6.7605564501 -18.7415224596 0.0000000000 0.0000000000 0.0000000000 2142.2440991377 7.1900834274 -18.9974649840
6.7503465517 -18.7594912876 0.0000000000 0.0000000000 0.0000000000 2277.6138396760 7.1900834274 -18.9974649840
6.7408879364 -18.7778666897 0.0000000000 0.0000000000 0.0000000000 2414.6622592781 7.1900834274 -18.9974649840
6.7321967640 -18.7966172718 0.0000000000 0.0000000000 0.0000000000 2553.5380609067 7.1900834274 -18.9974649840
6.7242878833 -18.8157109988 0.0000000000 0.0000000000 0.0000000000 2694.4045223190 7.1900834274 -18.9974649840
6.7171748065 -18.8351152495 0.0000000000 0.0000000000 0.0000000000 2837.4418179105 7.1900834274 -18.9974649840
6.7108696861 -18.8547968720 0.0000000000 0.0000000000 0.0000000000 2982.8494590028 7.1900834274 -18.9974649840
6.7053832944 -18.8747222406 0.0000000000 0.0000000000 0.0000000000 3130.8492835041 7.1900834274 -18.9974649840
6.7007250047 -18.8948573130 0.0000000000 0.0000000000 0.0000000000 3281.6894782562 7.1900834274 -18.9974649840
6.6969027757 -18.9151676890 0.0000000000 0.0000000000 0.0000000000 3435.6498585847 7.1900834274 -18.9974649840
6.6939231375 -18.9356186685 0.0000000000 0.0000000000 0.0000000000 3593.0481674558 7.1900834274 -18.9974649840
6.6917911809 -18.9561753114 0.0000000000 0.0000000000 0.0000000000 3754.2469264945 7.1900834274 -18.9974649840
6.6905105482 -18.9768024970 0.0000000000 0.0000000000 0.0000000000 3919.6608293602 7.1900834274 -18.9974649840
6.6900834274 -18.9974649842 0.0000000000 0.0000000000 0.0000000000 4089.7665026337 7.1900834274 -18.9974649840
6.6905105482 -19.0181274713 0.0000000000 0.0000000000 0.0000000000 4265.1198447221 7.1900834274 -18.9974649840
6.6917911809 -19.0387546569 0.0000000000 0.0000000000 0.0000000000 4446.3913815891 7.1900834274 -18.9974649840
6.6939231376 -19.0593112998 0.0000000000 0.0000000000 0.0000000000 4634.4370294078 7.1900834274 -18.9974649840
6.6969027757 -19.0797622793 0.0000000000 0.0000000000 0.0000000000 4830.4304807940 7.1900834274 -18.9974649840
6.7007250048 -19.1000726553 0.0000000000 0.0000000000 0.0000000000 5036.0878410383 7.1900834274 -18.9974649840
6.7053832945 -19.1202077277 0.0000000000 0.0000000000 0.0000000000 5253.9887155116 7.1900834274 -18.9974649840
6.7108696862 -19.1401330963 0.0000000000 0.0000000000 0.0000000000 5487.8956682827 7.1900834274 -18.9974649840
6.7171748066 -19.1598147188 0.0000000000 0.0000000000 0.0000000000 5742.7945916784 7.1900834274 -18.9974649840
6.7242878835 -19.1792189694 0.0000000000 0.0000000000 0.0000000000 6024.2558108152 7.1900834274 -18.9974649840
6.7321967642 -19.1983126965 0.0000000000 0.0000000000 0.0000000000 6336.8913559910 7.1900834274 -18.9974649840
6.7408879365 -19.2170632786 0.0000000000 0.0000000000 0.0000000000 6682.2548852719 7.1900834274 -18.9974649840
6.7503465519 -19.2354386807 0.0000000000 0.0000000000 0.0000000000 7057.1357346308 7.1900834274 -18.9974649840
6.7605564503 -19.2534075087 0.0000000000 0.0000000000 0.0000000000 7453.1925253769 7.1900834274 -18.9974649840
6.7715001884 -19.2709390632 0.0000000000 0.0000000000 0.0000000000 7858.1334367359 7.1900834274 -18.9974649840
6.7831590689 -19.2880033919 0.0000000000 0.0000000000 0.0000000000 8257.8295235687 7.1900834274 -18.9974649840
6.7955131728 -19.3045713405 0.0000000000 0.0000000000 0.0000000000 8638.4715210268 7.1900834274 -18.9974649840
6.8085413935 -19.3206146031 0.0000000000 0.0000000000 0.0000000000 8988.1333736093 7.1900834274 -18.9974649840
6.8222214722 -19.3361057700 0.0000000000 0.0000000000 0.0000000000 9297.5329991785 7.1900834274 -18.9974649840
6.8514426418 -19.3653269395 0.0000000000 0.0000000000 0.0000000000 9771.6201907230 7.1900834274 -18.9974649840
6.8669338087 -19.3790070182 0.0000000000 0.0000000000 0.0000000000 9929.6893707399 7.1900834274 -18.9974649840
6.8829770713 -19.3920352388 0.0000000000 0.0000000000 0.0000000000 10033.2005860025 7.1900834274 -18.9974649840
6.8995450199 -19.4043893427 0.0000000000 0.0000000000 0.0000000000 10081.9138893654 7.1900834274 -18.9974649840
6.9166093486 -19.4160482232 0.0000000000 0.0000000000 0.0000000000 10076.1553878443 7.1900834274 -18.9974649840
6.9341409031 -19.4269919613 0.0000000000 0.0000000000 0.0000000000 10016.6214214582 7.1900834274 -18.9974649840
6.9521097311 -19.4372018597 0.0000000000 0.0000000000 0.0000000000 9904.2620314693 7.1900834274 -18.9974649840
6.9704851332 -19.4466604750 0.0000000000 0.0000000000 0.0000000000 9740.2177296313 7.1900834274 -18.9974649840
6.9892357153 -19.4553516474 0.0000000000 0.0000000000 0.0000000000 9525.7902402460 7.1900834274 -18.9974649840
7.0083294424 -19.4632605281 0.0000000000 0.0000000000 0.0000000000 9262.4337528208 7.1900834274 -18.9974649840
7.0277336931 -19.4703736049 0.0000000000 0.0000000000 0.0000000000 8951.7581926125 7.1900834274 -18.9974649840
7.0474153155 -19.4766787253 0.0000000000 0.0000000000 0.0000000000 8595.5363068417 7.1900834274 -18.9974649840
7.0673406841 -19.4821651170 0.0000000000 0.0000000000 0.0000000000 8195.7088248849 7.1900834274 -18.9974649840
7.0874757566 -19.4868234067 0.0000000000 0.0000000000 0.0000000000 7754.3782870004 7.1900834274 -18.9974649840
7.1077861325 -19.4906456357 0.0000000000 0.0000000000 0.0000000000 7273.7896601170 7.1900834274 -18.9974649840
7.1282371121 -19.4936252739 0.0000000000 0.0000000000 0.0000000000 6756.2922608088 7.1900834274 -18.9974649840
7.1487937550 -19.4957572305 0.0000000000 0.0000000000 0.0000000000 6204.3026503196 7.1900834274 -18.9974649840
7.1694209406 -19.4970378632 0.0000000000 0.0000000000 0.0000000000 5620.2806501818 7.1900834274 -18.9974649840
7.1900834277 -19.4974649840 0.0000000000 0.0000000000 0.0000000000 5006.7659651664 7.1900834274 -18.9974649840
7.2107459148 -19.4970378631 0.0000000000 0.0000000000 0.0000000000 4366.4158510672 7.1900834274 -18.9974649840
7.2313731004 -19.4957572304 0.0000000000 0.0000000000 0.0000000000 3702.0305696274 7.1900834274 -18.9974649840
7.2519297433 -19.4936252738 0.0000000000 0.0000000000 0.0000000000 3016.5185806225 7.1900834274 -18.9974649840
7.2723807228 -19.4906456356 0.0000000000 0.0000000000 0.0000000000 2313.0548773541 7.1900834274 -18.9974649840
7.2926910988 -19.4868234065 0.0000000000 0.0000000000 0.0000000000 1594.8889596169 7.1900834274 -18.9974649840
7.3128261713 -19.4821651168 0.0000000000 0.0000000000 0.0000000000 865.2807348504 7.1900834274 -18.9974649840
7.3327515398 -19.4766787251 0.0000000000 0.0000000000 0.0000000000 127.4374727758 7.1900834274 -18.9974649840
7.3524331623 -19.4703736047 0.0000000000 0.0000000000 0.0000000000 -615.4653179218 7.1900834274 -18.9974649840
7.3718374130 -19.4632605279 0.0000000000 0.0000000000 0.0000000000 -1360.2899832327 7.1900834274 -18.9974649840
7.3909311400 -19.4553516471 0.0000000000 0.0000000000 0.0000000000 -2103.8602396179 7.1900834274 -18.9974649840
7.4096817221 -19.4466604747 0.0000000000 0.0000000000 0.0000000000 -2843.0684090768 7.1900834274 -18.9974649840
7.4280571242 -19.4372018594 0.0000000000 0.0000000000 0.0000000000 -3574.5932701523 7.1900834274 -18.9974649840
7.4460259522 -19.4269919610 0.0000000000 0.0000000000 0.0000000000 -4295.5293405763 7.1900834274 -18.9974649840
7.4635575067 -19.4160482229 0.0000000000 0.0000000000 0.0000000000 -5002.0833560220 7.1900834274 -18.9974649840
7.4806218354 -19.4043893424 0.0000000000 0.0000000000 0.0000000000 -5692.1194026142 7.1900834274 -18.9974649840
7.4971897840 -19.3920352384 0.0000000000 0.0000000000 0.0000000000 -6360.9693317067 7.1900834274 -18.9974649840
7.5132330466 -19.3790070178 0.0000000000 0.0000000000 0.0000000000 -7006.2488271181 7.1900834274 -18.9974649840
7.5287242135 -19.3653269390 0.0000000000 0.0000000000 0.0000000000 -7630.6969937546 7.1900834274 -18.9974649840
7.7777364253 -19.4144028097 0.0000000000 1.1750060304 1.1659250056 -5581.0129356086 7.2279475211 -18.9042732567
7.7938430336 -19.3871432271 0.0000000000 1.1141862815 1.1831904715 -5881.8939024239 7.2253642409 -18.8979276690
7.8090710304 -19.3593008657 0.0000000000 1.0523366377 1.1955576021 -6156.2766029298 7.2226974183 -18.8916835147
7.8234008175 -19.3309456796 0.0000000000 0.9899982729 1.2029143042 -6401.9051210445 7.2199524824 -18.8855805408
7.8368160288 -19.3021517247 0.0000000000 0.9277512400 1.2051891750 -6616.3509453617 7.2171369478 -18.8796616816
7.8493021130 -19.2729947864 0.0000000000 0.8661902787 1.2024216691 -6797.8892071718 7.2142589633 -18.8739707294
7.8608456399 -19.2435509756 0.0000000000 0.8059028901 1.1947557988 -6945.4574821694 7.2113265868 -18.8685509760
7.8714339592 -19.2138957212 0.0000000000 0.7474443253 1.1824393728 -7058.7460254249 7.2083474139 -18.8634442504
7.8810550975 -19.1841029862 0.0000000000 0.6913149241 1.1658136069 -7138.2037851676 7.2053284464 -18.8586901822
7.8896978310 -19.1542446310 0.0000000000 0.6379413452 1.1452969518 -7184.9987284838 7.2022761390 -18.8543256131
7.8973518710 -19.1243898781 0.0000000000 0.5876633726 1.1213645713 -7200.9331032073 7.1991965594 -18.8503841102
7.9040080918 -19.0946048502 0.0000000000 0.5407269683 1.0945257406 -7188.3256718292 7.1960955940 -18.8468955541
7.9096587445 -19.0649521676 0.0000000000 0.4972834711 1.0653013560 -7149.8744233697 7.1929791400 -18.8438857872
7.9142976213 -19.0354906000 0.0000000000 0.4573942104 1.0342033889 -7088.5134301245 7.1898532515 -18.8413763166
7.9179201618 -19.0062747702 0.0000000000 0.4210393962 1.0017175702 -7007.2756456452 7.1867242276 -18.8393840701
7.9205235029 -18.9773549079 0.0000000000 0.3881299645 0.9682900156 -6909.1706049049 7.1835986479 -18.8379212028
7.9221064813 -18.9487766529 0.0000000000 0.3585210544 0.9343179907 -6797.0828085032 7.1804833616 -18.8369949537
7.9226695945 -18.9205809061 0.0000000000 0.3320259263 0.9001446159 -6673.6935558242 7.1773854371 -18.8366075494
7.9222149214 -18.8928037248 0.0000000000 0.3084293544 0.8660570376 -6541.4264328565 7.1743120735 -18.8367561549
7.9207460023 -18.8654762635 0.0000000000 0.2874997900 0.8322874344 -6402.4147190021 7.1712704737 -18.8374328681
7.9182676792 -18.8386247580 0.0000000000 0.2689998559 0.7990161688 -6258.4877028489 7.1682676792 -18.8386247583
7.9147858981 -18.8122705538 0.0000000000 0.2526949748 0.7663764196 -6111.1722555549 7.1653103695 -18.8403139498
7.9103074828 -18.7864301836 0.0000000000 0.2383601222 0.7344597078 -5961.7059083593 7.1624046349 -18.8424777541
7.9048398922 -18.7611154993 0.0000000000 0.2257848308 0.7033218422 -5811.0579866616 7.1595557348 -18.8450888567
7.8983909774 -18.7363338705 0.0000000000 0.2147766503 0.6729889318 -5659.9559188091 7.1567678578 -18.8481155704
7.8909687555 -18.7120884643 0.0000000000 0.2051632903 0.6434632300 -5508.9145157360 7.1540439006 -18.8515221699
7.8825812106 -18.6883786244 0.0000000000 0.1967936629 0.6147286650 -5358.2666772605 7.1513852765 -18.8552693251
7.8732361304 -18.6652003678 0.0000000000 0.1895380064 0.5867559784 -5208.1945211007 7.1487917608 -18.8593146518
7.8629409742 -18.6425470157 0.0000000000 0.1832872281 0.5595074214 -5058.7602890551 7.1462613699 -18.8636133967
7.8517027633 -18.6204099672 0.0000000000 0.1779515690 0.5329409634 -4909.9365420546 7.1437902656 -18.8681192638
7.8395279790 -18.5987796147 0.0000000000 0.1734586783 0.5070139507 -4761.6351348500 7.1413726676 -18.8727853832
7.8264224513 -18.5776463875 0.0000000000 0.1697511893 0.4816861304 -4613.7343217330 7.1390007595 -18.8775654059
7.8123912245 -18.5570018950 0.0000000000 0.1667839132 0.4569219368 -4466.1031738209 7.1366645736 -18.8824146995
7.7974383984 -18.5368401370 0.0000000000 0.1645208088 0.4326919493 -4318.6223873891 7.1343518533 -18.8872916084
7.7815669633 -18.5171587407 0.0000000000 0.1629319211 0.4089734701 -4171.2006312266 7.1320479106 -18.8921587409
7.7647786834 -18.4979601965 0.0000000000 0.1619904979 0.3857502680 -4023.7858926308 7.1297355340 -18.8969842540
7.7470741167 -18.4792530789 0.0000000000 0.1616704509 0.3630116744 -3876.3718267562 7.1273950360 -18.9017431225
7.7284528382 -18.4610532656 0.0000000000 0.1619441758 0.3407513975 -3728.9997232836 7.1250045034 -18.9064184048
7.7089137423 -18.4433852208 0.0000000000 0.1627804520 0.3189663777 -3581.7569577813 7.1225401306 -18.9110025723
7.6884548152 -18.4262835316 0.0000000000 0.1641417489 0.2976553417 -3434.7717399962 7.1199760229 -18.9154990902
7.6670702862 -18.4097946845 0.0000000000 0.1659792768 0.2768159312 -3288.1949698197 7.1172813824 -18.9199242379
7.6204083543 -18.3761046146 0.0000000000 0.1726148101 0.2349084828 -2979.8968765183 7.1124471757 -18.9278975477
7.5950501872 -18.3591328257 0.0000000000 0.1772915220 0.2141814342 -2820.2060597945 7.1103257588 -18.9314458769
7.5687505279 -18.3430658850 0.0000000000 0.1823190246 0.1940357368 -2662.9071749563 7.1080909935 -18.9349212671
7.5415869585 -18.3279247538 0.0000000000 0.1877100130 0.1742912595 -2508.0020371332 7.1057793470 -18.9383112918
7.5136356927 -18.3137369126 0.0000000000 0.1930044170 0.1562557332 -2355.3744294335 7.1034245742 -18.9416117714
7.4849738309 -18.3005318323 0.0000000000 0.1970525224 0.1431877176 -2205.1541700834 7.1010600441 -18.9448222982
7.4556807765 -18.2883396625 0.0000000000 0.2001554830 0.1342117613 -2058.0076540122 7.0987202318 -18.9479449759
7.4258386632 -18.2771905198 0.0000000000 0.2079915289 0.1151126401 -1914.4812704719 7.0964412217 -18.9509837562
7.3955321014 -18.2671137624 0.0000000000 0.2300977503 0.0645041772 -1774.2898658396 7.0942605330 -18.9539437574
7.3648474482 -18.2581372257 0.0000000000 0.2691185597 -0.0203820703 -1637.1927935200 7.0922164704 -18.9568305417
7.3338717939 -18.2502865337 0.0000000000 0.3130659443 -0.1108122002 -1503.8918111018 7.0903471921 -18.9596494650
7.3026918385 -18.2435845500 0.0000000000 0.3432259423 -0.1694431964 -1374.9405446554 7.0886896705 -18.9624051619
7.2713927981 -18.2380509673 0.0000000000 0.3487985242 -0.1805356201 -1249.7911291006 7.0872786828 -18.9651011668
7.2400574342 -18.2337020157 0.0000000000 0.3327487223 -0.1549794119 -1127.5190961378 7.0861459277 -18.9677396498
7.2087652605 -18.2305502708 0.0000000000 0.3070734335 -0.1155900591 -1007.4177766958 7.0853193179 -18.9703212484
7.1775919400 -18.2286045580 0.0000000000 0.2830722410 -0.0800383690 -889.0270513110 7.0848224667 -18.9728449928
7.1466088647 -18.2278699526 0.0000000000 0.2647111758 -0.0532298121 -772.2815305080 7.0846743557 -18.9753083223
7.1158828859 -18.2283478714 0.0000000000 0.2506033209 -0.0325427411 -657.3481568465 7.0848891553 -18.9777071902
7.0854761635 -18.2300362448 0.0000000000 0.2389561731 -0.0153052485 -544.2823397386 7.0854761637 -18.9800362448
7.0554460980 -18.2329297410 0.0000000000 0.2289759289 -0.0003722420 -433.0108456439 7.0864398289 -18.9822890598
7.0258453183 -18.2370200152 0.0000000000 0.2202489388 0.0128621040 -323.4290881480 7.0877798276 -18.9844583849
6.9967217076 -18.2422959499 0.0000000000 0.2124690292 0.0248298654 -215.4165306576 7.0894911812 -18.9865363847
6.9681184560 -18.2487438693 0.0000000000 0.2054142077 0.0358330953 -108.8335000457 7.0915643988 -18.9885148468
6.9400741367 -18.2563477179 0.0000000000 0.1989188797 0.0460903957 -3.5244333225 7.0939856435 -18.9903853518
6.9126228058 -18.2650892142 0.0000000000 0.1928553937 0.0557660011 100.6790794588 7.0967369213 -18.9921394136
6.8857941259 -18.2749479968 0.0000000000 0.1871234708 0.0649868057 203.9556719825 7.0997962943 -18.9937686086
6.8596135185 -18.2859017879 0.0000000000 0.1816430748 0.0738537625 306.4918754283 7.1031381206 -18.9952647192
6.8341023460 -18.2979265949 0.0000000000 0.1763492201 0.0824506939 408.4799107409 7.1067333241 -18.9966199108
6.8092781298 -18.3109969631 0.0000000000 0.1711877388 0.0908519429 510.1152479306 7.1105496984 -18.9978269580
6.7851548101 -18.3250862821 0.0000000000 0.1661125265 0.0991258353 611.5941518410 7.1145522519 -18.9988795185
6.7617430566 -18.3401671327 0.0000000000 0.1610854816 0.1073300089 713.1128430160 7.1187036015 -18.9997724460
6.7390506406 -18.3562116530 0.0000000000 0.1560775069 0.1155056147 814.8701606360 7.1229644276 -19.0005021186
6.7170828793 -18.3731918964 0.0000000000 0.1510638616 0.1236928462 917.0716537368 7.1272939980 -19.0010667550
6.6958431616 -18.3910801504 0.0000000000 0.1460081940 0.1319816253 1019.9256677662 7.1316507733 -19.0014666882
6.6753335597 -18.4098491929 0.0000000000 0.1408444415 0.1405594812 1123.6206451150 7.1359930944 -19.0017045748
6.6555555262 -18.4294724776 0.0000000000 0.1354868375 0.1496597616 1228.2904999343 7.1402799548 -19.0017855286
6.6365106770 -18.4499242769 0.0000000000 0.1298964263 0.1593411522 1334.0094692582 7.1444718559 -19.0017172097
6.6006329674 -18.4932086117 0.0000000000 0.1185878086 0.1784855206 1549.1331113614 7.1524259005 -19.0011697903
6.5838116788 -18.5159921376 0.0000000000 0.1132881059 0.1867303819 1659.3727188364 7.1561247301 -19.0007165658
6.5677481251 -18.5395050002 0.0000000000 0.1078279260 0.1953305269 1772.2726118380 7.1596035073 -19.0001645345
6.5524566762 -18.5637218897 0.0000000000 0.1006439469 0.2085652106 1888.0968103336 7.1628432143 -18.9995295011
6.5379559987 -18.5886169144 0.0000000000 0.0892585396 0.2325921609 2006.0391389095 7.1658308575 -18.9988280328
6.5242691130 -18.6141631257 0.0000000000 0.0718519245 0.2710515952 2124.1746347714 7.1685595789 -18.9980769123
6.5114231824 -18.6403321501 0.0000000000 0.0500981817 0.3184319723 2240.6988706380 7.1710284959 -18.9972926947
6.4994490166 -18.6670938975 0.0000000000 0.0317213613 0.3556073190 2355.9166333586 7.1732422532 -18.9964913389
6.4883803295 -18.6944163466 0.0000000000 0.0303517622 0.3529201762 2472.8583382914 7.1752103246 -18.9956879148
6.4782528166 -18.7222654109 0.0000000000 0.0612816358 0.2821813191 2595.2955651612 7.1769461328 -18.9948963886
6.4691031401 -18.7506048826 0.0000000000 0.1343304273 0.1320854287 2724.9989779406 7.1784660714 -18.9941294842
6.4609679102 -18.7793964419 0.0000000000 0.2473221885 -0.0822235674 2860.5585107658 7.1797885221 -18.9933986098
6.4538827430 -18.8085997189 0.0000000000 0.3841081405 -0.3220365978 2997.7904259519 7.1809329425 -18.9927138340
6.4478814532 -18.8381723893 0.0000000000 0.5194138284 -0.5401213522 3131.2731437009 7.1819190873 -18.9920838957
6.4429954169 -18.8680702880 0.0000000000 0.6293050487 -0.7006432515 3257.2952982161 7.1827663945 -18.9915162304
6.4392531114 -18.8982475290 0.0000000000 0.7017809739 -0.7929387238 3376.7878788340 7.1834935462 -18.9910170022
6.4366798212 -18.9286566247 0.0000000000 0.7405100667 -0.8309432735 3494.8447796751 7.1841181909 -18.9905911335