 TITLE = "Tecplot data"
 VARIABLES = "X", "Y", "Z" "U", "V", "p", "dispX", "dispY"
 ZONE SOLUTIONTIME=129.900000, NODES=26114 , ELEMENTS=25916, DATAPACKING=POINT, ZONETYPE=FEQUADRILATERAL
1.7575711789 -5.7384676643 0.0000000000 0.0000000000 0.0000000000 -634.1600054746 1.4040177883 -6.0920210550
1.7575711792 -6.4455744453 0.0000000000 0.0000000000 0.0000000000 -5676.2517034238 1.4040177883 -6.0920210550
1.0504643976 -5.7384676645 0.0000000000 0.0000000000 0.0000000000 1138.2615046325 1.4040177883 -6.0920210550
1.0504643979 -6.4455744458 0.0000000000 0.0000000000 0.0000000000 1857.4556891756 1.4040177883 -6.0920210550
1.9117032052 -5.5380796969 0.0000000000 0.2722396570 -0.2884395461 -520.6510678652 1.3813731194 -6.0684097829
1.9540037260 -6.5929398434 0.0000000000 1.3403878114 0.6418309831 -2739.5041071792 1.4236736397 -6.0626097579
0.8621524500 -5.5621577408 0.0000000000 0.1516805251 0.2593256021 1146.4413970294 1.3924825360 -6.0924878265
0.8779136454 -6.6236346208 0.0000000000 1.7009721902 -1.2002481107 1477.5533095360 1.4082437310 -6.0933045346
2.3167368068 -4.8539280374 0.0000000000 0.4612693260 -0.3758005437 -229.7109844489 1.2560766351 -5.9145882093
2.5782689096 -6.9546358896 0.0000000000 1.2552427095 -0.0114948871 -979.4738891884 1.5176087370 -5.8939757186
0.2754679732 -5.0234070312 0.0000000000 0.5637391992 -0.4725581483 932.1694167296 1.3361281453 -6.0840672026
0.3783800429 -7.1507407308 0.0000000000 1.3591863096 -0.6034948845 888.4365200960 1.4390402141 -6.0900805585
4.8564378103 -1.6947225491 0.0000000000 0.4812071074 -0.2688481988 -44.2698491438 0.6564378103 -4.9947225491
6.1697185730 -8.2483976829 0.0000000000 1.6412654588 -0.1394975993 -269.2203468762 1.9697185730 -4.9483976829
20.0000000000 4.7000000000 0.0000000000 0.9579997212 0.0776023254 0.9930506185 0.0000000000 0.0000000000
20.0000000000 -4.7000000000 0.0000000000 1.1945749023 0.4778394875 -2.9995452461 0.0000000000 0.0000000000
-10.0000000000 15.0000000000 0.0000000000 1.0000000000 0.0000000000 320.6019254205 0.0000000000 0.0000000000
20.0000000000 15.0000000000 0.0000000000 1.2220434855 0.0000000000 -0.0845283703 0.0000000000 0.0000000000
20.0000000000 -15.0000000000 0.0000000000 1.1961346069 0.0000000000 -0.1346751212 0.0000000000 0.0000000000
-10.0000000000 -15.0000000000 0.0000000000 1.0000000000 0.0000000000 431.4469953586 0.0000000000 0.0000000000
1.7705437245 -6.4321074236 0.0000000000 0.0000000000 0.0000000000 -5650.4387436874 1.4040177883 -6.0920210550
1.7830036501 -6.4181647604 0.0000000000 0.0000000000 0.0000000000 -5569.7425468465 1.4040177883 -6.0920210550
1.7949335298 -6.4037659556 0.0000000000 0.0000000000 0.0000000000 -5499.7997814472 1.4040177883 -6.0920210550
1.8063166784 -6.3889311475 0.0000000000 0.0000000000 0.0000000000 -5403.8632463334 1.4040177883 -6.0920210550
1.8171371757 -6.3736810837 0.0000000000 0.0000000000 0.0000000000 -5301.7167485768 1.4040177883 -6.0920210550
1.8273798881 -6.3580370930 0.0000000000 0.0000000000 0.0000000000 -5184.3118243141 1.4040177883 -6.0920210550
1.8370304904 -6.3420210547 0.0000000000 0.0000000000 0.0000000000 -5057.7927579076 1.4040177883 -6.0920210550
1.8460754852 -6.3256553688 0.0000000000 0.0000000000 0.0000000000 -4920.2686908755 1.4040177883 -6.0920210550
1.8545022224 -6.3089629243 0.0000000000 0.0000000000 0.0000000000 -4774.2921951320 1.4040177883 -6.0920210550
1.8622989164 -6.2919670669 0.0000000000 0.0000000000 0.0000000000 -4620.0310421743 1.4040177883 -6.0920210550
1.8694546627 -6.2746915669 0.0000000000 0.0000000000 0.0000000000 -4459.0176665313 1.4040177883 -6.0920210550
1.8759594536 -6.2571605857 0.0000000000 0.0000000000 0.0000000000 -4292.0514819568 1.4040177883 -6.0920210550
1.8818041913 -6.2393986419 0.0000000000 0.0000000000 0.0000000000 -4120.3609656336 1.4040177883 -6.0920210550
1.8869807015 -6.2214305773 0.0000000000 0.0000000000 0.0000000000 -3944.9376497738 1.4040177883 -6.0920210550
1.8914817445 -6.2032815217 0.0000000000 0.0000000000 0.0000000000 -3766.9037283866 1.4040177883 -6.0920210550
1.8953010250 -6.1849768583 0.0000000000 0.0000000000 0.0000000000 -3587.2926585395 1.4040177883 -6.0920210550
1.8984332015 -6.1665421878 0.0000000000 0.0000000000 0.0000000000 -3407.1662445082 1.4040177883 -6.0920210550
1.9008738933 -6.1480032928 0.0000000000 0.0000000000 0.0000000000 -3227.5383980856 1.4040177883 -6.0920210550
1.9026196869 -6.1293861016 0.0000000000 0.0000000000 0.0000000000 -3049.4113203518 1.4040177883 -6.0920210550
1.9036681407 -6.1107166519 0.0000000000 0.0000000000 0.0000000000 -2873.7464169175 1.4040177883 -6.0920210550
1.9040177883 -6.0920210548 0.0000000000 0.0000000000 0.0000000000 -2701.4736132105 1.4040177883 -6.0920210550
1.9036681407 -6.0733254576 0.0000000000 0.0000000000 0.0000000000 -2533.4778257243 1.4040177883 -6.0920210550
1.9026196869 -6.0546560080 0.0000000000 0.0000000000 0.0000000000 -2370.5983112198 1.4040177883 -6.0920210550
1.9008738932 -6.0360388167 0.0000000000 0.0000000000 0.0000000000 -2213.6189140636 1.4040177883 -6.0920210550
1.8984332014 -6.0174999217 0.0000000000 0.0000000000 0.0000000000 -2063.2613444588 1.4040177883 -6.0920210550
1.8953010249 -5.9990652512 0.0000000000 0.0000000000 0.0000000000 -1920.1729942013 1.4040177883 -6.0920210550
1.8914817444 -5.9807605878 0.0000000000 0.0000000000 0.0000000000 -1784.9130318493 1.4040177883 -6.0920210550
1.8869807014 -5.9626115323 0.0000000000 0.0000000000 0.0000000000 -1657.9338209536 1.4040177883 -6.0920210550
1.8818041912 -5.9446434676 0.0000000000 0.0000000000 0.0000000000 -1539.5586224419 1.4040177883 -6.0920210550
1.8759594534 -5.9268815239 0.0000000000 0.0000000000 0.0000000000 -1429.9579842494 1.4040177883 -6.0920210550
1.8694546626 -5.9093505427 0.0000000000 0.0000000000 0.0000000000 -1329.1239417599 1.4040177883 -6.0920210550
1.8622989162 -5.8920750427 0.0000000000 0.0000000000 0.0000000000 -1236.8543369850 1.4040177883 -6.0920210550
1.8545022222 -5.8750791853 0.0000000000 0.0000000000 0.0000000000 -1152.7391147397 1.4040177883 -6.0920210550
1.8460754850 -5.8583867407 0.0000000000 0.0000000000 0.0000000000 -1076.1752016328 1.4040177883 -6.0920210550
1.8370304902 -5.8420210549 0.0000000000 0.0000000000 0.0000000000 -1006.3905650569 1.4040177883 -6.0920210550
1.8273798879 -5.8260050166 0.0000000000 0.0000000000 0.0000000000 -942.4851311082 1.4040177883 -6.0920210550
1.8171371754 -5.8103610259 0.0000000000 0.0000000000 0.0000000000 -883.5534315172 1.4040177883 -6.0920210550
1.8063166782 -5.7951109621 0.0000000000 0.0000000000 0.0000000000 -828.5813696142 1.4040177883 -6.0920210550
1.7949335295 -5.7802761540 0.0000000000 0.0000000000 0.0000000000 -776.9642404356 1.4040177883 -6.0920210550
1.7830036499 -5.7658773493 0.0000000000 0.0000000000 0.0000000000 -727.5230403520 1.4040177883 -6.0920210550
1.7705437242 -5.7519346860 0.0000000000 0.0000000000 0.0000000000 -680.6334926101 1.4040177883 -6.0920210550
1.7426585741 -5.7241590996 0.0000000000 0.0000000000 0.0000000000 -585.7620238304 1.4040177883 -6.0920210550
1.7271674072 -5.7104790208 0.0000000000 0.0000000000 0.0000000000 -537.3615767111 1.4040177883 -6.0920210550
1.7111241446 -5.6974508002 0.0000000000 0.0000000000 0.0000000000 -490.6899564845 1.4040177883 -6.0920210550
1.6945561960 -5.6850966963 0.0000000000 0.0000000000 0.0000000000 -444.3197908478 1.4040177883 -6.0920210550
1.6774918673 -5.6734378158 0.0000000000 0.0000000000 0.0000000000 -398.8961149809 1.4040177883 -6.0920210550
1.6599603128 -5.6624940778 0.0000000000 0.0000000000 0.0000000000 -353.7809182282 1.4040177883 -6.0920210550
1.6419914848 -5.6522841793 0.0000000000 0.0000000000 0.0000000000 -309.1827746724 1.4040177883 -6.0920210550
1.6236160827 -5.6428255640 0.0000000000 0.0000000000 0.0000000000 -264.8056369927 1.4040177883 -6.0920210550
1.6048655006 -5.6341343916 0.0000000000 0.0000000000 0.0000000000 -220.6925975036 1.4040177883 -6.0920210550
1.5857717735 -5.6262255109 0.0000000000 0.0000000000 0.0000000000 -176.6952608512 1.4040177883 -6.0920210550
1.5663675228 -5.6191124341 0.0000000000 0.0000000000 0.0000000000 -132.7993537657 1.4040177883 -6.0920210550
1.5466859004 -5.6128073137 0.0000000000 0.0000000000 0.0000000000 -88.9209685806 1.4040177883 -6.0920210550
1.5267605318 -5.6073209220 0.0000000000 0.0000000000 0.0000000000 -45.0292254617 1.4040177883 -6.0920210550
1.5066254593 -5.6026626323 0.0000000000 0.0000000000 0.0000000000 -1.0697025711 1.4040177883 -6.0920210550
1.4863150834 -5.5988404033 0.0000000000 0.0000000000 0.0000000000 42.9905786780 1.4040177883 -6.0920210550
1.4658641039 -5.5958607651 0.0000000000 0.0000000000 0.0000000000 87.1913224577 1.4040177883 -6.0920210550
1.4453074610 -5.5937288085 0.0000000000 0.0000000000 0.0000000000 131.5630077287 1.4040177883 -6.0920210550
1.4246802753 -5.5924481758 0.0000000000 0.0000000000 0.0000000000 176.1370477624 1.4040177883 -6.0920210550
1.4040177882 -5.5920210550 0.0000000000 0.0000000000 0.0000000000 220.9403798032 1.4040177883 -6.0920210550
1.3833553011 -5.5924481758 0.0000000000 0.0000000000 0.0000000000 265.9990570732 1.4040177883 -6.0920210550
1.3627281155 -5.5937288085 0.0000000000 0.0000000000 0.0000000000 311.3365061653 1.4040177883 -6.0920210550
1.3421714726 -5.5958607651 0.0000000000 0.0000000000 0.0000000000 356.9747529754 1.4040177883 -6.0920210550
1.3217204931 -5.5988404033 0.0000000000 0.0000000000 0.0000000000 402.9338702822 1.4040177883 -6.0920210550
1.3014101171 -5.6026626323 0.0000000000 0.0000000000 0.0000000000 449.2323429875 1.4040177883 -6.0920210550
1.2812750446 -5.6073209220 0.0000000000 0.0000000000 0.0000000000 495.8868474285 1.4040177883 -6.0920210550
1.2613496761 -5.6128073138 0.0000000000 0.0000000000 0.0000000000 542.9122808513 1.4040177883 -6.0920210550
1.2416680536 -5.6191124342 0.0000000000 0.0000000000 0.0000000000 590.3215882630 1.4040177883 -6.0920210550
1.2222638029 -5.6262255110 0.0000000000 0.0000000000 0.0000000000 638.1256323149 1.4040177883 -6.0920210550
1.2031700759 -5.6341343917 0.0000000000 0.0000000000 0.0000000000 686.3329772174 1.4040177883 -6.0920210550
1.1844194938 -5.6428255641 0.0000000000 0.0000000000 0.0000000000 734.9496544721 1.4040177883 -6.0920210550
1.1660440917 -5.6522841794 0.0000000000 0.0000000000 0.0000000000 783.9788768716 1.4040177883 -6.0920210550
1.1480752637 -5.6624940779 0.0000000000 0.0000000000 0.0000000000 833.4207217347 1.4040177883 -6.0920210550
1.1305437091 -5.6734378159 0.0000000000 0.0000000000 0.0000000000 883.2717841526 1.4040177883 -6.0920210550
1.1134793805 -5.6850966964 0.0000000000 0.0000000000 0.0000000000 933.5248236786 1.4040177883 -6.0920210550
1.0969114319 -5.6974508004 0.0000000000 0.0000000000 0.0000000000 984.1684353105 1.4040177883 -6.0920210550
1.0808681693 -5.7104790210 0.0000000000 0.0000000000 0.0000000000 1035.1867895793 1.4040177883 -6.0920210550
1.0653770024 -5.7241590997 0.0000000000 0.0000000000 0.0000000000 1086.5594821777 1.4040177883 -6.0920210550
1.0361558329 -5.7533802693 0.0000000000 0.0000000000 0.0000000000 1190.2632938773 1.4040177883 -6.0920210550
1.0224757541 -5.7688714362 0.0000000000 0.0000000000 0.0000000000 1242.5307685547 1.4040177883 -6.0920210550
1.0094475335 -5.7849146988 0.0000000000 0.0000000000 0.0000000000 1295.0252452276 1.4040177883 -6.0920210550
0.9970934296 -5.8014826474 0.0000000000 0.0000000000 0.0000000000 1347.7031805556 1.4040177883 -6.0920210550
0.9854345491 -5.8185469761 0.0000000000 0.0000000000 0.0000000000 1400.5158224751 1.4040177883 -6.0920210550
0.9744908111 -5.8360785306 0.0000000000 0.0000000000 0.0000000000 1453.4090274217 1.4040177883 -6.0920210550
0.9642809126 -5.8540473586 0.0000000000 0.0000000000 0.0000000000 1506.3236761093 1.4040177883 -6.0920210550
0.9548222973 -5.8724227607 0.0000000000 0.0000000000 0.0000000000 1559.1972736541 1.4040177883 -6.0920210550
0.9461311249 -5.8911733428 0.0000000000 0.0000000000 0.0000000000 1611.9674677255 1.4040177883 -6.0920210550
0.9382222442 -5.9102670699 0.0000000000 0.0000000000 0.0000000000 1664.5784994132 1.4040177883 -6.0920210550
0.9311091674 -5.9296713205 0.0000000000 0.0000000000 0.0000000000 1716.9921184808 1.4040177883 -6.0920210550
0.9248040470 -5.9493529430 0.0000000000 0.0000000000 0.0000000000 1769.2052558162 1.4040177883 -6.0920210550
0.9193176553 -5.9692783116 0.0000000000 0.0000000000 0.0000000000 1821.2769814789 1.4040177883 -6.0920210550
0.9146593656 -5.9894133841 0.0000000000 0.0000000000 0.0000000000 1873.3648686377 1.4040177883 -6.0920210550
0.9108371366 -6.0097237600 0.0000000000 0.0000000000 0.0000000000 1925.7631025401 1.4040177883 -6.0920210550
0.9078574984 -6.0301747395 0.0000000000 0.0000000000 0.0000000000 1978.9213490182 1.4040177883 -6.0920210550
0.9057255418 -6.0507313824 0.0000000000 0.0000000000 0.0000000000 2033.4115741502 1.4040177883 -6.0920210550
0.9044449091 -6.0713585681 0.0000000000 0.0000000000 0.0000000000 2089.8136845111 1.4040177883 -6.0920210550
0.9040177883 -6.0920210552 0.0000000000 0.0000000000 0.0000000000 2148.5206961263 1.4040177883 -6.0920210550
0.9044449091 -6.1126835423 0.0000000000 0.0000000000 0.0000000000 2209.5113309791 1.4040177883 -6.0920210550
0.9057255418 -6.1333107279 0.0000000000 0.0000000000 0.0000000000 2272.1713586421 1.4040177883 -6.0920210550
0.9078574985 -6.1538673708 0.0000000000 0.0000000000 0.0000000000 2335.2346603295 1.4040177883 -6.0920210550
0.9108371367 -6.1743183503 0.0000000000 0.0000000000 0.0000000000 2396.8628560375 1.4040177883 -6.0920210550
0.9146593657 -6.1946287263 0.0000000000 0.0000000000 0.0000000000 2454.8241386029 1.4040177883 -6.0920210550
0.9193176554 -6.2147637988 0.0000000000 0.0000000000 0.0000000000 2506.7045621505 1.4040177883 -6.0920210550
0.9248040472 -6.2346891673 0.0000000000 0.0000000000 0.0000000000 2550.0959873510 1.4040177883 -6.0920210550
0.9311091675 -6.2543707898 0.0000000000 0.0000000000 0.0000000000 2582.7346083879 1.4040177883 -6.0920210550
0.9382222444 -6.2737750405 0.0000000000 0.0000000000 0.0000000000 2602.5894644368 1.4040177883 -6.0920210550
0.9461311251 -6.2928687675 0.0000000000 0.0000000000 0.0000000000 2607.9119356856 1.4040177883 -6.0920210550
0.9548222975 -6.3116193496 0.0000000000 0.0000000000 0.0000000000 2597.2579143909 1.4040177883 -6.0920210550
0.9642809128 -6.3299947517 0.0000000000 0.0000000000 0.0000000000 2569.4910790429 1.4040177883 -6.0920210550
0.9744908113 -6.3479635797 0.0000000000 0.0000000000 0.0000000000 2523.7728243578 1.4040177883 -6.0920210550
0.9854345493 -6.3654951342 0.0000000000 0.0000000000 0.0000000000 2459.5431532744 1.4040177883 -6.0920210550
0.9970934298 -6.3825594629 0.0000000000 0.0000000000 0.0000000000 2376.4961744905 1.4040177883 -6.0920210550
1.0094475338 -6.3991274115 0.0000000000 0.0000000000 0.0000000000 2274.5536387863 1.4040177883 -6.0920210550
1.0224757544 -6.4151706741 0.0000000000 0.0000000000 0.0000000000 2153.8388490702 1.4040177883 -6.0920210550
1.0361558332 -6.4306618410 0.0000000000 0.0000000000 0.0000000000 2014.6532285193 1.4040177883 -6.0920210550
1.0653770027 -6.4598830105 0.0000000000 0.0000000000 0.0000000000 1682.8464540517 1.4040177883 -6.0920210550
1.0808681696 -6.4735630892 0.0000000000 0.0000000000 0.0000000000 1491.5530032790 1.4040177883 -6.0920210550
1.0969114322 -6.4865913098 0.0000000000 0.0000000000 0.0000000000 1284.4200023295 1.4040177883 -6.0920210550
1.1134793808 -6.4989454138 0.0000000000 0.0000000000 0.0000000000 1062.3998982522 1.4040177883 -6.0920210550
1.1305437095 -6.5106042943 0.0000000000 0.0000000000 0.0000000000 826.5454462504 1.4040177883 -6.0920210550
1.1480752640 -6.5215480323 0.0000000000 0.0000000000 0.0000000000 578.0021223849 1.4040177883 -6.0920210550
1.1660440920 -6.5317579307 0.0000000000 0.0000000000 0.0000000000 318.0008928003 1.4040177883 -6.0920210550
1.1844194941 -6.5412165460 0.0000000000 0.0000000000 0.0000000000 47.8504740820 1.4040177883 -6.0920210550
1.2031700763 -6.5499077184 0.0000000000 0.0000000000 0.0000000000 -231.0704779176 1.4040177883 -6.0920210550
1.2222638033 -6.5578165991 0.0000000000 0.0000000000 0.0000000000 -517.3217237733 1.4040177883 -6.0920210550
1.2416680540 -6.5649296759 0.0000000000 0.0000000000 0.0000000000 -809.4097929621 1.4040177883 -6.0920210550
1.2613496765 -6.5712347963 0.0000000000 0.0000000000 0.0000000000 -1105.7966961141 1.4040177883 -6.0920210550
1.2812750450 -6.5767211880 0.0000000000 0.0000000000 0.0000000000 -1404.9090606340 1.4040177883 -6.0920210550
1.3014101175 -6.5813794777 0.0000000000 0.0000000000 0.0000000000 -1705.1467939909 1.4040177883 -6.0920210550
1.3217204935 -6.5852017067 0.0000000000 0.0000000000 0.0000000000 -2004.8917015740 1.4040177883 -6.0920210550
1.3421714730 -6.5881813449 0.0000000000 0.0000000000 0.0000000000 -2302.5181137943 1.4040177883 -6.0920210550
1.3627281159 -6.5903133015 0.0000000000 0.0000000000 0.0000000000 -2596.4064620280 1.4040177883 -6.0920210550
1.3833553015 -6.5915939342 0.0000000000 0.0000000000 0.0000000000 -2884.9581403207 1.4040177883 -6.0920210550
1.4040177886 -6.5920210550 0.0000000000 0.0000000000 0.0000000000 -3166.6089065381 1.4040177883 -6.0920210550
1.4246802758 -6.5915939342 0.0000000000 0.0000000000 0.0000000000 -3439.8392758966 1.4040177883 -6.0920210550
1.4453074614 -6.5903133015 0.0000000000 0.0000000000 0.0000000000 -3703.1831267748 1.4040177883 -6.0920210550
1.4658641043 -6.5881813448 0.0000000000 0.0000000000 0.0000000000 -3955.2359886502 1.4040177883 -6.0920210550
1.4863150838 -6.5852017066 0.0000000000 0.0000000000 0.0000000000 -4194.6666631459 1.4040177883 -6.0920210550
1.5066254597 -6.5813794776 0.0000000000 0.0000000000 0.0000000000 -4420.2277007022 1.4040177883 -6.0920210550
1.5267605322 -6.5767211879 0.0000000000 0.0000000000 0.0000000000 -4630.7714938111 1.4040177883 -6.0920210550
1.5466859008 -6.5712347961 0.0000000000 0.0000000000 0.0000000000 -4825.2536632070 1.4040177883 -6.0920210550
1.5663675232 -6.5649296757 0.0000000000 0.0000000000 0.0000000000 -5002.7480532357 1.4040177883 -6.0920210550
1.5857717739 -6.5578165989 0.0000000000 0.0000000000 0.0000000000 -5162.4438964451 1.4040177883 -6.0920210550
1.6048655010 -6.5499077182 0.0000000000 0.0000000000 0.0000000000 -5303.6310586999 1.4040177883 -6.0920210550
1.6236160830 -6.5412165458 0.0000000000 0.0000000000 0.0000000000 -5425.7961761601 1.4040177883 -6.0920210550
1.6419914851 -6.5317579304 0.0000000000 0.0000000000 0.0000000000 -5528.3145029572 1.4040177883 -6.0920210550
1.6599603132 -6.5215480320 0.0000000000 0.0000000000 0.0000000000 -5611.2709190374 1.4040177883 -6.0920210550
1.6774918677 -6.5106042939 0.0000000000 0.0000000000 0.0000000000 -5673.5676731998 1.4040177883 -6.0920210550
1.6945561963 -6.4989454134 0.0000000000 0.0000000000 0.0000000000 -5716.7958675075 1.4040177883 -6.0920210550
1.7111241449 -6.4865913095 0.0000000000 0.0000000000 0.0000000000 -5738.2903348654 1.4040177883 -6.0920210550
1.7271674075 -6.4735630888 0.0000000000 0.0000000000 0.0000000000 -5741.2961049803 1.4040177883 -6.0920210550
1.7426585744 -6.4598830101 0.0000000000 0.0000000000 0.0000000000 -5725.9403053901 1.4040177883 -6.0920210550
1.9723089602 -6.5706048497 0.0000000000 1.2824272053 0.6442445926 -2733.8367526718 1.4225200560 -6.0604752968
1.9898213708 -6.5475925285 0.0000000000 1.2246097989 0.6432174170 -2721.0394808000 1.4213425781 -6.0583769705
2.0065173427 -6.5239407797 0.0000000000 1.1671666279 0.6386887916 -2700.6601049432 1.4201437306 -6.0563234287
2.0223761760 -6.4996918243 0.0000000000 1.1104066024 0.6307670229 -2673.1332514360 1.4189278409 -6.0543266855
2.0373787658 -6.4748898607 0.0000000000 1.0546176422 0.6195573240 -2638.7448188031 1.4176996848 -6.0523998176
2.0515070774 -6.4495802362 0.0000000000 1.0000829450 0.6052101080 -2597.9087792332 1.4164639277 -6.0505561792
2.0647438855 -6.4238089617 0.0000000000 0.9470694673 0.5879081475 -2551.0943374838 1.4152248324 -6.0488089621
2.0770726546 -6.3976223646 0.0000000000 0.8958226314 0.5678672499 -2498.8366871032 1.4139861093 -6.0471708938
2.0884775240 -6.3710668155 0.0000000000 0.8465602579 0.5453314334 -2441.7218238081 1.4127508729 -6.0456540115
2.0989433727 -6.3441885028 0.0000000000 0.7994678134 0.5205677646 -2380.3741205363 1.4115216806 -6.0442694849
2.1084559398 -6.3170332360 0.0000000000 0.7546949337 0.4938600113 -2315.4408431533 1.4103006281 -6.0430274681
2.1170019677 -6.2896462686 0.0000000000 0.7123534590 0.4655018364 -2247.5763828969 1.4090894699 -6.0419369725
2.1245693444 -6.2620721358 0.0000000000 0.6725169900 0.4357898945 -2177.4268576685 1.4078897399 -6.0410057554
2.1311472243 -6.2343545055 0.0000000000 0.6352218699 0.4050172311 -2105.6160281273 1.4067028544 -6.0402402221
2.1367261243 -6.2065360431 0.0000000000 0.6004694033 0.3734672883 -2032.7331336454 1.4055301901 -6.0396453430
2.1412979924 -6.1786582907 0.0000000000 0.5682290700 0.3414087406 -1959.3230451412 1.4043731374 -6.0392245857
2.1448562520 -6.1507615602 0.0000000000 0.5384424630 0.3090912998 -1885.8789197267 1.4032331323 -6.0389798609
2.1473958249 -6.1228848418 0.0000000000 0.5110276761 0.2767425548 -1812.8373666565 1.4021116674 -6.0389114851
2.1489131338 -6.0950657265 0.0000000000 0.4858838836 0.2445658417 -1740.5759894339 1.4010102859 -6.0390181567
2.1494060865 -6.0673403444 0.0000000000 0.4628958818 0.2127390855 -1669.4130576169 1.3999305579 -6.0392969490
2.1488740401 -6.0397433172 0.0000000000 0.4419384077 0.1814145132 -1599.6089853250 1.3988740401 -6.0397433175
2.1473177488 -6.0123077273 0.0000000000 0.4228800930 0.1507191051 -1531.3692524516 1.3978422203 -6.0403511233
2.1447392978 -5.9850651037 0.0000000000 0.4055869632 0.1207556419 -1464.8483974560 1.3968364499 -6.0411126742
2.1411420257 -5.9580454275 0.0000000000 0.3899254331 0.0916042022 -1400.1547323827 1.3958578683 -6.0420187848
2.1365304441 -5.9312771596 0.0000000000 0.3757647893 0.0633239736 -1337.3554735452 1.3949073245 -6.0430588595
2.1309101577 -5.9047872968 0.0000000000 0.3629791738 0.0359552596 -1276.4820354384 1.3939853028 -6.0442210024
2.1242877908 -5.8786014601 0.0000000000 0.3514491032 0.0095215799 -1217.5352914578 1.3930918567 -6.0454921608
2.1166709230 -5.8527440224 0.0000000000 0.3410625645 -0.0159682173 -1160.4906554870 1.3922265533 -6.0468583065
2.1080680351 -5.8272382799 0.0000000000 0.3317157360 -0.0405178940 -1105.3028792927 1.3913884309 -6.0483046609
2.0984884622 -5.8021066696 0.0000000000 0.3233133787 -0.0641418572 -1051.9104912072 1.3905759646 -6.0498159663
2.0879423495 -5.7773710340 0.0000000000 0.3157689462 -0.0868633184 -1000.2398226804 1.3897870381 -6.0513768025
2.0764406065 -5.7530529262 0.0000000000 0.3090044568 -0.1087126115 -950.2085815076 1.3890189147 -6.0529719446
2.0639948540 -5.7291739478 0.0000000000 0.3029501644 -0.1297257368 -901.7289349495 1.3882682031 -6.0545867523
2.0506173622 -5.7057561070 0.0000000000 0.2975440711 -0.1499432271 -854.7100729657 1.3875308172 -6.0562075783
2.0363209863 -5.6828221841 0.0000000000 0.2927313343 -0.1694092862 -809.0602638249 1.3868019336 -6.0578221842
2.0211191132 -5.6603960945 0.0000000000 0.2884636086 -0.1881705808 -764.6885316737 1.3860759639 -6.0594201520
2.0050256490 -5.6385032432 0.0000000000 0.2846982768 -0.2062730561 -721.5062464718 1.3853465683 -6.0609932869
1.9880550657 -5.6171708754 0.0000000000 0.2813974300 -0.2237550690 -679.4289049558 1.3846067310 -6.0625360147
1.9702224710 -5.5964284429 0.0000000000 0.2785268144 -0.2406404230 -638.3778709474 1.3838488592 -6.0640457944
1.9515435083 -5.5763080465 0.0000000000 0.2760554332 -0.2569526312 -598.2808823572 1.3830647160 -6.0655236051
1.9320334403 -5.5568449540 0.0000000000 0.2739628556 -0.2727789872 -559.0650375477 1.3822445365 -6.0669745074
1.8887576623 -5.5178102324 0.0000000000 0.2711751816 -0.3062056019 -479.0160442761 1.3807964836 -6.0696031655
1.8649003446 -5.4984655825 0.0000000000 0.2706951533 -0.3249847192 -438.2794709252 1.3801759163 -6.0707786337
1.8401851190 -5.4800694981 0.0000000000 0.2706699351 -0.3435223904 -398.3122271945 1.3795255846 -6.0719248802
1.8146639940 -5.4626517714 0.0000000000 0.2703791924 -0.3567802848 -358.9959893716 1.3788563825 -6.0730383094
1.7883894525 -5.4462429897 0.0000000000 0.2683407802 -0.3563366843 -320.2229328090 1.3781783339 -6.0741178485
1.7614150819 -5.4308730961 0.0000000000 0.2628715431 -0.3349822069 -281.8429141563 1.3775012951 -6.0751635620
1.7337959499 -5.4165709488 0.0000000000 0.2533249678 -0.2929470389 -243.5676273687 1.3768354052 -6.0761762622
1.7055886800 -5.4033640710 0.0000000000 0.2409460198 -0.2395809442 -204.9442339724 1.3761912384 -6.0771573074
1.6768513207 -5.3912784028 0.0000000000 0.2282745134 -0.1877391254 -165.5302084953 1.3755797523 -6.0781083979
1.6476430718 -5.3803380447 0.0000000000 0.2174994512 -0.1459140095 -125.1626986397 1.3750120940 -6.0790313607
1.6180239243 -5.3705650276 0.0000000000 0.2093402823 -0.1152533440 -84.0142617372 1.3744993225 -6.0799279589
1.5880542677 -5.3619791288 0.0000000000 0.2033057328 -0.0925370345 -42.3766880543 1.3740520996 -6.0807997407
1.5577945060 -5.3545977307 0.0000000000 0.1986260273 -0.0743766121 -0.4437771992 1.3736803908 -6.0816479302
1.5273047108 -5.3484357173 0.0000000000 0.1948030254 -0.0588653113 41.7170736181 1.3733932043 -6.0824733513
1.4966443271 -5.3435054002 0.0000000000 0.1915995274 -0.0451332048 84.0897859896 1.3731983846 -6.0832763778
1.4658719371 -5.3398164756 0.0000000000 0.1888823162 -0.0326907823 126.6645688507 1.3731024638 -6.0840569105
1.4350450787 -5.3373760099 0.0000000000 0.1865532675 -0.0211934966 169.4348603544 1.3731105697 -6.0848143797
1.4042201100 -5.3361884567 0.0000000000 0.1845366555 -0.0103907193 212.4003861518 1.3732263794 -6.0855477755
1.3734521093 -5.3362557012 0.0000000000 0.1827728727 -0.0000950310 255.5666155429 1.3734521094 -6.0862557012
1.3427948003 -5.3375771252 0.0000000000 0.1812131386 0.0098397534 298.9438953850 1.3737885312 -6.0869364440
1.3123004935 -5.3401496850 0.0000000000 0.1798163623 0.0195316121 342.5469365976 1.3742350027 -6.0875880547
1.2820200384 -5.3439679910 0.0000000000 0.1785471155 0.0290789039 386.3943645740 1.3747895120 -6.0882084258
1.2520027838 -5.3490243842 0.0000000000 0.1773742064 0.0385664046 430.5083170931 1.3754487267 -6.0887953617
1.2222965445 -5.3553090049 0.0000000000 0.1762696515 0.0480696709 474.9140989717 1.3762080513 -6.0893466388
1.1929475743 -5.3628098563 0.0000000000 0.1752079518 0.0576588986 519.6397858171 1.3770616899 -6.0898600557
1.1640005478 -5.3715128677 0.0000000000 0.1741654089 0.0674025724 564.7156631961 1.3780027162 -6.0903334795
1.1354985503 -5.3814019631 0.0000000000 0.1731192806 0.0773665091 610.1741260290 1.3790231523 -6.0907648943
1.1074830776 -5.3924591418 0.0000000000 0.1720478437 0.0876112223 656.0507232379 1.3801140557 -6.0911524578
1.0799940484 -5.4046645746 0.0000000000 0.1709314006 0.0982171665 702.3837743399 1.3812656171 -6.0914945695
1.0530698290 -5.4179967142 0.0000000000 0.1697488862 0.1093337928 749.2074815562 1.3824672708 -6.0917899505
1.0267472745 -5.4324324184 0.0000000000 0.1684696745 0.1211160163 796.5422951167 1.3837078194 -6.0920377317
1.0010617885 -5.4479470762 0.0000000000 0.1670611265 0.1334587948 844.4047048237 1.3849755755 -6.0922375419
0.9760474044 -5.4645147317 0.0000000000 0.1655221872 0.1459302809 892.8563640985 1.3862585232 -6.0923895903
0.9517368896 -5.4821081942 0.0000000000 0.1638790573 0.1586272865 942.0559374639 1.3875445013 -6.0924947320
0.9281618743 -5.5006991303 0.0000000000 0.1620486561 0.1737024423 992.2064655142 1.3888214089 -6.0925545122
0.9053530035 -5.5202581345 0.0000000000 0.1596526992 0.1953867029 1043.3292292407 1.3900774320 -6.0925711855
0.8833401100 -5.5407547855 0.0000000000 0.1561601429 0.2260550291 1094.9995684124 1.3913012889 -6.0925477184
0.8418188805 -5.5844328815 0.0000000000 0.1480619735 0.2759522961 1197.1787836303 1.3936118137 -6.0923940600
0.8223678932 -5.6075482000 0.0000000000 0.1493165798 0.2484348885 1247.5287502189 1.3946809445 -6.0922726282
0.8038278842 -5.6314686382 0.0000000000 0.1606109973 0.1539235673 1298.1126414711 1.3956832664 -6.0921281725
0.7862273256 -5.6561580905 0.0000000000 0.1859275985 -0.0119765701 1349.0270767163 1.3966138637 -6.0919657019
0.7695947483 -5.6815792229 0.0000000000 0.2255075351 -0.2291857063 1399.5842650587 1.3974696071 -6.0917903413
0.7539587091 -5.7076933869 0.0000000000 0.2747809938 -0.4593238778 1448.4524510958 1.3982491750 -6.0916071735
0.7393476798 -5.7344605662 0.0000000000 0.3259993009 -0.6618604953 1494.1029441294 1.3989529933 -6.0914211107
0.7257898561 -5.7618393482 0.0000000000 0.3719739190 -0.8114671297 1535.6772657031 1.3995830926 -6.0912367896
0.7133128993 -5.7897869212 0.0000000000 0.4093544454 -0.9056142345 1573.5553136518 1.4001428944 -6.0910584894
0.7019436308 -5.8182590977 0.0000000000 0.4391085921 -0.9585896749 1609.0699022494 1.4006369469 -6.0908900753
0.6917077044 -5.8472103624 0.0000000000 0.4645190151 -0.9891029482 1643.6818486961 1.4010706357 -6.0907349640
0.6826292821 -5.8765939419 0.0000000000 0.4888188196 -1.0112242759 1678.2498330301 1.4014498940 -6.0905961098
0.6747307363 -5.9063618903 0.0000000000 0.5139899167 -1.0320888992 1712.8676101557 1.4017809358 -6.0904760054
0.6680323953 -5.9364651861 0.0000000000 0.5408025722 -1.0538705769 1747.1814608939 1.4020700294 -6.0903766925
0.6625523413 -5.9668538353 0.0000000000 0.5693779894 -1.0765084736 1780.7521714239 1.4023233189 -6.0902997778
0.6583062639 -5.9974769767 0.0000000000 0.5996625062 -1.0994378160 1813.2168586164 1.4025466987 -6.0902464499
0.6553073657 -6.0282829877 0.0000000000 0.6316388802 -1.1222287681 1844.2888064280 1.4027457354 -6.0902174965
0.6535663106 -6.0592195893 0.0000000000 0.6653587213 -1.1446424681 1873.7047824839 1.4029256294 -6.0902133197
0.6530912071 -6.0902339506 0.0000000000 0.7009117128 -1.1665283733 1901.1805846876 1.4030912071 -6.0902339503
0.6538876147 -6.1212727924 0.0000000000 0.7383935591 -1.1877431720 1926.3888310975 1.4032469335 -6.0902790614
0.6559585675 -6.1522824914 0.0000000000 0.7778878958 -1.2081181519 1948.9533367187 1.4033969372 -6.0903479820
0.6593046080 -6.1832091850 0.0000000000 0.8194581513 -1.2274545297 1968.4517104595 1.4035450428 -6.0904397112