 TITLE = "Tecplot data"
 VARIABLES = "X", "Y", "Z" "U", "V", "p", "dispX", "dispY"
 ZONE SOLUTIONTIME=169.900000, NODES=26114 , ELEMENTS=25916, DATAPACKING=POINT, ZONETYPE=FEQUADRILATERAL
4.8847323482 -13.0931753809 0.0000000000 0.0000000000 0.0000000000 -6130.2868482652 4.5311789577 -13.4467287716
4.8847323485 -13.8002821619 0.0000000000 0.0000000000 0.0000000000 -22963.6708105601 4.5311789577 -13.4467287716
4.1776255670 -13.0931753811 0.0000000000 0.0000000000 0.0000000000 5038.4733501514 4.5311789577 -13.4467287716
4.1776255673 -13.8002821623 0.0000000000 0.0000000000 0.0000000000 23795.2610332301 4.5311789577 -13.4467287716
5.0089490300 -12.8645261039 0.0000000000 0.3637692284 0.0421131284 -4554.4169270660 4.4786189442 -13.3948561898
5.0942339300 -13.9146573096 0.0000000000 1.9272850747 1.4289896576 -12579.4203891223 4.5639038437 -13.3843272241
3.9725455102 -12.9187479184 0.0000000000 0.1906689834 0.2858519370 5045.5327483561 4.5028755963 -13.4490780041
4.0058367960 -13.9769442558 0.0000000000 2.1131406286 -1.2979649191 15007.2684349952 4.5361668816 -13.4466141697
5.2473768782 -11.9995291205 0.0000000000 0.7971318671 -0.1639255526 -1378.3025862555 4.1867167065 -13.0601892924
5.7771318984 -14.0804394236 0.0000000000 1.5469700386 0.5713026395 -5225.9363205933 4.7164717258 -13.0197792526
3.3028090318 -12.3763707890 0.0000000000 0.8328002828 -0.4388442985 4216.4927956079 4.3634692039 -13.4370309605
3.5154003412 -14.4878719802 0.0000000000 1.7107644006 -0.5125074608 7852.6462368211 4.5760605124 -13.4272118079
7.0099497111 -7.7658535918 0.0000000000 0.8577727593 -0.1205787398 425.0952629377 2.8099497111 -11.0658535918
9.6737393741 -14.3291468871 0.0000000000 2.0018769610 -0.1188139660 -915.3381263655 5.4737393741 -11.0291468871
20.0000000000 4.7000000000 0.0000000000 -0.5521249719 1.0095371308 12.9828748404 0.0000000000 0.0000000000
20.0000000000 -4.7000000000 0.0000000000 1.2646589191 -0.5774063647 1.2322251789 0.0000000000 0.0000000000
-10.0000000000 15.0000000000 0.0000000000 1.0000000000 0.0000000000 1468.6975350125 0.0000000000 0.0000000000
20.0000000000 15.0000000000 0.0000000000 2.0695187106 0.0000000000 7.5955340452 0.0000000000 0.0000000000
20.0000000000 -15.0000000000 0.0000000000 2.3728421790 0.0000000000 -4.4017228525 0.0000000000 0.0000000000
-10.0000000000 -15.0000000000 0.0000000000 1.0000000000 0.0000000000 2756.5054136380 0.0000000000 0.0000000000
4.8977048938 -13.7868151402 0.0000000000 0.0000000000 0.0000000000 -23801.3033988696 4.5311789577 -13.4467287716
4.9101648195 -13.7728724769 0.0000000000 0.0000000000 0.0000000000 -24416.6408019784 4.5311789577 -13.4467287716
4.9220946991 -13.7584736722 0.0000000000 0.0000000000 0.0000000000 -25021.5160235982 4.5311789577 -13.4467287716
4.9334778478 -13.7436388641 0.0000000000 0.0000000000 0.0000000000 -25493.4887764746 4.5311789577 -13.4467287716
4.9442983450 -13.7283888003 0.0000000000 0.0000000000 0.0000000000 -25899.1000893385 4.5311789577 -13.4467287716
4.9545410575 -13.7127448096 0.0000000000 0.0000000000 0.0000000000 -26199.6636391103 4.5311789577 -13.4467287716
4.9641916597 -13.6967287713 0.0000000000 0.0000000000 0.0000000000 -26418.1594665372 4.5311789577 -13.4467287716
4.9732366546 -13.6803630854 0.0000000000 0.0000000000 0.0000000000 -26542.1761885035 4.5311789577 -13.4467287716
4.9816633918 -13.6636706409 0.0000000000 0.0000000000 0.0000000000 -26581.3554823603 4.5311789577 -13.4467287716
4.9894600857 -13.6466747835 0.0000000000 0.0000000000 0.0000000000 -26532.6681057280 4.5311789577 -13.4467287716
4.9966158321 -13.6293992835 0.0000000000 0.0000000000 0.0000000000 -26401.6263541272 4.5311789577 -13.4467287716
5.0031206229 -13.6118683023 0.0000000000 0.0000000000 0.0000000000 -26189.0812845973 4.5311789577 -13.4467287716
5.0089653606 -13.5941063585 0.0000000000 0.0000000000 0.0000000000 -25899.4572413028 4.5311789577 -13.4467287716
5.0141418709 -13.5761382939 0.0000000000 0.0000000000 0.0000000000 -25535.5000616545 4.5311789577 -13.4467287716
5.0186429138 -13.5579892383 0.0000000000 0.0000000000 0.0000000000 -25101.5914742633 4.5311789577 -13.4467287716
5.0224621943 -13.5396845749 0.0000000000 0.0000000000 0.0000000000 -24601.5722141646 4.5311789577 -13.4467287716
5.0255943708 -13.5212499044 0.0000000000 0.0000000000 0.0000000000 -24040.1122101714 4.5311789577 -13.4467287716
5.0280350626 -13.5027110094 0.0000000000 0.0000000000 0.0000000000 -23421.7667152463 4.5311789577 -13.4467287716
5.0297808563 -13.4840938181 0.0000000000 0.0000000000 0.0000000000 -22751.5504614692 4.5311789577 -13.4467287716
5.0308293101 -13.4654243685 0.0000000000 0.0000000000 0.0000000000 -22034.5051365639 4.5311789577 -13.4467287716
5.0311789577 -13.4467287714 0.0000000000 0.0000000000 0.0000000000 -21275.9380256587 4.5311789577 -13.4467287716
5.0308293101 -13.4280331742 0.0000000000 0.0000000000 0.0000000000 -20481.2112321461 4.5311789577 -13.4467287716
5.0297808563 -13.4093637246 0.0000000000 0.0000000000 0.0000000000 -19655.8399981732 4.5311789577 -13.4467287716
5.0280350626 -13.3907465333 0.0000000000 0.0000000000 0.0000000000 -18805.3904791351 4.5311789577 -13.4467287716
5.0255943708 -13.3722076383 0.0000000000 0.0000000000 0.0000000000 -17935.5330926375 4.5311789577 -13.4467287716
5.0224621943 -13.3537729678 0.0000000000 0.0000000000 0.0000000000 -17052.0184587704 4.5311789577 -13.4467287716
5.0186429137 -13.3354683044 0.0000000000 0.0000000000 0.0000000000 -16160.7521937844 4.5311789577 -13.4467287716
5.0141418708 -13.3173192489 0.0000000000 0.0000000000 0.0000000000 -15267.8676215737 4.5311789577 -13.4467287716
5.0089653605 -13.2993511842 0.0000000000 0.0000000000 0.0000000000 -14379.8780699577 4.5311789577 -13.4467287716
5.0031206228 -13.2815892405 0.0000000000 0.0000000000 0.0000000000 -13503.8633047615 4.5311789577 -13.4467287716
4.9966158319 -13.2640582593 0.0000000000 0.0000000000 0.0000000000 -12647.6497655092 4.5311789577 -13.4467287716
4.9894600856 -13.2467827593 0.0000000000 0.0000000000 0.0000000000 -11819.9098146299 4.5311789577 -13.4467287716
4.9816633916 -13.2297869019 0.0000000000 0.0000000000 0.0000000000 -11029.8669294416 4.5311789577 -13.4467287716
4.9732366544 -13.2130944573 0.0000000000 0.0000000000 0.0000000000 -10286.5520624010 4.5311789577 -13.4467287716
4.9641916595 -13.1967287715 0.0000000000 0.0000000000 0.0000000000 -9597.1968430754 4.5311789577 -13.4467287716
4.9545410572 -13.1807127332 0.0000000000 0.0000000000 0.0000000000 -8965.6322041976 4.5311789577 -13.4467287716
4.9442983448 -13.1650687425 0.0000000000 0.0000000000 0.0000000000 -8390.8597985321 4.5311789577 -13.4467287716
4.9334778475 -13.1498186787 0.0000000000 0.0000000000 0.0000000000 -7867.5447027399 4.5311789577 -13.4467287716
4.9220946989 -13.1349838706 0.0000000000 0.0000000000 0.0000000000 -7387.6392681893 4.5311789577 -13.4467287716
4.9101648192 -13.1205850659 0.0000000000 0.0000000000 0.0000000000 -6942.4675623673 4.5311789577 -13.4467287716
4.8977048935 -13.1066424026 0.0000000000 0.0000000000 0.0000000000 -6525.7806815889 4.5311789577 -13.4467287716
4.8698197434 -13.0788668162 0.0000000000 0.0000000000 0.0000000000 -5716.7947392261 4.5311789577 -13.4467287716
4.8543285766 -13.0651867374 0.0000000000 0.0000000000 0.0000000000 -5322.3755457487 4.5311789577 -13.4467287716
4.8382853140 -13.0521585168 0.0000000000 0.0000000000 0.0000000000 -4945.2292899872 4.5311789577 -13.4467287716
4.8217173653 -13.0398044129 0.0000000000 0.0000000000 0.0000000000 -4583.0750724879 4.5311789577 -13.4467287716
4.8046530367 -13.0281455324 0.0000000000 0.0000000000 0.0000000000 -4233.9625697576 4.5311789577 -13.4467287716
4.7871214822 -13.0172017943 0.0000000000 0.0000000000 0.0000000000 -3896.5284249637 4.5311789577 -13.4467287716
4.7691526541 -13.0069918959 0.0000000000 0.0000000000 0.0000000000 -3569.1955727471 4.5311789577 -13.4467287716
4.7507772520 -12.9975332806 0.0000000000 0.0000000000 0.0000000000 -3250.9175397768 4.5311789577 -13.4467287716
4.7320266699 -12.9888421082 0.0000000000 0.0000000000 0.0000000000 -2940.5130215267 4.5311789577 -13.4467287716
4.7129329429 -12.9809332275 0.0000000000 0.0000000000 0.0000000000 -2637.1479890628 4.5311789577 -13.4467287716
4.6935286922 -12.9738201507 0.0000000000 0.0000000000 0.0000000000 -2339.9429657102 4.5311789577 -13.4467287716
4.6738470697 -12.9675150303 0.0000000000 0.0000000000 0.0000000000 -2048.2183460432 4.5311789577 -13.4467287716
4.6539217012 -12.9620286386 0.0000000000 0.0000000000 0.0000000000 -1761.2935703670 4.5311789577 -13.4467287716
4.6337866287 -12.9573703489 0.0000000000 0.0000000000 0.0000000000 -1478.6014536817 4.5311789577 -13.4467287716
4.6134762527 -12.9535481198 0.0000000000 0.0000000000 0.0000000000 -1199.5929449251 4.5311789577 -13.4467287716
4.5930252732 -12.9505684817 0.0000000000 0.0000000000 0.0000000000 -923.7864491933 4.5311789577 -13.4467287716
4.5724686303 -12.9484365250 0.0000000000 0.0000000000 0.0000000000 -650.7239254520 4.5311789577 -13.4467287716
4.5518414447 -12.9471558924 0.0000000000 0.0000000000 0.0000000000 -379.9900938954 4.5311789577 -13.4467287716
4.5311789576 -12.9467287716 0.0000000000 0.0000000000 0.0000000000 -111.1920338017 4.5311789577 -13.4467287716
4.5105164704 -12.9471558924 0.0000000000 0.0000000000 0.0000000000 156.0347121622 4.5311789577 -13.4467287716
4.4898892848 -12.9484365251 0.0000000000 0.0000000000 0.0000000000 422.0360746089 4.5311789577 -13.4467287716
4.4693326419 -12.9505684817 0.0000000000 0.0000000000 0.0000000000 687.1385900522 4.5311789577 -13.4467287716
4.4488816624 -12.9535481199 0.0000000000 0.0000000000 0.0000000000 951.6546676652 4.5311789577 -13.4467287716
4.4285712865 -12.9573703489 0.0000000000 0.0000000000 0.0000000000 1215.8835492000 4.5311789577 -13.4467287716
4.4084362140 -12.9620286386 0.0000000000 0.0000000000 0.0000000000 1480.1144468913 4.5311789577 -13.4467287716
4.3885108454 -12.9675150304 0.0000000000 0.0000000000 0.0000000000 1744.6279846851 4.5311789577 -13.4467287716
4.3688292230 -12.9738201508 0.0000000000 0.0000000000 0.0000000000 2009.6983277093 4.5311789577 -13.4467287716
4.3494249723 -12.9809332276 0.0000000000 0.0000000000 0.0000000000 2275.5946381600 4.5311789577 -13.4467287716
4.3303312452 -12.9888421083 0.0000000000 0.0000000000 0.0000000000 2542.5827009823 4.5311789577 -13.4467287716
4.3115806631 -12.9975332807 0.0000000000 0.0000000000 0.0000000000 2810.9262733842 4.5311789577 -13.4467287716
4.2932052610 -13.0069918960 0.0000000000 0.0000000000 0.0000000000 3080.8884478383 4.5311789577 -13.4467287716
4.2752364330 -13.0172017944 0.0000000000 0.0000000000 0.0000000000 3352.7328985577 4.5311789577 -13.4467287716
4.2577048785 -13.0281455325 0.0000000000 0.0000000000 0.0000000000 3626.7251124550 4.5311789577 -13.4467287716
4.2406405499 -13.0398044130 0.0000000000 0.0000000000 0.0000000000 3903.1335789810 4.5311789577 -13.4467287716
4.2240726012 -13.0521585170 0.0000000000 0.0000000000 0.0000000000 4182.2309859784 4.5311789577 -13.4467287716
4.2080293386 -13.0651867376 0.0000000000 0.0000000000 0.0000000000 4464.2954471949 4.5311789577 -13.4467287716
4.1925381717 -13.0788668163 0.0000000000 0.0000000000 0.0000000000 4749.6118369713 4.5311789577 -13.4467287716
4.1633170022 -13.1080879859 0.0000000000 0.0000000000 0.0000000000 5331.1834674313 4.5311789577 -13.4467287716
4.1496369235 -13.1235791528 0.0000000000 0.0000000000 0.0000000000 5628.0585269121 4.5311789577 -13.4467287716
4.1366087029 -13.1396224153 0.0000000000 0.0000000000 0.0000000000 5929.4310412451 4.5311789577 -13.4467287716
4.1242545989 -13.1561903640 0.0000000000 0.0000000000 0.0000000000 6235.6537224845 4.5311789577 -13.4467287716
4.1125957185 -13.1732546926 0.0000000000 0.0000000000 0.0000000000 6547.1039519164 4.5311789577 -13.4467287716
4.1016519804 -13.1907862472 0.0000000000 0.0000000000 0.0000000000 6864.1882791892 4.5311789577 -13.4467287716
4.0914420820 -13.2087550752 0.0000000000 0.0000000000 0.0000000000 7187.3466740666 4.5311789577 -13.4467287716
4.0819834667 -13.2271304773 0.0000000000 0.0000000000 0.0000000000 7517.0567408325 4.5311789577 -13.4467287716
4.0732922943 -13.2458810594 0.0000000000 0.0000000000 0.0000000000 7853.8388761947 4.5311789577 -13.4467287716
4.0653834136 -13.2649747864 0.0000000000 0.0000000000 0.0000000000 8198.2637775576 4.5311789577 -13.4467287716
4.0582703368 -13.2843790371 0.0000000000 0.0000000000 0.0000000000 8550.9636784080 4.5311789577 -13.4467287716
4.0519652164 -13.3040606596 0.0000000000 0.0000000000 0.0000000000 8912.6472067341 4.5311789577 -13.4467287716
4.0464788247 -13.3239860282 0.0000000000 0.0000000000 0.0000000000 9284.1165331151 4.5311789577 -13.4467287716
4.0418205350 -13.3441211006 0.0000000000 0.0000000000 0.0000000000 9666.2842463414 4.5311789577 -13.4467287716
4.0379983059 -13.3644314766 0.0000000000 0.0000000000 0.0000000000 10060.1902743961 4.5311789577 -13.4467287716
4.0350186678 -13.3848824561 0.0000000000 0.0000000000 0.0000000000 10467.0254875327 4.5311789577 -13.4467287716
4.0328867112 -13.4054390990 0.0000000000 0.0000000000 0.0000000000 10888.1813173691 4.5311789577 -13.4467287716
4.0316060785 -13.4260662846 0.0000000000 0.0000000000 0.0000000000 11325.3580030996 4.5311789577 -13.4467287716
4.0311789577 -13.4467287718 0.0000000000 0.0000000000 0.0000000000 11780.7747946709 4.5311789577 -13.4467287716
4.0316060785 -13.4673912589 0.0000000000 0.0000000000 0.0000000000 12257.5374294020 4.5311789577 -13.4467287716
4.0328867112 -13.4880184445 0.0000000000 0.0000000000 0.0000000000 12760.2634970373 4.5311789577 -13.4467287716
4.0350186678 -13.5085750874 0.0000000000 0.0000000000 0.0000000000 13296.0869882953 4.5311789577 -13.4467287716
4.0379983060 -13.5290260669 0.0000000000 0.0000000000 0.0000000000 13875.7822008484 4.5311789577 -13.4467287716
4.0418205351 -13.5493364429 0.0000000000 0.0000000000 0.0000000000 14513.6340687875 4.5311789577 -13.4467287716
4.0464788248 -13.5694715153 0.0000000000 0.0000000000 0.0000000000 15223.9268474798 4.5311789577 -13.4467287716
4.0519652165 -13.5893968839 0.0000000000 0.0000000000 0.0000000000 16013.9189457635 4.5311789577 -13.4467287716
4.0582703369 -13.6090785064 0.0000000000 0.0000000000 0.0000000000 16877.1771858249 4.5311789577 -13.4467287716
4.0653834137 -13.6284827571 0.0000000000 0.0000000000 0.0000000000 17792.0413127250 4.5311789577 -13.4467287716
4.0732922944 -13.6475764841 0.0000000000 0.0000000000 0.0000000000 18726.0940501525 4.5311789577 -13.4467287716
4.0819834668 -13.6663270662 0.0000000000 0.0000000000 0.0000000000 19643.4880131065 4.5311789577 -13.4467287716
4.0914420822 -13.6847024683 0.0000000000 0.0000000000 0.0000000000 20511.4121797531 4.5311789577 -13.4467287716
4.1016519806 -13.7026712963 0.0000000000 0.0000000000 0.0000000000 21303.7577646643 4.5311789577 -13.4467287716
4.1125957187 -13.7202028508 0.0000000000 0.0000000000 0.0000000000 22001.9464027070 4.5311789577 -13.4467287716
4.1242545992 -13.7372671795 0.0000000000 0.0000000000 0.0000000000 22593.9176025300 4.5311789577 -13.4467287716
4.1366087031 -13.7538351281 0.0000000000 0.0000000000 0.0000000000 23072.4167166386 4.5311789577 -13.4467287716
4.1496369237 -13.7698783907 0.0000000000 0.0000000000 0.0000000000 23433.3626812934 4.5311789577 -13.4467287716
4.1633170025 -13.7853695576 0.0000000000 0.0000000000 0.0000000000 23674.6280920439 4.5311789577 -13.4467287716
4.1925381721 -13.8145907271 0.0000000000 0.0000000000 0.0000000000 23795.0492685545 4.5311789577 -13.4467287716
4.2080293389 -13.8282708058 0.0000000000 0.0000000000 0.0000000000 23674.3070617761 4.5311789577 -13.4467287716
4.2240726015 -13.8412990264 0.0000000000 0.0000000000 0.0000000000 23433.7903816335 4.5311789577 -13.4467287716
4.2406405502 -13.8536531304 0.0000000000 0.0000000000 0.0000000000 23074.6798106548 4.5311789577 -13.4467287716
4.2577048788 -13.8653120108 0.0000000000 0.0000000000 0.0000000000 22598.5944257009 4.5311789577 -13.4467287716
4.2752364334 -13.8762557489 0.0000000000 0.0000000000 0.0000000000 22007.6181279837 4.5311789577 -13.4467287716
4.2932052614 -13.8864656473 0.0000000000 0.0000000000 0.0000000000 21304.3278251509 4.5311789577 -13.4467287716
4.3115806635 -13.8959242626 0.0000000000 0.0000000000 0.0000000000 20491.8157283562 4.5311789577 -13.4467287716
4.3303312456 -13.9046154350 0.0000000000 0.0000000000 0.0000000000 19573.7020748971 4.5311789577 -13.4467287716
4.3494249727 -13.9125243157 0.0000000000 0.0000000000 0.0000000000 18554.1295495428 4.5311789577 -13.4467287716
4.3688292233 -13.9196373925 0.0000000000 0.0000000000 0.0000000000 17437.7433685812 4.5311789577 -13.4467287716
4.3885108458 -13.9259425129 0.0000000000 0.0000000000 0.0000000000 16229.6536030803 4.5311789577 -13.4467287716
4.4084362144 -13.9314289046 0.0000000000 0.0000000000 0.0000000000 14935.4079817773 4.5311789577 -13.4467287716
4.4285712869 -13.9360871943 0.0000000000 0.0000000000 0.0000000000 13560.9751198777 4.5311789577 -13.4467287716
4.4488816628 -13.9399094233 0.0000000000 0.0000000000 0.0000000000 12112.7790658282 4.5311789577 -13.4467287716
4.4693326423 -13.9428890615 0.0000000000 0.0000000000 0.0000000000 10597.7239216485 4.5311789577 -13.4467287716
4.4898892852 -13.9450210181 0.0000000000 0.0000000000 0.0000000000 9023.2578459660 4.5311789577 -13.4467287716
4.5105164709 -13.9463016508 0.0000000000 0.0000000000 0.0000000000 7397.3713089275 4.5311789577 -13.4467287716
4.5311789580 -13.9467287716 0.0000000000 0.0000000000 0.0000000000 5728.5778603766 4.5311789577 -13.4467287716
4.5518414451 -13.9463016507 0.0000000000 0.0000000000 0.0000000000 4025.3347236355 4.5311789577 -13.4467287716
4.5724686307 -13.9450210180 0.0000000000 0.0000000000 0.0000000000 2296.2061723667 4.5311789577 -13.4467287716
4.5930252736 -13.9428890614 0.0000000000 0.0000000000 0.0000000000 549.6740611476 4.5311789577 -13.4467287716
4.6134762531 -13.9399094232 0.0000000000 0.0000000000 0.0000000000 -1205.8535589021 4.5311789577 -13.4467287716
4.6337866291 -13.9360871942 0.0000000000 0.0000000000 0.0000000000 -2961.9482833635 4.5311789577 -13.4467287716
4.6539217016 -13.9314289045 0.0000000000 0.0000000000 0.0000000000 -4710.0170391218 4.5311789577 -13.4467287716
4.6738470701 -13.9259425127 0.0000000000 0.0000000000 0.0000000000 -6441.3227818723 4.5311789577 -13.4467287716
4.6935286926 -13.9196373923 0.0000000000 0.0000000000 0.0000000000 -8147.0532545838 4.5311789577 -13.4467287716
4.7129329433 -13.9125243155 0.0000000000 0.0000000000 0.0000000000 -9818.6213997108 4.5311789577 -13.4467287716
4.7320266703 -13.9046154348 0.0000000000 0.0000000000 0.0000000000 -11447.5493477629 4.5311789577 -13.4467287716
4.7507772524 -13.8959242624 0.0000000000 0.0000000000 0.0000000000 -13026.1862197742 4.5311789577 -13.4467287716
4.7691526545 -13.8864656470 0.0000000000 0.0000000000 0.0000000000 -14546.3573649236 4.5311789577 -13.4467287716
4.7871214825 -13.8762557486 0.0000000000 0.0000000000 0.0000000000 -16002.2207621930 4.5311789577 -13.4467287716
4.8046530370 -13.8653120105 0.0000000000 0.0000000000 0.0000000000 -17384.4363467278 4.5311789577 -13.4467287716
4.8217173657 -13.8536531300 0.0000000000 0.0000000000 0.0000000000 -18691.1739989424 4.5311789577 -13.4467287716
4.8382853143 -13.8412990260 0.0000000000 0.0000000000 0.0000000000 -19908.5310967578 4.5311789577 -13.4467287716
4.8543285769 -13.8282708054 0.0000000000 0.0000000000 0.0000000000 -21041.0514610295 4.5311789577 -13.4467287716
4.8698197437 -13.8145907267 0.0000000000 0.0000000000 0.0000000000 -22078.3261580189 4.5311789577 -13.4467287716
5.1117053346 -13.8898672793 0.0000000000 1.8416503257 1.4481032826 -13045.6922818929 4.5619164304 -13.3797377263
5.1283506689 -13.8644224960 0.0000000000 1.7548069584 1.4612870281 -13459.5748199082 4.5598718762 -13.3752069380
5.1441451564 -13.8383728835 0.0000000000 1.6673012765 1.4681245753 -13813.2178059388 4.5577715443 -13.3707555325
5.1590692134 -13.8117763294 0.0000000000 1.5797962119 1.4686338420 -14105.4837007385 4.5556208782 -13.3664111907
5.1731057425 -13.7846939172 0.0000000000 1.4929623768 1.4628159292 -14334.1834888513 4.5534266615 -13.3622038741
5.1862390819 -13.7571882104 0.0000000000 1.4074766903 1.4508071029 -14498.6737762020 4.5511959322 -13.3581641534
5.1984544860 -13.7293222434 0.0000000000 1.3239968017 1.4328421729 -14599.2572330820 4.5489354329 -13.3543222438
5.2097378743 -13.7011587985 0.0000000000 1.2431382599 1.4092611052 -14637.4015323748 4.5466513289 -13.3507073277
5.2200757654 -13.6727598444 0.0000000000 1.1654534615 1.3804956616 -14615.6465704923 4.5443491142 -13.3473470405
5.2294553515 -13.6441860781 0.0000000000 1.0914140449 1.3470540801 -14537.5109309086 4.5420336594 -13.3442670602
5.2378646635 -13.6154965367 0.0000000000 1.0213983602 1.3095011224 -14407.3316921135 4.5397093519 -13.3414907688
5.2452927738 -13.5867482592 0.0000000000 0.9556845758 1.2684362941 -14230.0724226586 4.5373802759 -13.3390389631
5.2517299890 -13.5579959872 0.0000000000 0.8944494813 1.2244718529 -14011.1131169783 4.5350503846 -13.3369296068
5.2571680077 -13.5292919023 0.0000000000 0.8377724294 1.1782122604 -13756.0399945629 4.5327236379 -13.3351776189
5.2616000307 -13.5006853978 0.0000000000 0.7856434887 1.1302362961 -13470.4492766329 4.5304040965 -13.3337946977
5.2650208271 -13.4722228855 0.0000000000 0.7379746723 1.0810826207 -13159.7755649699 4.5280959721 -13.3327891805
5.2674267618 -13.4439476362 0.0000000000 0.6946130671 1.0312391459 -12829.1514826043 4.5258036421 -13.3321659370
5.2688157879 -13.4158996538 0.0000000000 0.6553547651 0.9811361997 -12483.3015791173 4.5235316305 -13.3319262971
5.2691874071 -13.3881155812 0.0000000000 0.6199586528 0.9311431931 -12126.4703779556 4.5212845592 -13.3320680114
5.2685425973 -13.3606286388 0.0000000000 0.5881593233 0.8815683035 -11762.3820259529 4.5190670687 -13.3325852434
5.2668837091 -13.3334685941 0.0000000000 0.5596785978 0.8326605842 -11394.2273571688 4.5168837091 -13.3334685944
5.2642143318 -13.3066617639 0.0000000000 0.5342353532 0.7846138852 -11024.6732905372 4.5147388033 -13.3347051599
5.2605391376 -13.2802310523 0.0000000000 0.5115535467 0.7375720030 -10655.8892596761 4.5126362897 -13.3362786228
5.2558637098 -13.2541960282 0.0000000000 0.4913684664 0.6916345535 -10289.5856846544 4.5105795524 -13.3381693856
5.2501943699 -13.2285730508 0.0000000000 0.4734313397 0.6468631590 -9927.0601646340 4.5085712503 -13.3403547507
5.2435380135 -13.2033754534 0.0000000000 0.4575124835 0.6032876386 -9569.2479105472 4.5066131586 -13.3428091590
5.2359019641 -13.1786137986 0.0000000000 0.4434031962 0.5609119796 -9216.7737782241 4.5047060301 -13.3455044994
5.2272938521 -13.1542962172 0.0000000000 0.4309165847 0.5197199310 -8870.0039753669 4.5028494825 -13.3484105013
5.2177215145 -13.1304288421 0.0000000000 0.4198875000 0.4796801036 -8529.0960292942 4.5010419102 -13.3514952231
5.2071929121 -13.1070163443 0.0000000000 0.4101717371 0.4407504837 -8194.0459085590 4.4992804145 -13.3547256409
5.1957160528 -13.0840625695 0.0000000000 0.4016446419 0.4028822834 -7864.7313373576 4.4975607414 -13.3580683379
5.1832989076 -13.0615712651 0.0000000000 0.3941992677 0.3660230671 -7540.9504105901 4.4958772158 -13.3614902835
5.1699493127 -13.0395468787 0.0000000000 0.3877442190 0.3301191312 -7222.4547036894 4.4942226618 -13.3649596832
5.1556748526 -13.0179954020 0.0000000000 0.3822013191 0.2951171850 -6908.9762534166 4.4925883076 -13.3684468734
5.1404827393 -12.9969252340 0.0000000000 0.3775032225 0.2609654980 -6600.2481283995 4.4909636865 -13.3719252342
5.1243797228 -12.9763480411 0.0000000000 0.3735910687 0.2276147544 -6296.0188840527 4.4893365734 -13.3753720986
5.1073720973 -12.9562796046 0.0000000000 0.3704121980 0.1950185752 -5996.0618350687 4.4876930167 -13.3787696483
5.0894658473 -12.9367406649 0.0000000000 0.3679178305 0.1631337410 -5700.1798871760 4.4860175126 -13.3821058042
5.0706668484 -12.9177578073 0.0000000000 0.3660603824 0.1319234024 -5408.2056739430 4.4842932366 -13.3853751588
5.0509806938 -12.8993645247 0.0000000000 0.3647897955 0.1013688491 -5119.9988679503 4.4825019015 -13.3885800832
5.0304106807 -12.8816024480 0.0000000000 0.3640499579 0.0714695786 -4835.4412558821 4.4806217768 -13.3917320014
4.9852244527 -12.8456271613 0.0000000000 0.3653858745 0.0103938271 -4246.2166980602 4.4772632740 -13.3974200943
4.9605230904 -12.8276418871 0.0000000000 0.3674322982 -0.0206607140 -3943.6026286833 4.4757986621 -13.3999549383
4.9349174296 -12.8105791630 0.0000000000 0.3695309557 -0.0491815335 -3645.6569623973 4.4742578951 -13.4024345452
4.9084739016 -12.7944638221 0.0000000000 0.3711219176 -0.0729839199 -3352.6730912820 4.4726662901 -13.4048503601
4.8812583623 -12.7793247315 0.0000000000 0.3736399680 -0.0977861397 -3065.9818395055 4.4710472438 -13.4071995902
4.8533376395 -12.7651916021 0.0000000000 0.3827664811 -0.1425883693 -2785.8709248378 4.4694238527 -13.4094820680
4.8247804966 -12.7520940542 0.0000000000 0.4042004454 -0.2221923729 -2510.0922895223 4.4678199519 -13.4116993676
4.7956579068 -12.7400611060 0.0000000000 0.4324791396 -0.3151901886 -2236.6825321938 4.4662604653 -13.4138543425
4.7660428533 -12.7291206568 0.0000000000 0.4484846089 -0.3667542529 -1967.3056174385 4.4647712849 -13.4159506518
4.7360097980 -12.7192989437 0.0000000000 0.4372661135 -0.3433496058 -1704.5222748894 4.4633788202 -13.4179922598
4.7056339532 -12.7106200540 0.0000000000 0.4056952127 -0.2707198172 -1446.8491687872 4.4621093514 -13.4199829853
4.6749904770 -12.7031055354 0.0000000000 0.3731793714 -0.1988245713 -1190.6593887803 4.4609883090 -13.4219261473
4.6441536896 -12.6967741042 0.0000000000 0.3500110256 -0.1493671955 -934.9464918689 4.4600395744 -13.4238243037
4.6131963750 -12.6916414356 0.0000000000 0.3339285403 -0.1150825406 -681.0717382386 4.4592848684 -13.4256790696
4.5821892060 -12.6877200237 0.0000000000 0.3208903614 -0.0868697323 -429.8911388778 4.4587432634 -13.4274910013
4.5512003028 -12.6850191084 0.0000000000 0.3097619113 -0.0624180294 -181.3395414655 4.4584308295 -13.4292595432
4.5202949174 -12.6835446688 0.0000000000 0.3002770490 -0.0410570822 64.6866868036 4.4583604084 -13.4309830386
4.4895352242 -12.6832994824 0.0000000000 0.2920477312 -0.0219261230 308.2272333176 4.4585414937 -13.4326588012
4.4589801929 -12.6842832406 0.0000000000 0.2847896452 -0.0044392958 549.3905412926 4.4589801931 -13.4342832406
4.4286855187 -12.6864927050 0.0000000000 0.2783032269 0.0118050422 788.3328706301 4.4596792496 -13.4358520238
4.3987035920 -12.6899218817 0.0000000000 0.2724278762 0.0271165563 1025.2465295768 4.4606381013 -13.4373602514
4.3690834933 -12.6945621932 0.0000000000 0.2670352366 0.0417337888 1260.3583503113 4.4618529669 -13.4388026280
4.3398710072 -12.7004026344 0.0000000000 0.2620197848 0.0558472076 1493.9254735673 4.4633169500 -13.4401736119
4.3111086517 -12.7074299046 0.0000000000 0.2572932217 0.0696134099 1726.2320344081 4.4650201585 -13.4414675385
4.2828357245 -12.7156285235 0.0000000000 0.2527804362 0.0831651778 1957.5860035252 4.4669498400 -13.4426787229
4.2550883654 -12.7249809428 0.0000000000 0.2484166055 0.0966187576 2188.3164465315 4.4690905338 -13.4438015546
4.2278996396 -12.7354676690 0.0000000000 0.2441444770 0.1100820847 2418.7701617658 4.4714242417 -13.4448306002
4.2012996410 -12.7470674132 0.0000000000 0.2399115265 0.1236631540 2649.3065992667 4.4739306191 -13.4457607291
4.1753156222 -12.7597572756 0.0000000000 0.2356695374 0.1374652236 2880.2949881318 4.4765871909 -13.4465872705
4.1499721530 -12.7735129662 0.0000000000 0.2313779505 0.1515681639 3112.1218573341 4.4793695949 -13.4473062025
4.1252913150 -12.7883090525 0.0000000000 0.2270007967 0.1660491956 3345.2033167435 4.4822518599 -13.4479143658
4.1012929382 -12.8041192205 0.0000000000 0.2224823267 0.1810968200 3579.9675362217 4.4852067252 -13.4484096862
4.0779948885 -12.8209165270 0.0000000000 0.2177184246 0.1971064021 3816.7783908937 4.4882060073 -13.4487913856
4.0554134097 -12.8386736253 0.0000000000 0.2125909608 0.2144603708 4055.8599394857 4.4912210214 -13.4490601631
4.0335635247 -12.8573629461 0.0000000000 0.2071089655 0.2329043209 4297.3948054982 4.4942230594 -13.4492183280
4.0124594943 -12.8769568296 0.0000000000 0.2015362477 0.2511773804 4541.9101255239 4.4971839228 -13.4492698806
3.9921153319 -12.8974276256 0.0000000000 0.1961892589 0.2681432993 4790.6907606100 4.5000765108 -13.4492205584
3.9537649501 -12.9408854532 0.0000000000 0.1829104246 0.3123396886 5307.2612514900 4.5055578833 -13.4488466317
3.9357905138 -12.9638162002 0.0000000000 0.1693457433 0.3593956707 5573.7442451156 4.5081035651 -13.4485406284
3.9186404329 -12.9875105143 0.0000000000 0.1476949318 0.4317840412 5839.5306644296 4.5104958151 -13.4481700486
3.9023353663 -13.0119384313 0.0000000000 0.1220377264 0.5117806501 6100.2618662641 4.5127219044 -13.4477460427
3.8868984192 -13.0370691025 0.0000000000 0.1066279535 0.5522633209 6359.2299620365 4.5147732780 -13.4472802209
3.8723551589 -13.0628704906 0.0000000000 0.1234893687 0.4918107327 6627.4444985865 4.5166456248 -13.4467842772
3.8587334454 -13.0893091395 0.0000000000 0.1918925906 0.2901014371 6915.4537977166 4.5183387590 -13.4462696841
3.8460630664 -13.1163499985 0.0000000000 0.3140941752 -0.0378058015 7225.7776497231 4.5198563029 -13.4457474399
3.8343752048 -13.1439563007 0.0000000000 0.4673135036 -0.4157525531 7548.6684314357 4.5212051999 -13.4452278689
3.8237017854 -13.1720894993 0.0000000000 0.6117691420 -0.7417873012 7861.7472672689 4.5223951015 -13.4447204769
3.8140747598 -13.2007092578 0.0000000000 0.7137912802 -0.9464748810 8145.9955990135 4.5234376911 -13.4442338595
3.8055253915 -13.2297734877 0.0000000000 0.7663457199 -1.0296057190 8408.7871489699 4.5243460034 -13.4437756556
3.7980835956 -13.2592384215 0.0000000000 0.7878530630 -1.0433013037 8676.0606998550 4.5251337951 -13.4433525365
3.7917773735 -13.2890587107 0.0000000000 0.8026832749 -1.0428503462 8962.6846480057 4.5258150076 -13.4429702171
3.7866323667 -13.3191875364 0.0000000000 0.8243343519 -1.0543320982 9265.5297878401 4.5264033443 -13.4426334788
3.7826715342 -13.3495767238 0.0000000000 0.8535602286 -1.0773355493 9576.4972310044 4.5269119690 -13.4423461970