 TITLE = "Tecplot data"
 VARIABLES = "X", "Y", "Z" "U", "V", "p", "dispX", "dispY"
 ZONE SOLUTIONTIME=199.900000, NODES=26114 , ELEMENTS=25916, DATAPACKING=POINT, ZONETYPE=FEQUADRILATERAL
8.5066655265 -21.7542168534 0.0000000000 0.0000000000 0.0000000000 -873.1836577972 8.1531121359 -22.1077702441
8.5066655268 -22.4613236344 0.0000000000 0.0000000000 0.0000000000 -1003.8506110131 8.1531121359 -22.1077702441
7.7995587452 -21.7542168536 0.0000000000 0.0000000000 0.0000000000 183.4131779324 8.1531121359 -22.1077702441
7.7995587455 -22.4613236348 0.0000000000 0.0000000000 0.0000000000 374.0164066523 8.1531121359 -22.1077702441
8.5957625155 -21.4922761990 0.0000000000 0.1624922601 0.1147689196 -465.5395773128 8.0654324297 -22.0226062849
8.7320090806 -22.5367422126 0.0000000000 0.7844412548 0.7446329450 -595.8510043168 8.2016789943 -22.0064121271
7.5748526449 -21.5819503370 0.0000000000 0.0888362063 0.0945970420 216.3326196599 8.1051827310 -22.1122804227
7.6288511500 -22.6364641917 0.0000000000 1.0638472653 -0.6527361294 491.1814837366 8.1591812356 -22.1061341056
8.6386421335 -20.4141065459 0.0000000000 0.4277567221 0.0446049108 -97.3818170566 7.5779819619 -21.4747667178
9.4862744585 -22.4714873695 0.0000000000 0.5400413433 0.4123469409 -349.2450691018 8.4256142860 -21.4108271985
6.8079487529 -21.0350256296 0.0000000000 0.5306578885 -0.3734198948 307.7847768557 7.8686089250 -22.0956858010
7.1503173418 -23.1288604331 0.0000000000 0.7546406019 -0.3921767183 470.8172758520 8.2109775130 -22.0682002608
9.4883081505 -14.9135875584 0.0000000000 0.9211394784 -0.0839731472 -5.1987853656 5.2883081505 -18.2135875584
13.7524367230 -21.4854306702 0.0000000000 0.8479821250 0.1963181376 -140.8858782451 9.5524367230 -18.1854306702
20.0000000000 4.7000000000 0.0000000000 1.0030248161 0.0164468301 -0.0063598348 0.0000000000 0.0000000000
20.0000000000 -4.7000000000 0.0000000000 1.0013923935 0.0260277067 -0.0069846311 0.0000000000 0.0000000000
-10.0000000000 15.0000000000 0.0000000000 1.0000000000 0.0000000000 51.1636940260 0.0000000000 0.0000000000
20.0000000000 15.0000000000 0.0000000000 1.1453374593 0.0000000000 2.5727745519 0.0000000000 0.0000000000
20.0000000000 -15.0000000000 0.0000000000 1.0520844116 0.0000000000 0.2560870901 0.0000000000 0.0000000000
-10.0000000000 -15.0000000000 0.0000000000 1.0000000000 0.0000000000 39.2919661620 0.0000000000 0.0000000000
8.5196380721 -22.4478566127 0.0000000000 0.0000000000 0.0000000000 -1091.8150006753 8.1531121359 -22.1077702441
8.5320979977 -22.4339139494 0.0000000000 0.0000000000 0.0000000000 -1156.5950351497 8.1531121359 -22.1077702441
8.5440278774 -22.4195151447 0.0000000000 0.0000000000 0.0000000000 -1231.2997480085 8.1531121359 -22.1077702441
8.5554110260 -22.4046803366 0.0000000000 0.0000000000 0.0000000000 -1297.2964311834 8.1531121359 -22.1077702441
8.5662315233 -22.3894302728 0.0000000000 0.0000000000 0.0000000000 -1363.1347431513 8.1531121359 -22.1077702441
8.5764742357 -22.3737862821 0.0000000000 0.0000000000 0.0000000000 -1424.2468788237 8.1531121359 -22.1077702441
8.5861248380 -22.3577702438 0.0000000000 0.0000000000 0.0000000000 -1482.4937517849 8.1531121359 -22.1077702441
8.5951698328 -22.3414045579 0.0000000000 0.0000000000 0.0000000000 -1536.5477400710 8.1531121359 -22.1077702441
8.6035965700 -22.3247121134 0.0000000000 0.0000000000 0.0000000000 -1586.7459021462 8.1531121359 -22.1077702441
8.6113932640 -22.3077162560 0.0000000000 0.0000000000 0.0000000000 -1632.5972788382 8.1531121359 -22.1077702441
8.6185490103 -22.2904407560 0.0000000000 0.0000000000 0.0000000000 -1674.0756506457 8.1531121359 -22.1077702441
8.6250538012 -22.2729097748 0.0000000000 0.0000000000 0.0000000000 -1710.9424711598 8.1531121359 -22.1077702441
8.6308985389 -22.2551478310 0.0000000000 0.0000000000 0.0000000000 -1743.1056572295 8.1531121359 -22.1077702441
8.6360750491 -22.2371797664 0.0000000000 0.0000000000 0.0000000000 -1770.4291927189 8.1531121359 -22.1077702441
8.6405760921 -22.2190307108 0.0000000000 0.0000000000 0.0000000000 -1792.8367203853 8.1531121359 -22.1077702441
8.6443953726 -22.2007260474 0.0000000000 0.0000000000 0.0000000000 -1810.2565668746 8.1531121359 -22.1077702441
8.6475275491 -22.1822913769 0.0000000000 0.0000000000 0.0000000000 -1822.6530636448 8.1531121359 -22.1077702441
8.6499682409 -22.1637524819 0.0000000000 0.0000000000 0.0000000000 -1830.0104390970 8.1531121359 -22.1077702441
8.6517140345 -22.1451352906 0.0000000000 0.0000000000 0.0000000000 -1832.3427380878 8.1531121359 -22.1077702441
8.6527624883 -22.1264658410 0.0000000000 0.0000000000 0.0000000000 -1829.6889377253 8.1531121359 -22.1077702441
8.6531121359 -22.1077702439 0.0000000000 0.0000000000 0.0000000000 -1822.1159864844 8.1531121359 -22.1077702441
8.6527624883 -22.0890746467 0.0000000000 0.0000000000 0.0000000000 -1809.7169330816 8.1531121359 -22.1077702441
8.6517140345 -22.0704051971 0.0000000000 0.0000000000 0.0000000000 -1792.6113818844 8.1531121359 -22.1077702441
8.6499682408 -22.0517880058 0.0000000000 0.0000000000 0.0000000000 -1770.9441855335 8.1531121359 -22.1077702441
8.6475275490 -22.0332491108 0.0000000000 0.0000000000 0.0000000000 -1744.8847049381 8.1531121359 -22.1077702441
8.6443953725 -22.0148144403 0.0000000000 0.0000000000 0.0000000000 -1714.6254379306 8.1531121359 -22.1077702441
8.6405760920 -21.9965097769 0.0000000000 0.0000000000 0.0000000000 -1680.3806689839 8.1531121359 -22.1077702441
8.6360750490 -21.9783607214 0.0000000000 0.0000000000 0.0000000000 -1642.3850159299 8.1531121359 -22.1077702441
8.6308985388 -21.9603926567 0.0000000000 0.0000000000 0.0000000000 -1600.8919355023 8.1531121359 -22.1077702441
8.6250538010 -21.9426307130 0.0000000000 0.0000000000 0.0000000000 -1556.1720979323 8.1531121359 -22.1077702441
8.6185490102 -21.9250997318 0.0000000000 0.0000000000 0.0000000000 -1508.5124515141 8.1531121359 -22.1077702441
8.6113932638 -21.9078242318 0.0000000000 0.0000000000 0.0000000000 -1458.2124603721 8.1531121359 -22.1077702441
8.6035965698 -21.8908283744 0.0000000000 0.0000000000 0.0000000000 -1405.5851692825 8.1531121359 -22.1077702441
8.5951698326 -21.8741359298 0.0000000000 0.0000000000 0.0000000000 -1350.9420193659 8.1531121359 -22.1077702441
8.5861248378 -21.8577702440 0.0000000000 0.0000000000 0.0000000000 -1294.6013653462 8.1531121359 -22.1077702441
8.5764742355 -21.8417542057 0.0000000000 0.0000000000 0.0000000000 -1236.8382514498 8.1531121359 -22.1077702441
8.5662315230 -21.8261102150 0.0000000000 0.0000000000 0.0000000000 -1177.9286024937 8.1531121359 -22.1077702441
8.5554110258 -21.8108601512 0.0000000000 0.0000000000 0.0000000000 -1118.0437728598 8.1531121359 -22.1077702441
8.5440278771 -21.7960253431 0.0000000000 0.0000000000 0.0000000000 -1057.3936227417 8.1531121359 -22.1077702441
8.5320979975 -21.7816265384 0.0000000000 0.0000000000 0.0000000000 -996.1487974336 8.1531121359 -22.1077702441
8.5196380718 -21.7676838751 0.0000000000 0.0000000000 0.0000000000 -934.4126911559 8.1531121359 -22.1077702441
8.4917529217 -21.7399082887 0.0000000000 0.0000000000 0.0000000000 -805.2311487521 8.1531121359 -22.1077702441
8.4762617548 -21.7262282099 0.0000000000 0.0000000000 0.0000000000 -739.7559379789 8.1531121359 -22.1077702441
8.4602184922 -21.7131999893 0.0000000000 0.0000000000 0.0000000000 -676.2278801124 8.1531121359 -22.1077702441
8.4436505436 -21.7008458854 0.0000000000 0.0000000000 0.0000000000 -616.4867822017 8.1531121359 -22.1077702441
8.4265862149 -21.6891870049 0.0000000000 0.0000000000 0.0000000000 -560.7036359848 8.1531121359 -22.1077702441
8.4090546604 -21.6782432669 0.0000000000 0.0000000000 0.0000000000 -509.6928213489 8.1531121359 -22.1077702441
8.3910858324 -21.6680333684 0.0000000000 0.0000000000 0.0000000000 -463.4328631837 8.1531121359 -22.1077702441
8.3727104303 -21.6585747531 0.0000000000 0.0000000000 0.0000000000 -421.9787557377 8.1531121359 -22.1077702441
8.3539598482 -21.6498835807 0.0000000000 0.0000000000 0.0000000000 -384.9510225399 8.1531121359 -22.1077702441
8.3348661211 -21.6419747000 0.0000000000 0.0000000000 0.0000000000 -351.9360207236 8.1531121359 -22.1077702441
8.3154618704 -21.6348616232 0.0000000000 0.0000000000 0.0000000000 -322.3398694601 8.1531121359 -22.1077702441
8.2957802480 -21.6285565028 0.0000000000 0.0000000000 0.0000000000 -295.5815353212 8.1531121359 -22.1077702441
8.2758548794 -21.6230701111 0.0000000000 0.0000000000 0.0000000000 -271.0666312667 8.1531121359 -22.1077702441
8.2557198069 -21.6184118214 0.0000000000 0.0000000000 0.0000000000 -248.2765055269 8.1531121359 -22.1077702441
8.2354094310 -21.6145895924 0.0000000000 0.0000000000 0.0000000000 -226.7628719835 8.1531121359 -22.1077702441
8.2149584515 -21.6116099542 0.0000000000 0.0000000000 0.0000000000 -206.1759738325 8.1531121359 -22.1077702441
8.1944018086 -21.6094779976 0.0000000000 0.0000000000 0.0000000000 -186.2511048828 8.1531121359 -22.1077702441
8.1737746229 -21.6081973649 0.0000000000 0.0000000000 0.0000000000 -166.8040352336 8.1531121359 -22.1077702441
8.1531121358 -21.6077702441 0.0000000000 0.0000000000 0.0000000000 -147.7109570954 8.1531121359 -22.1077702441
8.1324496487 -21.6081973649 0.0000000000 0.0000000000 0.0000000000 -128.8937892178 8.1531121359 -22.1077702441
8.1118224631 -21.6094779976 0.0000000000 0.0000000000 0.0000000000 -110.3035552484 8.1531121359 -22.1077702441
8.0912658202 -21.6116099542 0.0000000000 0.0000000000 0.0000000000 -91.9094623789 8.1531121359 -22.1077702441
8.0708148407 -21.6145895924 0.0000000000 0.0000000000 0.0000000000 -73.6904962120 8.1531121359 -22.1077702441
8.0505044647 -21.6184118214 0.0000000000 0.0000000000 0.0000000000 -55.6310713100 8.1531121359 -22.1077702441
8.0303693922 -21.6230701111 0.0000000000 0.0000000000 0.0000000000 -37.7186069082 8.1531121359 -22.1077702441
8.0104440237 -21.6285565029 0.0000000000 0.0000000000 0.0000000000 -19.9427690017 8.1531121359 -22.1077702441
7.9907624012 -21.6348616233 0.0000000000 0.0000000000 0.0000000000 -2.2952674647 8.1531121359 -22.1077702441
7.9713581505 -21.6419747001 0.0000000000 0.0000000000 0.0000000000 15.2300201574 8.1531121359 -22.1077702441
7.9522644235 -21.6498835808 0.0000000000 0.0000000000 0.0000000000 32.6369366501 8.1531121359 -22.1077702441
7.9335138414 -21.6585747532 0.0000000000 0.0000000000 0.0000000000 49.9269516848 8.1531121359 -22.1077702441
7.9151384393 -21.6680333685 0.0000000000 0.0000000000 0.0000000000 67.0991258568 8.1531121359 -22.1077702441
7.8971696113 -21.6782432670 0.0000000000 0.0000000000 0.0000000000 84.1500936381 8.1531121359 -22.1077702441
7.8796380567 -21.6891870050 0.0000000000 0.0000000000 0.0000000000 101.0740568159 8.1531121359 -22.1077702441
7.8625737281 -21.7008458855 0.0000000000 0.0000000000 0.0000000000 117.8627717595 8.1531121359 -22.1077702441
7.8460057795 -21.7131999895 0.0000000000 0.0000000000 0.0000000000 134.5055282224 8.1531121359 -22.1077702441
7.8299625169 -21.7262282101 0.0000000000 0.0000000000 0.0000000000 150.9891166099 8.1531121359 -22.1077702441
7.8144713500 -21.7399082888 0.0000000000 0.0000000000 0.0000000000 167.2977839535 8.1531121359 -22.1077702441
7.7852501805 -21.7691294584 0.0000000000 0.0000000000 0.0000000000 199.3142789274 8.1531121359 -22.1077702441
7.7715701017 -21.7846206253 0.0000000000 0.0000000000 0.0000000000 214.9773214831 8.1531121359 -22.1077702441
7.7585418811 -21.8006638879 0.0000000000 0.0000000000 0.0000000000 230.3757125520 8.1531121359 -22.1077702441
7.7461877772 -21.8172318365 0.0000000000 0.0000000000 0.0000000000 245.4799656848 8.1531121359 -22.1077702441
7.7345288967 -21.8342961651 0.0000000000 0.0000000000 0.0000000000 260.2576845058 8.1531121359 -22.1077702441
7.7235851587 -21.8518277197 0.0000000000 0.0000000000 0.0000000000 274.6736337860 8.1531121359 -22.1077702441
7.7133752602 -21.8697965477 0.0000000000 0.0000000000 0.0000000000 288.6899193054 8.1531121359 -22.1077702441
7.7039166449 -21.8881719498 0.0000000000 0.0000000000 0.0000000000 302.2662571880 8.1531121359 -22.1077702441
7.6952254725 -21.9069225319 0.0000000000 0.0000000000 0.0000000000 315.3602682839 8.1531121359 -22.1077702441
7.6873165918 -21.9260162590 0.0000000000 0.0000000000 0.0000000000 327.9277111853 8.1531121359 -22.1077702441
7.6802035150 -21.9454205096 0.0000000000 0.0000000000 0.0000000000 339.9225995252 8.1531121359 -22.1077702441
7.6738983946 -21.9651021321 0.0000000000 0.0000000000 0.0000000000 351.2972170304 8.1531121359 -22.1077702441
7.6684120029 -21.9850275007 0.0000000000 0.0000000000 0.0000000000 362.0021198373 8.1531121359 -22.1077702441
7.6637537132 -22.0051625732 0.0000000000 0.0000000000 0.0000000000 371.9862641489 8.1531121359 -22.1077702441
7.6599314842 -22.0254729491 0.0000000000 0.0000000000 0.0000000000 381.1973690405 8.1531121359 -22.1077702441
7.6569518460 -22.0459239286 0.0000000000 0.0000000000 0.0000000000 389.5825740927 8.1531121359 -22.1077702441
7.6548198894 -22.0664805715 0.0000000000 0.0000000000 0.0000000000 397.0893538748 8.1531121359 -22.1077702441
7.6535392567 -22.0871077571 0.0000000000 0.0000000000 0.0000000000 403.6665014720 8.1531121359 -22.1077702441
7.6531121359 -22.1077702443 0.0000000000 0.0000000000 0.0000000000 409.2648060110 8.1531121359 -22.1077702441
7.6535392567 -22.1284327314 0.0000000000 0.0000000000 0.0000000000 413.8372479967 8.1531121359 -22.1077702441
7.6548198894 -22.1490599170 0.0000000000 0.0000000000 0.0000000000 417.3400374724 8.1531121359 -22.1077702441
7.6569518461 -22.1696165599 0.0000000000 0.0000000000 0.0000000000 419.7384970265 8.1531121359 -22.1077702441
7.6599314843 -22.1900675394 0.0000000000 0.0000000000 0.0000000000 421.0224530585 8.1531121359 -22.1077702441
7.6637537133 -22.2103779154 0.0000000000 0.0000000000 0.0000000000 421.2297139774 8.1531121359 -22.1077702441
7.6684120030 -22.2305129879 0.0000000000 0.0000000000 0.0000000000 420.4642115246 8.1531121359 -22.1077702441
7.6738983948 -22.2504383564 0.0000000000 0.0000000000 0.0000000000 418.8885233588 8.1531121359 -22.1077702441
7.6802035151 -22.2701199789 0.0000000000 0.0000000000 0.0000000000 416.6812235033 8.1531121359 -22.1077702441
7.6873165920 -22.2895242296 0.0000000000 0.0000000000 0.0000000000 413.9751819474 8.1531121359 -22.1077702441
7.6952254727 -22.3086179566 0.0000000000 0.0000000000 0.0000000000 410.8130760948 8.1531121359 -22.1077702441
7.7039166451 -22.3273685387 0.0000000000 0.0000000000 0.0000000000 407.1515166292 8.1531121359 -22.1077702441
7.7133752604 -22.3457439408 0.0000000000 0.0000000000 0.0000000000 402.9174913630 8.1531121359 -22.1077702441
7.7235851589 -22.3637127688 0.0000000000 0.0000000000 0.0000000000 398.0920476295 8.1531121359 -22.1077702441
7.7345288969 -22.3812443233 0.0000000000 0.0000000000 0.0000000000 392.7858453310 8.1531121359 -22.1077702441
7.7461877774 -22.3983086520 0.0000000000 0.0000000000 0.0000000000 387.2810348140 8.1531121359 -22.1077702441
7.7585418814 -22.4148766006 0.0000000000 0.0000000000 0.0000000000 382.0316364572 8.1531121359 -22.1077702441
7.7715701020 -22.4309198632 0.0000000000 0.0000000000 0.0000000000 377.6279521719 8.1531121359 -22.1077702441
7.7852501808 -22.4464110301 0.0000000000 0.0000000000 0.0000000000 374.7352888956 8.1531121359 -22.1077702441
7.8144713503 -22.4756321996 0.0000000000 0.0000000000 0.0000000000 376.0453795070 8.1531121359 -22.1077702441
7.8299625172 -22.4893122783 0.0000000000 0.0000000000 0.0000000000 381.2215941452 8.1531121359 -22.1077702441
7.8460057798 -22.5023404989 0.0000000000 0.0000000000 0.0000000000 389.6956859437 8.1531121359 -22.1077702441
7.8625737284 -22.5146946029 0.0000000000 0.0000000000 0.0000000000 401.3210287787 8.1531121359 -22.1077702441
7.8796380571 -22.5263534833 0.0000000000 0.0000000000 0.0000000000 415.6421713603 8.1531121359 -22.1077702441
7.8971696116 -22.5372972214 0.0000000000 0.0000000000 0.0000000000 431.9234278878 8.1531121359 -22.1077702441
7.9151384396 -22.5475071198 0.0000000000 0.0000000000 0.0000000000 449.2114582401 8.1531121359 -22.1077702441
7.9335138417 -22.5569657351 0.0000000000 0.0000000000 0.0000000000 466.4178774521 8.1531121359 -22.1077702441
7.9522644239 -22.5656569075 0.0000000000 0.0000000000 0.0000000000 482.4061783336 8.1531121359 -22.1077702441
7.9713581509 -22.5735657882 0.0000000000 0.0000000000 0.0000000000 496.0700357560 8.1531121359 -22.1077702441
7.9907624016 -22.5806788650 0.0000000000 0.0000000000 0.0000000000 506.3953373240 8.1531121359 -22.1077702441
8.0104440241 -22.5869839854 0.0000000000 0.0000000000 0.0000000000 512.5030876665 8.1531121359 -22.1077702441
8.0303693926 -22.5924703771 0.0000000000 0.0000000000 0.0000000000 513.6737292437 8.1531121359 -22.1077702441
8.0505044651 -22.5971286668 0.0000000000 0.0000000000 0.0000000000 509.3553466554 8.1531121359 -22.1077702441
8.0708148411 -22.6009508958 0.0000000000 0.0000000000 0.0000000000 499.1591346062 8.1531121359 -22.1077702441
8.0912658206 -22.6039305340 0.0000000000 0.0000000000 0.0000000000 482.8456358913 8.1531121359 -22.1077702441
8.1118224635 -22.6060624906 0.0000000000 0.0000000000 0.0000000000 460.3050738399 8.1531121359 -22.1077702441
8.1324496491 -22.6073431233 0.0000000000 0.0000000000 0.0000000000 431.5351249108 8.1531121359 -22.1077702441
8.1531121362 -22.6077702441 0.0000000000 0.0000000000 0.0000000000 396.6199560454 8.1531121359 -22.1077702441
8.1737746234 -22.6073431233 0.0000000000 0.0000000000 0.0000000000 355.7133819979 8.1531121359 -22.1077702441
8.1944018090 -22.6060624905 0.0000000000 0.0000000000 0.0000000000 309.0261924218 8.1531121359 -22.1077702441
8.2149584519 -22.6039305339 0.0000000000 0.0000000000 0.0000000000 256.8158879447 8.1531121359 -22.1077702441
8.2354094314 -22.6009508957 0.0000000000 0.0000000000 0.0000000000 199.3813930557 8.1531121359 -22.1077702441
8.2557198073 -22.5971286667 0.0000000000 0.0000000000 0.0000000000 137.0603899821 8.1531121359 -22.1077702441
8.2758548798 -22.5924703770 0.0000000000 0.0000000000 0.0000000000 70.2245239889 8.1531121359 -22.1077702441
8.2957802484 -22.5869839852 0.0000000000 0.0000000000 0.0000000000 -0.7250616120 8.1531121359 -22.1077702441
8.3154618708 -22.5806788648 0.0000000000 0.0000000000 0.0000000000 -75.3691158693 8.1531121359 -22.1077702441
8.3348661215 -22.5735657880 0.0000000000 0.0000000000 0.0000000000 -153.2704590974 8.1531121359 -22.1077702441
8.3539598486 -22.5656569073 0.0000000000 0.0000000000 0.0000000000 -233.9949891871 8.1531121359 -22.1077702441
8.3727104306 -22.5569657349 0.0000000000 0.0000000000 0.0000000000 -317.0820945254 8.1531121359 -22.1077702441
8.3910858327 -22.5475071195 0.0000000000 0.0000000000 0.0000000000 -402.1135979797 8.1531121359 -22.1077702441
8.4090546608 -22.5372972211 0.0000000000 0.0000000000 0.0000000000 -488.5591253617 8.1531121359 -22.1077702441
8.4265862153 -22.5263534830 0.0000000000 0.0000000000 0.0000000000 -576.1202854318 8.1531121359 -22.1077702441
8.4436505439 -22.5146946025 0.0000000000 0.0000000000 0.0000000000 -663.8919187479 8.1531121359 -22.1077702441
8.4602184925 -22.5023404986 0.0000000000 0.0000000000 0.0000000000 -752.4845767915 8.1531121359 -22.1077702441
8.4762617551 -22.4893122779 0.0000000000 0.0000000000 0.0000000000 -838.4284385902 8.1531121359 -22.1077702441
8.4917529220 -22.4756321992 0.0000000000 0.0000000000 0.0000000000 -928.9650148501 8.1531121359 -22.1077702441
8.7484748767 -22.5090559239 0.0000000000 0.7440593676 0.7573955509 -647.9026566262 8.1986859724 -21.9989263709
8.7640756371 -22.4807423583 0.0000000000 0.7028433327 0.7668795542 -697.8830415536 8.1955968444 -21.9915268002
8.7787853955 -22.4518655319 0.0000000000 0.6611704907 0.7728855304 -744.9376581332 8.1924117834 -21.9842481809
8.7925860571 -22.4225017325 0.0000000000 0.6194503845 0.7753295906 -788.5174060687 8.1891377219 -21.9771365937
8.8054630477 -22.3927318811 0.0000000000 0.5781165428 0.7741932793 -828.0962324889 8.1857839667 -21.9702418379
8.8174036379 -22.3626387691 0.0000000000 0.5376073121 0.7695389312 -863.2319045188 8.1823604882 -21.9636147121
8.8283961154 -22.3323054315 0.0000000000 0.4983459882 0.7615116986 -893.5902514311 8.1788770623 -21.9573054319
8.8384293761 -22.3018139824 0.0000000000 0.4607210278 0.7503349895 -918.9627954829 8.1753428308 -21.9513625116
8.8474927994 -22.2712447135 0.0000000000 0.4250686812 0.7362999258 -939.2749547204 8.1717661483 -21.9458319096
8.8555763342 -22.2406753642 0.0000000000 0.3916597780 0.7197501398 -954.5842963787 8.1681546421 -21.9407563463
8.8626707206 -22.2101805077 0.0000000000 0.3606917336 0.7010637085 -965.0696000190 8.1645154089 -21.9361747398
8.8687677652 -22.1798310232 0.0000000000 0.3322860627 0.6806342184 -971.0126192166 8.1608552673 -21.9321217272
8.8738605997 -22.1496936363 0.0000000000 0.3064909825 0.6588527989 -972.7750869787 8.1571809952 -21.9286272559
8.8779438828 -22.1198305211 0.0000000000 0.2832881755 0.6360925563 -970.7736628061 8.1534995130 -21.9257162377
8.8810139326 -22.0902989631 0.0000000000 0.2626025031 0.6126963112 -965.4552430567 8.1498179984 -21.9234082630
8.8830687924 -22.0611510798 0.0000000000 0.2443134046 0.5889680113 -957.2745178792 8.1461439374 -21.9217173748
8.8841082396 -22.0324335989 0.0000000000 0.2282668196 0.5651677496 -946.6750167918 8.1424851199 -21.9206518996
8.8841337452 -22.0041876911 0.0000000000 0.2142866871 0.5415099945 -934.0742625001 8.1388495877 -21.9202143344
8.8831483848 -21.9764488566 0.0000000000 0.2021853341 0.5181644445 -919.8531260431 8.1352455369 -21.9204012867
8.8811567025 -21.9492468627 0.0000000000 0.1917723336 0.4952588447 -904.3490842229 8.1316811739 -21.9212034673
8.8781645265 -21.9226057337 0.0000000000 0.1828616459 0.4728831174 -887.8528308369 8.1281645265 -21.9226057340
8.8741787410 -21.8965437920 0.0000000000 0.1752770515 0.4510942347 -870.6075742565 8.1247032124 -21.9245871880
8.8692070241 -21.8710737566 0.0000000000 0.1688560106 0.4299213750 -852.8103413135 8.1213041762 -21.9271213271
8.8632575657 -21.8462029063 0.0000000000 0.1634521657 0.4093710321 -834.6146721438 8.1179734083 -21.9301762636
8.8563387855 -21.8219333195 0.0000000000 0.1589367288 0.3894318634 -816.1342030537 8.1147156659 -21.9337150194
8.8484590690 -21.7982622100 0.0000000000 0.1551989860 0.3700791633 -797.4467675261 8.1115342141 -21.9376959156
8.8396265370 -21.7751823776 0.0000000000 0.1521461139 0.3512789228 -778.5987762056 8.1084306029 -21.9420730783
8.8298488545 -21.7526827963 0.0000000000 0.1497024553 0.3329914766 -759.6097473785 8.1054044849 -21.9467970804
8.8191330789 -21.7307493589 0.0000000000 0.1478083517 0.3151747589 -740.4769381192 8.1024534746 -21.9518157399
8.8074855331 -21.7093657869 0.0000000000 0.1464185932 0.2977871765 -721.1800671637 8.0995730354 -21.9570750836
8.7949116898 -21.6885147065 0.0000000000 0.1455005204 0.2807900898 -701.6861239813 8.0967563784 -21.9625204750
8.7814160445 -21.6681788725 0.0000000000 0.1450318152 0.2641498598 -681.9542305437 8.0939943526 -21.9680978909
8.7670019633 -21.6483425093 0.0000000000 0.1449980297 0.2478393941 -661.9404740954 8.0912753124 -21.9737553138
8.7516715023 -21.6289927280 0.0000000000 0.1453899388 0.2318391125 -641.6025760561 8.0885849572 -21.9794441994
8.7354252202 -21.6101209751 0.0000000000 0.1462008353 0.2161372633 -620.9042221137 8.0859061675 -21.9851209752
8.7182620469 -21.5917244784 0.0000000000 0.1474239253 0.2007295598 -599.8188709681 8.0832188976 -21.9907485359
8.7001793108 -21.5738076750 0.0000000000 0.1490499772 0.1856181696 -578.3328977966 8.0805002302 -21.9962977187
8.6811730019 -21.5563836353 0.0000000000 0.1510653240 0.1708101658 -556.4479989078 8.0777246672 -22.0017487745
8.6612381269 -21.5394755607 0.0000000000 0.1534501647 0.1563155608 -534.1828116893 8.0748645151 -22.0070929122
8.6403684482 -21.5231185744 0.0000000000 0.1561769561 0.1421445888 -511.5735696647 8.0718896559 -22.0123341329
8.6185531794 -21.5073617900 0.0000000000 0.1592086078 0.1283051162 -488.6719577811 8.0687642756 -22.0174913434
8.5711240437 -21.4749941831 0.0000000000 0.1672942462 0.1008098800 -439.1873593477 8.0631628651 -22.0267871161
8.5454327371 -21.4586122656 0.0000000000 0.1721841964 0.0873855415 -413.0977401710 8.0607083087 -22.0309253168
8.5187829443 -21.4431218696 0.0000000000 0.1771733895 0.0744175816 -387.3003162653 8.0581234099 -22.0349772517
8.4912580278 -21.4285420142 0.0000000000 0.1822574068 0.0617572987 -361.8769025118 8.0554504164 -22.0389285522
8.4629395377 -21.4148995592 0.0000000000 0.1872167705 0.0498979843 -336.8657522092 8.0527284192 -22.0427744179
8.4339098370 -21.4022239550 0.0000000000 0.1914314786 0.0405372475 -312.3206339259 8.0499960503 -22.0465144209
8.4042537560 -21.3905457285 0.0000000000 0.1947876250 0.0339925851 -288.4315690562 8.0472932113 -22.0501510419
8.3740590992 -21.3798956648 0.0000000000 0.1994245922 0.0247775743 -265.3920602382 8.0446616577 -22.0536889012
8.3434163648 -21.3703039741 0.0000000000 0.2089844256 0.0041164605 -243.1890786870 8.0421447964 -22.0571339691
8.3124179113 -21.3617994128 0.0000000000 0.2242920888 -0.0295741586 -221.8020129284 8.0397869335 -22.0604927289
8.2811567967 -21.3544084926 0.0000000000 0.2410702169 -0.0665836449 -201.3911517822 8.0376321949 -22.0637714239
8.2497254907 -21.3481548505 0.0000000000 0.2533377017 -0.0945426763 -182.0601286965 8.0357233226 -22.0669754624
8.2182146210 -21.3430587796 0.0000000000 0.2578429041 -0.1075494990 -163.7017625720 8.0341005058 -22.0701089791
8.1867118645 -21.3391368955 0.0000000000 0.2549811487 -0.1069407383 -146.1084766552 8.0328003580 -22.0731745295
8.1553010418 -21.3364019185 0.0000000000 0.2471323384 -0.0973581278 -129.0770107223 8.0318550993 -22.0761728961
8.1240614352 -21.3348625655 0.0000000000 0.2368021495 -0.0832907530 -112.4524520771 8.0312919619 -22.0791030003
8.0930673162 -21.3345235523 0.0000000000 0.2257016827 -0.0676983817 -96.1377813518 8.0311328073 -22.0819619220
8.0623876505 -21.3353857015 0.0000000000 0.2147390690 -0.0521598962 -80.0751862034 8.0313939200 -22.0847450203
8.0320859385 -21.3374461431 0.0000000000 0.2043293079 -0.0374291300 -64.2276879210 8.0320859387 -22.0874461431
8.0022201534 -21.3406985760 0.0000000000 0.1946280371 -0.0238219282 -48.5704596648 8.0332138842 -22.0900578948
7.9728427433 -21.3451335574 0.0000000000 0.1856528386 -0.0114195314 -33.0859697797 8.0347772526 -22.0925719272
7.9440006775 -21.3507387834 0.0000000000 0.1773485523 -0.0001810436 -17.7605970997 8.0367701512 -22.0949792182
7.9157355238 -21.3574993375 0.0000000000 0.1696273287 0.0099900103 -2.5824646173 8.0391814667 -22.0972703150
7.8880835525 -21.3653978989 0.0000000000 0.1623961027 0.0192062710 12.4598710153 8.0419950593 -22.0994355329
7.8610758672 -21.3744149203 0.0000000000 0.1555758725 0.0275749438 27.3782283213 8.0451899827 -22.1014651197
7.8347385649 -21.3845287961 0.0000000000 0.1491117542 0.0351893968 42.1852654396 8.0487407333 -22.1033494079
7.8090929270 -21.3957160501 0.0000000000 0.1429718411 0.0421307432 56.8946121589 8.0526175290 -22.1050789813
7.7841556460 -21.4079515662 0.0000000000 0.1371366176 0.0484751484 71.5207475797 8.0567866241 -22.1066448822
7.7599390937 -21.4212088770 0.0000000000 0.1315856620 0.0543003862 86.0787427204 8.0612106624 -22.1080388719
7.7364516370 -21.4354605129 0.0000000000 0.1262898282 0.0596846461 100.5837163809 8.0658490789 -22.1092537492
7.7136980129 -21.4506783976 0.0000000000 0.1212127510 0.0646961678 115.0498260768 8.0706585579 -22.1102837109
7.6916797740 -21.4668342642 0.0000000000 0.1163179131 0.0693841479 129.4896733135 8.0755935610 -22.1111247299
7.6703958171 -21.4839000596 0.0000000000 0.1115725960 0.0737889250 143.9160476500 8.0806069359 -22.1117749182
7.6498430057 -21.5018483035 0.0000000000 0.1069431010 0.0779766488 158.3459001687 8.0856506174 -22.1122348413
7.6300168902 -21.5206523735 0.0000000000 0.1023864719 0.0820692072 172.8009542799 8.0906764249 -22.1125077554
7.6109125268 -21.5402867066 0.0000000000 0.0978544440 0.0862132058 187.2969791146 8.0956369554 -22.1125997576
7.5925253933 -21.5607269504 0.0000000000 0.0933228052 0.0904568700 201.8232261349 8.1004865722 -22.1125198832
7.5578929026 -21.6039268584 0.0000000000 0.0845254551 0.0981715209 230.7694109887 8.1096858358 -22.1118880370
7.5416494083 -21.6266418591 0.0000000000 0.0805201114 0.1007785088 245.1478501931 8.1139624596 -22.1113662874
7.5261285134 -21.6500720767 0.0000000000 0.0767520844 0.1027348672 259.6050629895 8.1179838956 -22.1107316111
7.5113417555 -21.6741947750 0.0000000000 0.0727135176 0.1056928360 274.3608130569 8.1217282936 -22.1100023863
7.4973059199 -21.6989867299 0.0000000000 0.0674066631 0.1125422071 289.5319567863 8.1251807788 -22.1091978483
7.4840431130 -21.7244236695 0.0000000000 0.0597427053 0.1260193027 304.9043135413 8.1283335789 -22.1083374561
7.4715805216 -21.7504798367 0.0000000000 0.0494741514 0.1461796025 319.8909560844 8.1311858351 -22.1074403812
7.4599498447 -21.7771276398 0.0000000000 0.0383329567 0.1680041039 333.8484238465 8.1337430812 -22.1065250812
7.4491864381 -21.8043373936 0.0000000000 0.0305947249 0.1810677634 346.5935426343 8.1360164332 -22.1056089618
7.4393282528 -21.8320771523 0.0000000000 0.0322882524 0.1724711989 358.6151133070 8.1380215690 -22.1047081300
7.4304146657 -21.8603126338 0.0000000000 0.0490294849 0.1321582420 370.6408896608 8.1397775970 -22.1038372354
7.4224853056 -21.8890072187 0.0000000000 0.0835010769 0.0577910911 382.9144558587 8.1413059175 -22.1030093866
7.4155789682 -21.9181220110 0.0000000000 0.1340288712 -0.0437270992 394.9042983092 8.1426291677 -22.1022361260
7.4097326866 -21.9476159363 0.0000000000 0.1951127722 -0.1589750811 405.6993531674 8.1437703206 -22.1015274426
7.4049809981 -21.9774458621 0.0000000000 0.2595856064 -0.2732905577 414.6414494289 8.1447519757 -22.1008918045
7.4013554160 -22.0075667247 0.0000000000 0.3211648949 -0.3756175620 421.6236644304 8.1455958508 -22.1003361979
7.3988840919 -22.0379316543 0.0000000000 0.3761168071 -0.4606947277 426.9641117564 8.1463224617 -22.0998661631
7.3975916379 -22.0684920949 0.0000000000 0.4234991058 -0.5283616475 431.1429313726 8.1469509567 -22.0994858253
7.3974990681 -22.0991979183 0.0000000000 0.4643255511 -0.5813488276 434.6127422462 8.1474990681 -22.0991979180