 TITLE = "Tecplot data"
 VARIABLES = "X", "Y", "Z" "U", "V", "p", "dispX", "dispY"
 ZONE SOLUTIONTIME=19.900000, NODES=26114 , ELEMENTS=25916, DATAPACKING=POINT, ZONETYPE=FEQUADRILATERAL
0.3706044542 0.3545232947 0.0000000000 0.0000000000 0.0000000000 -220.7681829270 0.0170510637 0.0009699041
0.3706044545 -0.3525834863 0.0000000000 0.0000000000 0.0000000000 -214.3826510762 0.0170510637 0.0009699041
-0.3365023270 0.3545232945 0.0000000000 0.0000000000 0.0000000000 -79.2738581891 0.0170510637 0.0009699041
-0.3365023267 -0.3525834867 0.0000000000 0.0000000000 0.0000000000 -72.6302754595 0.0170510637 0.0009699041
0.5473536690 0.5312932896 0.0000000000 0.0634169620 0.0482362826 -214.0146732011 0.0170235831 0.0009632036
0.5472494278 -0.5293952255 0.0000000000 0.0592548962 -0.0432368280 -207.9834863973 0.0169193415 0.0009348600
-0.5133114659 0.5312841548 0.0000000000 0.8143602667 0.4859259812 84.8871107519 0.0170186201 0.0009540691
-0.5133320428 -0.5293244236 0.0000000000 0.8111209103 -0.4833576610 89.1115211689 0.0169980428 0.0010056626
1.0775186796 1.0615402797 0.0000000000 1.2001988877 0.1756277735 -218.0528015495 0.0168585079 0.0008801078
1.0769038898 -1.0598447083 0.0000000000 1.1919922296 -0.1834331007 -207.0119903750 0.0162437172 0.0008154628
-1.0438137181 1.0615340191 0.0000000000 0.9165368312 0.1859531056 94.7117215691 0.0168464540 0.0008738477
-1.0440057663 -1.0595068255 0.0000000000 0.9149953581 -0.1851679529 96.9007671470 0.0166544049 0.0011533469
4.2163122358 3.3002987544 0.0000000000 1.0830556235 -0.0620433215 -66.7217014587 0.0163122358 0.0002987544
4.2132688597 -3.3004992304 0.0000000000 1.0822082439 0.0646783056 -67.6644832755 0.0132688597 -0.0004992304
20.0000000000 4.7000000000 0.0000000000 0.9997989337 -0.0035167593 0.0050802230 0.0000000000 0.0000000000
20.0000000000 -4.7000000000 0.0000000000 0.9998305825 0.0035130176 0.0058512790 0.0000000000 0.0000000000
-10.0000000000 15.0000000000 0.0000000000 1.0000000000 0.0000000000 3.0158505699 0.0000000000 0.0000000000
20.0000000000 15.0000000000 0.0000000000 1.0010231493 0.0000000000 -0.0034577688 0.0000000000 0.0000000000
20.0000000000 -15.0000000000 0.0000000000 1.0010434294 0.0000000000 -0.0032672550 0.0000000000 0.0000000000
-10.0000000000 -15.0000000000 0.0000000000 1.0000000000 0.0000000000 3.4764512523 0.0000000000 0.0000000000
0.3835769998 -0.3391164646 0.0000000000 0.0000000000 0.0000000000 -212.6878173813 0.0170510637 0.0009699041
0.3960369255 -0.3251738013 0.0000000000 0.0000000000 0.0000000000 -211.4729916077 0.0170510637 0.0009699041
0.4079668051 -0.3107749966 0.0000000000 0.0000000000 0.0000000000 -210.2669265947 0.0170510637 0.0009699041
0.4193499538 -0.2959401885 0.0000000000 0.0000000000 0.0000000000 -209.2266868903 0.0170510637 0.0009699041
0.4301704510 -0.2806901247 0.0000000000 0.0000000000 0.0000000000 -208.2208306507 0.0170510637 0.0009699041
0.4404131635 -0.2650461339 0.0000000000 0.0000000000 0.0000000000 -207.2529743990 0.0170510637 0.0009699041
0.4500637657 -0.2490300957 0.0000000000 0.0000000000 0.0000000000 -206.2734568881 0.0170510637 0.0009699041
0.4591087606 -0.2326644098 0.0000000000 0.0000000000 0.0000000000 -205.2688487438 0.0170510637 0.0009699041
0.4675354978 -0.2159719652 0.0000000000 0.0000000000 0.0000000000 -204.2228673785 0.0170510637 0.0009699041
0.4753321917 -0.1989761078 0.0000000000 0.0000000000 0.0000000000 -203.1353453527 0.0170510637 0.0009699041
0.4824879381 -0.1817006079 0.0000000000 0.0000000000 0.0000000000 -202.0134898985 0.0170510637 0.0009699041
0.4889927289 -0.1641696267 0.0000000000 0.0000000000 0.0000000000 -200.8753071084 0.0170510637 0.0009699041
0.4948374667 -0.1464076829 0.0000000000 0.0000000000 0.0000000000 -199.7466678425 0.0170510637 0.0009699041
0.5000139769 -0.1284396182 0.0000000000 0.0000000000 0.0000000000 -198.6606921182 0.0170510637 0.0009699041
0.5045150198 -0.1102905627 0.0000000000 0.0000000000 0.0000000000 -197.6553283872 0.0170510637 0.0009699041
0.5083343004 -0.0919858993 0.0000000000 0.0000000000 0.0000000000 -196.7711235342 0.0170510637 0.0009699041
0.5114664768 -0.0735512288 0.0000000000 0.0000000000 0.0000000000 -196.0483475167 0.0170510637 0.0009699041
0.5139071687 -0.0550123338 0.0000000000 0.0000000000 0.0000000000 -195.5241100884 0.0170510637 0.0009699041
0.5156529623 -0.0363951425 0.0000000000 0.0000000000 0.0000000000 -195.2294784613 0.0170510637 0.0009699041
0.5167014161 -0.0177256929 0.0000000000 0.0000000000 0.0000000000 -195.1869724190 0.0170510637 0.0009699041
0.5170510637 0.0009699043 0.0000000000 0.0000000000 0.0000000000 -195.4086232631 0.0170510637 0.0009699041
0.5167014161 0.0196655014 0.0000000000 0.0000000000 0.0000000000 -195.8948448539 0.0170510637 0.0009699041
0.5156529623 0.0383349510 0.0000000000 0.0000000000 0.0000000000 -196.6341965019 0.0170510637 0.0009699041
0.5139071686 0.0569521423 0.0000000000 0.0000000000 0.0000000000 -197.6041341997 0.0170510637 0.0009699041
0.5114664768 0.0754910373 0.0000000000 0.0000000000 0.0000000000 -198.7725622411 0.0170510637 0.0009699041
0.5083343003 0.0939257078 0.0000000000 0.0000000000 0.0000000000 -200.1002293228 0.0170510637 0.0009699041
0.5045150197 0.1122303712 0.0000000000 0.0000000000 0.0000000000 -201.5433538010 0.0170510637 0.0009699041
0.5000139768 0.1303794268 0.0000000000 0.0000000000 0.0000000000 -203.0569088124 0.0170510637 0.0009699041
0.4948374665 0.1483474914 0.0000000000 0.0000000000 0.0000000000 -204.5970242559 0.0170510637 0.0009699041
0.4889927288 0.1661094352 0.0000000000 0.0000000000 0.0000000000 -206.1246036189 0.0170510637 0.0009699041
0.4824879380 0.1836404164 0.0000000000 0.0000000000 0.0000000000 -207.6057862661 0.0170510637 0.0009699041
0.4753321916 0.2009159163 0.0000000000 0.0000000000 0.0000000000 -209.0167981209 0.0170510637 0.0009699041
0.4675354976 0.2179117737 0.0000000000 0.0000000000 0.0000000000 -210.3394842058 0.0170510637 0.0009699041
0.4591087604 0.2346042183 0.0000000000 0.0000000000 0.0000000000 -211.5722340244 0.0170510637 0.0009699041
0.4500637655 0.2509699041 0.0000000000 0.0000000000 0.0000000000 -212.7122148661 0.0170510637 0.0009699041
0.4404131633 0.2669859424 0.0000000000 0.0000000000 0.0000000000 -213.7879160002 0.0170510637 0.0009699041
0.4301704508 0.2826299332 0.0000000000 0.0000000000 0.0000000000 -214.8010315771 0.0170510637 0.0009699041
0.4193499535 0.2978799969 0.0000000000 0.0000000000 0.0000000000 -215.8286269446 0.0170510637 0.0009699041
0.4079668049 0.3127148050 0.0000000000 0.0000000000 0.0000000000 -216.8385121808 0.0170510637 0.0009699041
0.3960369252 0.3271136098 0.0000000000 0.0000000000 0.0000000000 -218.0126838166 0.0170510637 0.0009699041
0.3835769996 0.3410562730 0.0000000000 0.0000000000 0.0000000000 -219.1629411007 0.0170510637 0.0009699041
0.3556918495 0.3688318594 0.0000000000 0.0000000000 0.0000000000 -222.4435593601 0.0170510637 0.0009699041
0.3402006826 0.3825119382 0.0000000000 0.0000000000 0.0000000000 -224.7508285437 0.0170510637 0.0009699041
0.3241574200 0.3955401588 0.0000000000 0.0000000000 0.0000000000 -227.2810866272 0.0170510637 0.0009699041
0.3075894713 0.4078942627 0.0000000000 0.0000000000 0.0000000000 -230.3383253054 0.0170510637 0.0009699041
0.2905251427 0.4195531432 0.0000000000 0.0000000000 0.0000000000 -233.8251552737 0.0170510637 0.0009699041
0.2729935882 0.4304968813 0.0000000000 0.0000000000 0.0000000000 -237.8792355613 0.0170510637 0.0009699041
0.2550247602 0.4407067797 0.0000000000 0.0000000000 0.0000000000 -242.5177619144 0.0170510637 0.0009699041
0.2366493581 0.4501653950 0.0000000000 0.0000000000 0.0000000000 -247.8392626639 0.0170510637 0.0009699041
0.2178987760 0.4588565674 0.0000000000 0.0000000000 0.0000000000 -253.9016866696 0.0170510637 0.0009699041
0.1988050489 0.4667654481 0.0000000000 0.0000000000 0.0000000000 -260.7783319464 0.0170510637 0.0009699041
0.1794007982 0.4738785249 0.0000000000 0.0000000000 0.0000000000 -268.5097252048 0.0170510637 0.0009699041
0.1597191757 0.4801836453 0.0000000000 0.0000000000 0.0000000000 -277.1146349597 0.0170510637 0.0009699041
0.1397938072 0.4856700371 0.0000000000 0.0000000000 0.0000000000 -286.5699956516 0.0170510637 0.0009699041
0.1196587347 0.4903283267 0.0000000000 0.0000000000 0.0000000000 -296.8105586599 0.0170510637 0.0009699041
0.0993483587 0.4941505558 0.0000000000 0.0000000000 0.0000000000 -307.7190343478 0.0170510637 0.0009699041
0.0788973792 0.4971301939 0.0000000000 0.0000000000 0.0000000000 -319.1232376882 0.0170510637 0.0009699041
0.0583407363 0.4992621506 0.0000000000 0.0000000000 0.0000000000 -330.7923978151 0.0170510637 0.0009699041
0.0377135507 0.5005427833 0.0000000000 0.0000000000 0.0000000000 -342.4386071868 0.0170510637 0.0009699041
0.0170510636 0.5009699041 0.0000000000 0.0000000000 0.0000000000 -353.7212675745 0.0170510637 0.0009699041
-0.0036114235 0.5005427833 0.0000000000 0.0000000000 0.0000000000 -364.2560290618 0.0170510637 0.0009699041
-0.0242386091 0.4992621506 0.0000000000 0.0000000000 0.0000000000 -373.6269729886 0.0170510637 0.0009699041
-0.0447952521 0.4971301939 0.0000000000 0.0000000000 0.0000000000 -381.4016265595 0.0170510637 0.0009699041
-0.0652462316 0.4941505557 0.0000000000 0.0000000000 0.0000000000 -387.1474757735 0.0170510637 0.0009699041
-0.0855566075 0.4903283267 0.0000000000 0.0000000000 0.0000000000 -390.4488669007 0.0170510637 0.0009699041
-0.1056916800 0.4856700370 0.0000000000 0.0000000000 0.0000000000 -390.9230476374 0.0170510637 0.0009699041
-0.1256170485 0.4801836453 0.0000000000 0.0000000000 0.0000000000 -388.2343720693 0.0170510637 0.0009699041
-0.1452986710 0.4738785249 0.0000000000 0.0000000000 0.0000000000 -382.1059213594 0.0170510637 0.0009699041
-0.1647029217 0.4667654480 0.0000000000 0.0000000000 0.0000000000 -372.3281300365 0.0170510637 0.0009699041
-0.1837966488 0.4588565673 0.0000000000 0.0000000000 0.0000000000 -358.7642982978 0.0170510637 0.0009699041
-0.2025472308 0.4501653949 0.0000000000 0.0000000000 0.0000000000 -341.3531288271 0.0170510637 0.0009699041
-0.2209226329 0.4407067796 0.0000000000 0.0000000000 0.0000000000 -320.1086051245 0.0170510637 0.0009699041
-0.2388914610 0.4304968812 0.0000000000 0.0000000000 0.0000000000 -295.1176347352 0.0170510637 0.0009699041
-0.2564230155 0.4195531431 0.0000000000 0.0000000000 0.0000000000 -266.5359162811 0.0170510637 0.0009699041
-0.2734873441 0.4078942626 0.0000000000 0.0000000000 0.0000000000 -234.5824720757 0.0170510637 0.0009699041
-0.2900552928 0.3955401587 0.0000000000 0.0000000000 0.0000000000 -199.5332364425 0.0170510637 0.0009699041
-0.3060985554 0.3825119381 0.0000000000 0.0000000000 0.0000000000 -161.7140243826 0.0170510637 0.0009699041
-0.3215897222 0.3688318593 0.0000000000 0.0000000000 0.0000000000 -121.4931428317 0.0170510637 0.0009699041
-0.3508108917 0.3396106898 0.0000000000 0.0000000000 0.0000000000 -35.4869007338 0.0170510637 0.0009699041
-0.3644909705 0.3241195229 0.0000000000 0.0000000000 0.0000000000 9.4168377768 0.0170510637 0.0009699041
-0.3775191911 0.3080762603 0.0000000000 0.0000000000 0.0000000000 54.9732829193 0.0170510637 0.0009699041
-0.3898732950 0.2915083116 0.0000000000 0.0000000000 0.0000000000 100.7117369295 0.0170510637 0.0009699041
-0.4015321755 0.2744439830 0.0000000000 0.0000000000 0.0000000000 146.1609649347 0.0170510637 0.0009699041
-0.4124759136 0.2569124285 0.0000000000 0.0000000000 0.0000000000 190.8547965644 0.0170510637 0.0009699041
-0.4226858120 0.2389436004 0.0000000000 0.0000000000 0.0000000000 234.3372636771 0.0170510637 0.0009699041
-0.4321444273 0.2205681983 0.0000000000 0.0000000000 0.0000000000 276.1673116818 0.0170510637 0.0009699041
-0.4408355997 0.2018176162 0.0000000000 0.0000000000 0.0000000000 315.9231236609 0.0170510637 0.0009699041
-0.4487444804 0.1827238892 0.0000000000 0.0000000000 0.0000000000 353.2060882144 0.0170510637 0.0009699041
-0.4558575572 0.1633196385 0.0000000000 0.0000000000 0.0000000000 387.6444298193 0.0170510637 0.0009699041
-0.4621626776 0.1436380160 0.0000000000 0.0000000000 0.0000000000 418.8965092651 0.0170510637 0.0009699041
-0.4676490693 0.1237126474 0.0000000000 0.0000000000 0.0000000000 446.6537937809 0.0170510637 0.0009699041
-0.4723073590 0.1035775750 0.0000000000 0.0000000000 0.0000000000 470.6434921941 0.0170510637 0.0009699041
-0.4761295880 0.0832671990 0.0000000000 0.0000000000 0.0000000000 490.6308491662 0.0170510637 0.0009699041
-0.4791092262 0.0628162195 0.0000000000 0.0000000000 0.0000000000 506.4210931656 0.0170510637 0.0009699041
-0.4812411828 0.0422595766 0.0000000000 0.0000000000 0.0000000000 517.8610343789 0.0170510637 0.0009699041
-0.4825218155 0.0216323910 0.0000000000 0.0000000000 0.0000000000 524.8403104817 0.0170510637 0.0009699041
-0.4829489363 0.0009699039 0.0000000000 0.0000000000 0.0000000000 527.2922796056 0.0170510637 0.0009699041
-0.4825218155 -0.0196925833 0.0000000000 0.0000000000 0.0000000000 525.1945606918 0.0170510637 0.0009699041
-0.4812411828 -0.0403197689 0.0000000000 0.0000000000 0.0000000000 518.5692216750 0.0170510637 0.0009699041
-0.4791092261 -0.0608764118 0.0000000000 0.0000000000 0.0000000000 507.4826156989 0.0170510637 0.0009699041
-0.4761295880 -0.0813273913 0.0000000000 0.0000000000 0.0000000000 492.0448650479 0.0170510637 0.0009699041
-0.4723073589 -0.1016377672 0.0000000000 0.0000000000 0.0000000000 472.4089919103 0.0170510637 0.0009699041
-0.4676490692 -0.1217728397 0.0000000000 0.0000000000 0.0000000000 448.7696947085 0.0170510637 0.0009699041
-0.4621626775 -0.1416982083 0.0000000000 0.0000000000 0.0000000000 421.3617686191 0.0170510637 0.0009699041
-0.4558575571 -0.1613798308 0.0000000000 0.0000000000 0.0000000000 390.4581690545 0.0170510637 0.0009699041
-0.4487444802 -0.1807840814 0.0000000000 0.0000000000 0.0000000000 356.3677171147 0.0170510637 0.0009699041
-0.4408355995 -0.1998778085 0.0000000000 0.0000000000 0.0000000000 319.4324461920 0.0170510637 0.0009699041
-0.4321444272 -0.2186283906 0.0000000000 0.0000000000 0.0000000000 280.0245887177 0.0170510637 0.0009699041
-0.4226858118 -0.2370037927 0.0000000000 0.0000000000 0.0000000000 238.5432015610 0.0170510637 0.0009699041
-0.4124759134 -0.2549726207 0.0000000000 0.0000000000 0.0000000000 195.4104274427 0.0170510637 0.0009699041
-0.4015321753 -0.2725041752 0.0000000000 0.0000000000 0.0000000000 151.0673887477 0.0170510637 0.0009699041
-0.3898732948 -0.2895685038 0.0000000000 0.0000000000 0.0000000000 105.9697083011 0.0170510637 0.0009699041
-0.3775191909 -0.3061364525 0.0000000000 0.0000000000 0.0000000000 60.5826518674 0.0170510637 0.0009699041
-0.3644909702 -0.3221797151 0.0000000000 0.0000000000 0.0000000000 15.3758855043 0.0170510637 0.0009699041
-0.3508108915 -0.3376708819 0.0000000000 0.0000000000 0.0000000000 -29.1821536376 0.0170510637 0.0009699041
-0.3215897219 -0.3668920515 0.0000000000 0.0000000000 0.0000000000 -114.5209274988 0.0170510637 0.0009699041
-0.3060985550 -0.3805721302 0.0000000000 0.0000000000 0.0000000000 -154.4269420165 0.0170510637 0.0009699041
-0.2900552924 -0.3936003508 0.0000000000 0.0000000000 0.0000000000 -191.9485820827 0.0170510637 0.0009699041
-0.2734873438 -0.4059544547 0.0000000000 0.0000000000 0.0000000000 -226.7208210874 0.0170510637 0.0009699041
-0.2564230151 -0.4176133352 0.0000000000 0.0000000000 0.0000000000 -258.4207302202 0.0170510637 0.0009699041
-0.2388914606 -0.4285570733 0.0000000000 0.0000000000 0.0000000000 -286.7748129243 0.0170510637 0.0009699041
-0.2209226326 -0.4387669717 0.0000000000 0.0000000000 0.0000000000 -311.5660555877 0.0170510637 0.0009699041
-0.2025472305 -0.4482255870 0.0000000000 0.0000000000 0.0000000000 -332.6404030597 0.0170510637 0.0009699041
-0.1837966484 -0.4569167594 0.0000000000 0.0000000000 0.0000000000 -349.9122959118 0.0170510637 0.0009699041
-0.1647029213 -0.4648256401 0.0000000000 0.0000000000 0.0000000000 -363.3688485744 0.0170510637 0.0009699041
-0.1452986706 -0.4719387169 0.0000000000 0.0000000000 0.0000000000 -373.0722064847 0.0170510637 0.0009699041
-0.1256170482 -0.4782438373 0.0000000000 0.0000000000 0.0000000000 -379.1596175557 0.0170510637 0.0009699041
-0.1056916796 -0.4837302290 0.0000000000 0.0000000000 0.0000000000 -381.8408013609 0.0170510637 0.0009699041
-0.0855566071 -0.4883885187 0.0000000000 0.0000000000 0.0000000000 -381.3923148013 0.0170510637 0.0009699041
-0.0652462312 -0.4922107477 0.0000000000 0.0000000000 0.0000000000 -378.1488005699 0.0170510637 0.0009699041
-0.0447952516 -0.4951903858 0.0000000000 0.0000000000 0.0000000000 -372.4912611117 0.0170510637 0.0009699041
-0.0242386087 -0.4973223425 0.0000000000 0.0000000000 0.0000000000 -364.8328014082 0.0170510637 0.0009699041
-0.0036114231 -0.4986029751 0.0000000000 0.0000000000 0.0000000000 -355.6025954033 0.0170510637 0.0009699041
0.0170510640 -0.4990300959 0.0000000000 0.0000000000 0.0000000000 -345.2290921671 0.0170510637 0.0009699041
0.0377135511 -0.4986029751 0.0000000000 0.0000000000 0.0000000000 -334.1236531993 0.0170510637 0.0009699041
0.0583407367 -0.4973223424 0.0000000000 0.0000000000 0.0000000000 -322.6658228742 0.0170510637 0.0009699041
0.0788973796 -0.4951903858 0.0000000000 0.0000000000 0.0000000000 -311.1913330319 0.0170510637 0.0009699041
0.0993483591 -0.4922107476 0.0000000000 0.0000000000 0.0000000000 -299.9836073818 0.0170510637 0.0009699041
0.1196587351 -0.4883885185 0.0000000000 0.0000000000 0.0000000000 -289.2692652263 0.0170510637 0.0009699041
0.1397938076 -0.4837302288 0.0000000000 0.0000000000 0.0000000000 -279.2174155336 0.0170510637 0.0009699041
0.1597191761 -0.4782438371 0.0000000000 0.0000000000 0.0000000000 -269.9424668271 0.0170510637 0.0009699041
0.1794007986 -0.4719387167 0.0000000000 0.0000000000 0.0000000000 -261.5087365483 0.0170510637 0.0009699041
0.1988050493 -0.4648256398 0.0000000000 0.0000000000 0.0000000000 -253.9369894116 0.0170510637 0.0009699041
0.2178987763 -0.4569167591 0.0000000000 0.0000000000 0.0000000000 -247.2097122229 0.0170510637 0.0009699041
0.2366493584 -0.4482255867 0.0000000000 0.0000000000 0.0000000000 -241.2810493233 0.0170510637 0.0009699041
0.2550247605 -0.4387669714 0.0000000000 0.0000000000 0.0000000000 -236.0807248986 0.0170510637 0.0009699041
0.2729935885 -0.4285570729 0.0000000000 0.0000000000 0.0000000000 -231.5355272817 0.0170510637 0.0009699041
0.2905251430 -0.4176133349 0.0000000000 0.0000000000 0.0000000000 -227.5566193087 0.0170510637 0.0009699041
0.3075894717 -0.4059544544 0.0000000000 0.0000000000 0.0000000000 -224.0968010558 0.0170510637 0.0009699041
0.3241574203 -0.3936003504 0.0000000000 0.0000000000 0.0000000000 -221.0496415016 0.0170510637 0.0009699041
0.3402006829 -0.3805721298 0.0000000000 0.0000000000 0.0000000000 -218.4734803355 0.0170510637 0.0009699041
0.3556918498 -0.3668920510 0.0000000000 0.0000000000 0.0000000000 -216.1032991696 0.0170510637 0.0009699041
0.5667151704 -0.5091965023 0.0000000000 0.0284030819 -0.0453999904 -207.3412671316 0.0169262662 0.0009330506
0.5854119343 -0.4882840572 0.0000000000 0.0061556167 -0.0488915885 -206.7416496231 0.0169331416 0.0009315009
0.6033135287 -0.4666871579 0.0000000000 -0.0090259363 -0.0533666361 -206.2383485786 0.0169399165 0.0009301931
0.6203948759 -0.4444360236 0.0000000000 -0.0188894303 -0.0584038461 -205.8325328449 0.0169465408 0.0009291152
0.6366320493 -0.4215617871 0.0000000000 -0.0251722710 -0.0635277670 -205.5116123348 0.0169529683 0.0009282560
0.6520023086 -0.3980964526 0.0000000000 -0.0294107048 -0.0682618629 -205.2532362468 0.0169591589 0.0009276044
0.6664841329 -0.3740728503 0.0000000000 -0.0328107364 -0.0721806148 -205.0306016000 0.0169650799 0.0009271493
0.6800572515 -0.3495245912 0.0000000000 -0.0362020517 -0.0749451987 -204.8175486673 0.0169707062 0.0009268796
0.6927026717 -0.3244860197 0.0000000000 -0.0400634869 -0.0763181312 -204.5922477949 0.0169760206 0.0009267843
0.7044027055 -0.2989921650 0.0000000000 -0.0445904245 -0.0761604748 -204.3395706050 0.0169810134 0.0009268528
0.7151409931 -0.2730786927 0.0000000000 -0.0497743049 -0.0744186208 -204.0524994835 0.0169856815 0.0009270752
0.7249025249 -0.2467818543 0.0000000000 -0.0554746195 -0.0711072382 -203.7327597801 0.0169900270 0.0009274418
0.7336736611 -0.2201384366 0.0000000000 -0.0614752189 -0.0662928462 -203.3906769593 0.0169940566 0.0009279438
0.7414421500 -0.1931857107 0.0000000000 -0.0675245860 -0.0600802402 -203.0442332595 0.0169977801 0.0009285728
0.7481971439 -0.1659613793 0.0000000000 -0.0733632560 -0.0526023518 -202.7173771240 0.0170012097 0.0009293208
0.7539292138 -0.1385035249 0.0000000000 -0.0787422145 -0.0440131610 -202.4377346787 0.0170043588 0.0009301801
0.7586303615 -0.1108505562 0.0000000000 -0.0834354351 -0.0344828506 -202.2339406113 0.0170072418 0.0009311431
0.7622940308 -0.0830411544 0.0000000000 -0.0872487095 -0.0241943361 -202.1328404950 0.0170098733 0.0009322023
0.7649151157 -0.0551142198 0.0000000000 -0.0900260472 -0.0133404550 -202.1568249094 0.0170122678 0.0009333500
0.7664899677 -0.0271088172 0.0000000000 -0.0916542983 -0.0021213332 -202.3215422509 0.0170144391 0.0009345781
0.7670164005 0.0009358787 0.0000000000 -0.0920662795 0.0092583180 -202.6342030010 0.0170164005 0.0009358784
0.7664936928 0.0289806380 0.0000000000 -0.0912424978 0.0205920333 -203.0926347331 0.0170181642 0.0009372420
0.7649225894 0.0569862302 0.0000000000 -0.0892114934 0.0316744921 -203.6851784624 0.0170197415 0.0009386597
0.7623053002 0.0849134793 0.0000000000 -0.0860488176 0.0423043636 -204.3914399314 0.0170211428 0.0009401220
0.7586454970 0.1127233186 0.0000000000 -0.0818746698 0.0522869780 -205.1838305884 0.0170223774 0.0009416188
0.7539483085 0.1403768453 0.0000000000 -0.0768502133 0.0614367665 -206.0297607381 0.0170234536 0.0009431397
0.7482203134 0.1678353750 0.0000000000 -0.0711725189 0.0695795294 -206.8942878448 0.0170243793 0.0009446743
0.7414695309 0.1950604961 0.0000000000 -0.0650679066 0.0765547692 -207.7429810834 0.0170251613 0.0009462120
0.7337054103 0.2220141233 0.0000000000 -0.0587831070 0.0822185386 -208.5447409817 0.0170258060 0.0009477422
0.7249388170 0.2486585513 0.0000000000 -0.0525730764 0.0864474556 -209.2743113193 0.0170263194 0.0009492547
0.7151820181 0.2749565079 0.0000000000 -0.0466834617 0.0891446779 -209.9142434467 0.0170267067 0.0009507394
0.7044486647 0.3008712055 0.0000000000 -0.0413246811 0.0902486043 -210.4561322420 0.0170269729 0.0009521871
0.6927537731 0.3263663935 0.0000000000 -0.0366337407 0.0897447983 -210.9010523356 0.0170271222 0.0009535890
0.6801137033 0.3514064089 0.0000000000 -0.0326201442 0.0876809503 -211.2592753923 0.0170271582 0.0009549376
0.6665461367 0.3759562262 0.0000000000 -0.0290952000 0.0841834501 -211.5494699478 0.0170270840 0.0009562261
0.6520700509 0.3999815063 0.0000000000 -0.0255914070 0.0794721849 -211.7975257562 0.0170269016 0.0009574488
0.6367056933 0.4234486450 0.0000000000 -0.0212903479 0.0738678272 -212.0348038395 0.0170266126 0.0009586013
0.6204745527 0.4463248192 0.0000000000 -0.0149890448 0.0677844076 -212.2951957572 0.0170262179 0.0009596799
0.6033993298 0.4685780333 0.0000000000 -0.0051367111 0.0617016785 -212.6104550690 0.0170257180 0.0009606819
0.5855039051 0.4901771632 0.0000000000 0.0100423867 0.0561185533 -213.0043373807 0.0170251129 0.0009616047
0.5668133057 0.5110919996 0.0000000000 0.0323548826 0.0514995164 -213.4841832135 0.0170244019 0.0009624462
0.5249838539 0.5527571736 0.0000000000 0.1096178944 0.0466544874 -214.7966964868 0.0170226752 0.0009642405
0.5017460582 0.5732781994 0.0000000000 0.1691618363 0.0475220703 -215.6156030580 0.0170216299 0.0009651482
0.4776799976 0.5928213215 0.0000000000 0.2421909350 0.0512193702 -216.5384302961 0.0170204632 0.0009659394
0.4528268001 0.6113531591 0.0000000000 0.3278284753 0.0581229234 -217.6139419027 0.0170191886 0.0009666211
0.4272289386 0.6288420571 0.0000000000 0.4239931190 0.0685361894 -218.9133076196 0.0170178201 0.0009671983
0.4009301588 0.6452581406 0.0000000000 0.5273456187 0.0825404525 -220.5092894524 0.0170163720 0.0009676747
0.3739754052 0.6605733666 0.0000000000 0.6335112295 0.0998686718 -222.4443811693 0.0170148605 0.0009680531
0.3464107444 0.6747615719 0.0000000000 0.7376240183 0.1198843521 -224.6979892993 0.0170133028 0.0009683354
0.3182832863 0.6877985181 0.0000000000 0.8350560656 0.1416810521 -227.1713844683 0.0170117179 0.0009685231
0.2896411036 0.6996619333 0.0000000000 0.9220940442 0.1642562413 -229.7019913118 0.0170101257 0.0009686172
0.2605331489 0.7103315502 0.0000000000 0.9963640790 0.1866917254 -232.0983226578 0.0170085471 0.0009686189
0.2310091712 0.7197891415 0.0000000000 1.0569287254 0.2082868352 -234.1753697540 0.0170070032 0.0009685296
0.2011196303 0.7280185509 0.0000000000 1.1041016693 0.2286197860 -235.7762476990 0.0170055151 0.0009683514
0.1709156101 0.7350057207 0.0000000000 1.1390942704 0.2475405477 -236.7778955009 0.0170041036 0.0009680867
0.1404487313 0.7407387164 0.0000000000 1.1636168782 0.2651159244 -237.0856372268 0.0170027887 0.0009677388
0.1097710625 0.7452077467 0.0000000000 1.1795276523 0.2815526947 -236.6225909529 0.0170015892 0.0009673119
0.0789350316 0.7484051804 0.0000000000 1.1885779025 0.2971209684 -235.3186117765 0.0170005226 0.0009668106
0.0479933356 0.7503255591 0.0000000000 1.1922638974 0.3120919468 -233.1017373521 0.0169996051 0.0009662403
0.0169988507 0.7509656069 0.0000000000 1.1917693410 0.3266958593 -229.8935096278 0.0169988509 0.0009656069
-0.0139954584 0.7503242355 0.0000000000 1.1879713901 0.3410994426 -225.6082305075 0.0169982724 0.0009649168
-0.0449366291 0.7484025465 0.0000000000 1.1814827629 0.3553987836 -220.1553311063 0.0169978801 0.0009641768
-0.0757717914 0.7452038292 0.0000000000 1.1727082136 0.3696223285 -213.4436621138 0.0169976822 0.0009633944
-0.1064482580 0.7407335552 0.0000000000 1.1619011714 0.3837394347 -205.3865568297 0.0169976849 0.0009625777
-0.1369136150 0.7349993693 0.0000000000 1.1492130258 0.3976710956 -195.9067970148 0.0169978918 0.0009617353
-0.1671158112 0.7280110764 0.0000000000 1.1347323140 0.4113007602 -184.9409503824 0.0169983043 0.0009608770
-0.1970032467 0.7197806250 0.0000000000 1.1185138998 0.4244841899 -172.4428367089 0.0169989216 0.0009600132
-0.2265248619 0.7103220868 0.0000000000 1.1005995812 0.4370579693 -158.3860752716 0.0169997402 0.0009591556
-0.2556302240 0.6996516325 0.0000000000 1.0810319637 0.4488466653 -142.7657740531 0.0170007541 0.0009583166
-0.2842696135 0.6877875046 0.0000000000 1.0598633341 0.4596687957 -125.5994654000 0.0170019551 0.0009575097
-0.3123941095 0.6747499855 0.0000000000 1.0371609633 0.4693418188 -106.9274000555 0.0170033323 0.0009567492
-0.3399556728 0.6605613632 0.0000000000 1.0130099248 0.4776863374 -86.8123017728 0.0170048722 0.0009560499
-0.3669072279 0.6452458926 0.0000000000 0.9875142098 0.4845296727 -65.3386701474 0.0170065591 0.0009554269
-0.3932027438 0.6288297538 0.0000000000 0.9607966857 0.4897089225 -42.6117057103 0.0170083749 0.0009548952
-0.4187973124 0.6113410071 0.0000000000 0.9329982689 0.4930735835 -18.7559205728 0.0170102993 0.0009544693
-0.4436472245 0.5928095445 0.0000000000 0.9042765641 0.4944877890 6.0865100421 0.0170123102 0.0009541626
-0.4677100449 0.5732670383 0.0000000000 0.8748041407 0.4938321986 31.7576059850 0.0170143837 0.0009539873
-0.4909446837 0.5527468866 0.0000000000 0.8447665645 0.4910055627 58.0856051133 0.0170164952 0.0009539537
-0.5347722050 0.5089155271 0.0000000000 0.7837903180 0.4785318571 111.9693244935 0.0170207281 0.0009543486
-0.5552902520 0.4856792154 0.0000000000 0.7532681274 0.4687826114 139.1323313347 0.0170227993 0.0009547872
-0.5748305730 0.4616149225 0.0000000000 0.7230091495 0.4566590757 166.1714080592 0.0170248092 0.0009553882
-0.5933598022 0.4367637624 0.0000000000 0.6932305862 0.4421636767 192.8793196531 0.0170267359 0.0009561510
-0.6108462989 0.4111681914 0.0000000000 0.6641491302 0.4253203727 219.0485841800 0.0170285599 0.0009570731
-0.6272602011 0.3848719359 0.0000000000 0.6359787700 0.4061743716 244.4736809068 0.0170302648 0.0009581493
-0.6425734767 0.3579199175 0.0000000000 0.6089286751 0.3847916449 268.9531829379 0.0170318368 0.0009593730
-0.6567599712 0.3303581770 0.0000000000 0.5832011790 0.3612582499 292.2917984806 0.0170332653 0.0009607356
-0.6697954527 0.3022337954 0.0000000000 0.5589898731 0.3356794749 314.3023076530 0.0170345424 0.0009622272
-0.6816576535 0.2735948144 0.0000000000 0.5364778247 0.3081788197 334.8073836731 0.0170356627 0.0009638367
-0.6923263086 0.2444901535 0.0000000000 0.5158359304 0.2788968254 353.6412885402 0.0170366228 0.0009655519
-0.7017831908 0.2149695277 0.0000000000 0.4972214164 0.2479897650 370.6514344805 0.0170374211 0.0009673598
-0.7100121425 0.1850833618 0.0000000000 0.4807764936 0.2156282070 385.6998036727 0.0170380571 0.0009692467
-0.7169991031 0.1548827047 0.0000000000 0.4666271665 0.1819954540 398.6642191602 0.0170385310 0.0009711983
-0.7227321340 0.1244191425 0.0000000000 0.4548821801 0.1472858659 409.4394579144 0.0170388436 0.0009732001
-0.7272014391 0.0937447101 0.0000000000 0.4456320761 0.1117030789 417.9381929091 0.0170389958 0.0009752370
-0.7303993814 0.0629118029 0.0000000000 0.4389483404 0.0754581536 424.0917494641 0.0170389884 0.0009772941
-0.7323204965 0.0319730867 0.0000000000 0.4348826518 0.0387676946 427.8506687435 0.0170388223 0.0009793563
-0.7329615021 0.0009814086 0.0000000000 0.4334662809 0.0018519797 429.1850867933 0.0170384979 0.0009814089
-0.7323213036 -0.0300102935 0.0000000000 0.4347097026 -0.0350668902 428.0849522282 0.0170380152 0.0009834375
-0.7304009957 -0.0609490814 0.0000000000 0.4386024506 -0.0717668221 424.5600953421 0.0170373740 0.0009854280
-0.7272038613 -0.0917821062 0.0000000000 0.4451132324 -0.1080275545 418.6401563998 0.0170365734 0.0009873675
-0.7227353654 -0.1224566993 0.0000000000 0.4541903185 -0.1436324940 410.3743743605 0.0170356121 0.0009892437
-0.7170031459 -0.1529204613 0.0000000000 0.4657621534 -0.1783705766 399.8312133437 0.0170344880 0.0009910457
-0.7100170009 -0.1831213521 0.0000000000 0.4797381280 -0.2120381423 387.0978063274 0.0170331985 0.0009927636
-0.7017888718 -0.2130077792 0.0000000000 0.4960094656 -0.2444407873 372.2792045212 0.0170317400 0.0009943893