 TITLE = "Tecplot data"
 VARIABLES = "X", "Y", "Z" "U", "V", "p", "dispX", "dispY"
 ZONE SOLUTIONTIME=149.900000, NODES=26114 , ELEMENTS=25916, DATAPACKING=POINT, ZONETYPE=FEQUADRILATERAL
2.8232384133 -8.7264368888 0.0000000000 0.0000000000 0.0000000000 -1588.1688524915 2.4696850227 -9.0799902794
2.8232384136 -9.4335436697 0.0000000000 0.0000000000 0.0000000000 -13981.8391282693 2.4696850227 -9.0799902794
2.1161316320 -8.7264368889 0.0000000000 0.0000000000 0.0000000000 3991.0152391537 2.4696850227 -9.0799902794
2.1161316323 -9.4335436702 0.0000000000 0.0000000000 0.0000000000 11211.1657041108 2.4696850227 -9.0799902794
2.9655853724 -8.5145324367 0.0000000000 0.2954154563 -0.2450353915 -1123.7850894666 2.4352552866 -9.0448625227
3.0265049525 -9.5671463037 0.0000000000 1.5157804496 0.8256385738 -7038.5899599677 2.4961748662 -9.0368162182
1.9214137632 -8.5507031391 0.0000000000 0.1822344653 0.4168263328 3925.6901575186 2.4517438492 -9.0810332248
1.9445110406 -9.6114573516 0.0000000000 1.8916373489 -1.3392350876 7232.8504349924 2.4748411262 -9.0811272655
3.3051261651 -7.7562146500 0.0000000000 0.5707012927 -0.3970750114 -25.1203216480 2.2444659934 -8.8168748219
3.6824229756 -9.8481519562 0.0000000000 1.3514610667 0.0864189382 -2379.2364021850 2.6217628031 -8.7874917851
1.3031354832 -8.0095439951 0.0000000000 0.6564338530 -0.5312643553 3158.3029768128 2.3637956553 -9.0702041666
1.4526890487 -10.1337476325 0.0000000000 1.5119245866 -0.6526657405 3921.7878725156 2.5133492200 -9.0730874601
5.5367141674 -4.1553324625 0.0000000000 0.5311214448 -0.1264378454 719.4912060752 1.3367141674 -7.4553324625
7.4322619558 -10.7035423478 0.0000000000 1.6163838286 -0.1398800225 -86.5404474935 3.2322619558 -7.4035423478
20.0000000000 4.7000000000 0.0000000000 0.9483214212 0.3472612963 -1.8472993776 0.0000000000 0.0000000000
20.0000000000 -4.7000000000 0.0000000000 0.5794811145 -0.0050353763 -6.5273718805 0.0000000000 0.0000000000
-10.0000000000 15.0000000000 0.0000000000 1.0000000000 0.0000000000 1456.8581154948 0.0000000000 0.0000000000
20.0000000000 15.0000000000 0.0000000000 1.8293961446 0.0000000000 0.3342809178 0.0000000000 0.0000000000
20.0000000000 -15.0000000000 0.0000000000 1.7799167581 0.0000000000 -0.1557670838 0.0000000000 0.0000000000
-10.0000000000 -15.0000000000 0.0000000000 1.0000000000 0.0000000000 2150.2079906461 0.0000000000 0.0000000000
2.8362109589 -9.4200766480 0.0000000000 0.0000000000 0.0000000000 -14075.5250777453 2.4696850227 -9.0799902794
2.8486708845 -9.4061339848 0.0000000000 0.0000000000 0.0000000000 -14048.1584183562 2.4696850227 -9.0799902794
2.8606007642 -9.3917351800 0.0000000000 0.0000000000 0.0000000000 -14019.9614114329 2.4696850227 -9.0799902794
2.8719839128 -9.3769003719 0.0000000000 0.0000000000 0.0000000000 -13921.9379946589 2.4696850227 -9.0799902794
2.8828044101 -9.3616503081 0.0000000000 0.0000000000 0.0000000000 -13793.9444982019 2.4696850227 -9.0799902794
2.8930471225 -9.3460063174 0.0000000000 0.0000000000 0.0000000000 -13616.5362471115 2.4696850227 -9.0799902794
2.9026977248 -9.3299902791 0.0000000000 0.0000000000 0.0000000000 -13403.7726699306 2.4696850227 -9.0799902794
2.9117427196 -9.3136245933 0.0000000000 0.0000000000 0.0000000000 -13150.9785783887 2.4696850227 -9.0799902794
2.9201694568 -9.2969321487 0.0000000000 0.0000000000 0.0000000000 -12864.6893775919 2.4696850227 -9.0799902794
2.9279661508 -9.2799362913 0.0000000000 0.0000000000 0.0000000000 -12545.0898924889 2.4696850227 -9.0799902794
2.9351218971 -9.2626607913 0.0000000000 0.0000000000 0.0000000000 -12196.3934105953 2.4696850227 -9.0799902794
2.9416266880 -9.2451298101 0.0000000000 0.0000000000 0.0000000000 -11820.5810261625 2.4696850227 -9.0799902794
2.9474714257 -9.2273678663 0.0000000000 0.0000000000 0.0000000000 -11421.1585960898 2.4696850227 -9.0799902794
2.9526479359 -9.2093998017 0.0000000000 0.0000000000 0.0000000000 -11000.8332265204 2.4696850227 -9.0799902794
2.9571489789 -9.1912507461 0.0000000000 0.0000000000 0.0000000000 -10562.9141597859 2.4696850227 -9.0799902794
2.9609682594 -9.1729460827 0.0000000000 0.0000000000 0.0000000000 -10110.4185876321 2.4696850227 -9.0799902794
2.9641004359 -9.1545114122 0.0000000000 0.0000000000 0.0000000000 -9646.6066333026 2.4696850227 -9.0799902794
2.9665411277 -9.1359725172 0.0000000000 0.0000000000 0.0000000000 -9174.6260649574 2.4696850227 -9.0799902794
2.9682869213 -9.1173553260 0.0000000000 0.0000000000 0.0000000000 -8697.7238705298 2.4696850227 -9.0799902794
2.9693353751 -9.0986858763 0.0000000000 0.0000000000 0.0000000000 -8219.1059984178 2.4696850227 -9.0799902794
2.9696850227 -9.0799902792 0.0000000000 0.0000000000 0.0000000000 -7742.0312418263 2.4696850227 -9.0799902794
2.9693353751 -9.0612946820 0.0000000000 0.0000000000 0.0000000000 -7269.7645593129 2.4696850227 -9.0799902794
2.9682869213 -9.0426252324 0.0000000000 0.0000000000 0.0000000000 -6805.6279439777 2.4696850227 -9.0799902794
2.9665411276 -9.0240080412 0.0000000000 0.0000000000 0.0000000000 -6352.9845963246 2.4696850227 -9.0799902794
2.9641004358 -9.0054691461 0.0000000000 0.0000000000 0.0000000000 -5915.2417823122 2.4696850227 -9.0799902794
2.9609682593 -8.9870344756 0.0000000000 0.0000000000 0.0000000000 -5495.7810283614 2.4696850227 -9.0799902794
2.9571489788 -8.9687298122 0.0000000000 0.0000000000 0.0000000000 -5097.8266554171 2.4696850227 -9.0799902794
2.9526479358 -8.9505807567 0.0000000000 0.0000000000 0.0000000000 -4724.2027462515 2.4696850227 -9.0799902794
2.9474714256 -8.9326126920 0.0000000000 0.0000000000 0.0000000000 -4376.9986120764 2.4696850227 -9.0799902794
2.9416266878 -8.9148507483 0.0000000000 0.0000000000 0.0000000000 -4057.2040792382 2.4696850227 -9.0799902794
2.9351218970 -8.8973197671 0.0000000000 0.0000000000 0.0000000000 -3764.4310348499 2.4696850227 -9.0799902794
2.9279661506 -8.8800442671 0.0000000000 0.0000000000 0.0000000000 -3496.8856417911 2.4696850227 -9.0799902794
2.9201694566 -8.8630484097 0.0000000000 0.0000000000 0.0000000000 -3251.6442511908 2.4696850227 -9.0799902794
2.9117427194 -8.8463559651 0.0000000000 0.0000000000 0.0000000000 -3025.2031357696 2.4696850227 -9.0799902794
2.9026977246 -8.8299902793 0.0000000000 0.0000000000 0.0000000000 -2814.1053743774 2.4696850227 -9.0799902794
2.8930471223 -8.8139742410 0.0000000000 0.0000000000 0.0000000000 -2615.3437426548 2.4696850227 -9.0799902794
2.8828044098 -8.7983302503 0.0000000000 0.0000000000 0.0000000000 -2426.7031405668 2.4696850227 -9.0799902794
2.8719839126 -8.7830801865 0.0000000000 0.0000000000 0.0000000000 -2246.3475691027 2.4696850227 -9.0799902794
2.8606007639 -8.7682453784 0.0000000000 0.0000000000 0.0000000000 -2073.3941776072 2.4696850227 -9.0799902794
2.8486708843 -8.7538465737 0.0000000000 0.0000000000 0.0000000000 -1906.3060270516 2.4696850227 -9.0799902794
2.8362109586 -8.7399039105 0.0000000000 0.0000000000 0.0000000000 -1745.4139548530 2.4696850227 -9.0799902794
2.8083258085 -8.7121283240 0.0000000000 0.0000000000 0.0000000000 -1421.0762910131 2.4696850227 -9.0799902794
2.7928346416 -8.6984482452 0.0000000000 0.0000000000 0.0000000000 -1257.3708653280 2.4696850227 -9.0799902794
2.7767913790 -8.6854200246 0.0000000000 0.0000000000 0.0000000000 -1098.4842860823 2.4696850227 -9.0799902794
2.7602234304 -8.6730659207 0.0000000000 0.0000000000 0.0000000000 -942.5899890267 2.4696850227 -9.0799902794
2.7431591017 -8.6614070402 0.0000000000 0.0000000000 0.0000000000 -790.1352519446 2.4696850227 -9.0799902794
2.7256275472 -8.6504633022 0.0000000000 0.0000000000 0.0000000000 -640.1288930967 2.4696850227 -9.0799902794
2.7076587192 -8.6402534037 0.0000000000 0.0000000000 0.0000000000 -492.6214027452 2.4696850227 -9.0799902794
2.6892833171 -8.6307947884 0.0000000000 0.0000000000 0.0000000000 -347.0385084743 2.4696850227 -9.0799902794
2.6705327350 -8.6221036160 0.0000000000 0.0000000000 0.0000000000 -203.2743070037 2.4696850227 -9.0799902794
2.6514390079 -8.6141947353 0.0000000000 0.0000000000 0.0000000000 -60.9625165527 2.4696850227 -9.0799902794
2.6320347572 -8.6070816585 0.0000000000 0.0000000000 0.0000000000 80.0548568647 2.4696850227 -9.0799902794
2.6123531348 -8.6007765381 0.0000000000 0.0000000000 0.0000000000 220.0377327898 2.4696850227 -9.0799902794
2.5924277662 -8.5952901464 0.0000000000 0.0000000000 0.0000000000 359.1530711380 2.4696850227 -9.0799902794
2.5722926937 -8.5906318567 0.0000000000 0.0000000000 0.0000000000 497.6035589631 2.4696850227 -9.0799902794
2.5519823178 -8.5868096277 0.0000000000 0.0000000000 0.0000000000 635.5494201909 2.4696850227 -9.0799902794
2.5315313383 -8.5838299895 0.0000000000 0.0000000000 0.0000000000 773.1605753574 2.4696850227 -9.0799902794
2.5109746954 -8.5816980329 0.0000000000 0.0000000000 0.0000000000 910.5866862176 2.4696850227 -9.0799902794
2.4903475097 -8.5804174002 0.0000000000 0.0000000000 0.0000000000 1047.9779345617 2.4696850227 -9.0799902794
2.4696850226 -8.5799902794 0.0000000000 0.0000000000 0.0000000000 1185.4742940846 2.4696850227 -9.0799902794
2.4490225355 -8.5804174002 0.0000000000 0.0000000000 0.0000000000 1323.2137829656 2.4696850227 -9.0799902794
2.4283953499 -8.5816980329 0.0000000000 0.0000000000 0.0000000000 1461.3290649963 2.4696850227 -9.0799902794
2.4078387070 -8.5838299895 0.0000000000 0.0000000000 0.0000000000 1599.9508272917 2.4696850227 -9.0799902794
2.3873877275 -8.5868096277 0.0000000000 0.0000000000 0.0000000000 1739.2070151129 2.4696850227 -9.0799902794
2.3670773515 -8.5906318567 0.0000000000 0.0000000000 0.0000000000 1879.2243487455 2.4696850227 -9.0799902794
2.3469422790 -8.5952901464 0.0000000000 0.0000000000 0.0000000000 2020.1284232060 2.4696850227 -9.0799902794
2.3270169105 -8.6007765382 0.0000000000 0.0000000000 0.0000000000 2162.0445165546 2.4696850227 -9.0799902794
2.3073352880 -8.6070816586 0.0000000000 0.0000000000 0.0000000000 2305.0979275904 2.4696850227 -9.0799902794
2.2879310373 -8.6141947354 0.0000000000 0.0000000000 0.0000000000 2449.4145060892 2.4696850227 -9.0799902794
2.2688373103 -8.6221036161 0.0000000000 0.0000000000 0.0000000000 2595.1210290228 2.4696850227 -9.0799902794
2.2500867282 -8.6307947885 0.0000000000 0.0000000000 0.0000000000 2742.3456217043 2.4696850227 -9.0799902794
2.2317113261 -8.6402534038 0.0000000000 0.0000000000 0.0000000000 2891.2181449038 2.4696850227 -9.0799902794
2.2137424981 -8.6504633023 0.0000000000 0.0000000000 0.0000000000 3041.8706308752 2.4696850227 -9.0799902794
2.1962109435 -8.6614070403 0.0000000000 0.0000000000 0.0000000000 3194.4378050915 2.4696850227 -9.0799902794
2.1791466149 -8.6730659208 0.0000000000 0.0000000000 0.0000000000 3349.0577993376 2.4696850227 -9.0799902794
2.1625786663 -8.6854200248 0.0000000000 0.0000000000 0.0000000000 3505.8731652128 2.4696850227 -9.0799902794
2.1465354037 -8.6984482454 0.0000000000 0.0000000000 0.0000000000 3665.0322763301 2.4696850227 -9.0799902794
2.1310442368 -8.7121283241 0.0000000000 0.0000000000 0.0000000000 3826.6911071162 2.4696850227 -9.0799902794
2.1018230673 -8.7413494937 0.0000000000 0.0000000000 0.0000000000 4158.1818416645 2.4696850227 -9.0799902794
2.0881429885 -8.7568406606 0.0000000000 0.0000000000 0.0000000000 4328.3813993178 2.4696850227 -9.0799902794
2.0751147679 -8.7728839232 0.0000000000 0.0000000000 0.0000000000 4501.8192220242 2.4696850227 -9.0799902794
2.0627606640 -8.7894518718 0.0000000000 0.0000000000 0.0000000000 4678.7172064959 2.4696850227 -9.0799902794
2.0511017835 -8.8065162005 0.0000000000 0.0000000000 0.0000000000 4859.3166879836 2.4696850227 -9.0799902794
2.0401580455 -8.8240477550 0.0000000000 0.0000000000 0.0000000000 5043.8833863283 2.4696850227 -9.0799902794
2.0299481470 -8.8420165830 0.0000000000 0.0000000000 0.0000000000 5232.7149131607 2.4696850227 -9.0799902794
2.0204895317 -8.8603919851 0.0000000000 0.0000000000 0.0000000000 5426.1507334751 2.4696850227 -9.0799902794
2.0117983593 -8.8791425672 0.0000000000 0.0000000000 0.0000000000 5624.5839352779 2.4696850227 -9.0799902794
2.0038894786 -8.8982362943 0.0000000000 0.0000000000 0.0000000000 5828.4753993284 2.4696850227 -9.0799902794
1.9967764018 -8.9176405450 0.0000000000 0.0000000000 0.0000000000 6038.3746723813 2.4696850227 -9.0799902794
1.9904712814 -8.9373221674 0.0000000000 0.0000000000 0.0000000000 6254.9590349688 2.4696850227 -9.0799902794
1.9849848897 -8.9572475360 0.0000000000 0.0000000000 0.0000000000 6479.1131890967 2.4696850227 -9.0799902794
1.9803266000 -8.9773826085 0.0000000000 0.0000000000 0.0000000000 6712.0859380980 2.4696850227 -9.0799902794
1.9765043710 -8.9976929844 0.0000000000 0.0000000000 0.0000000000 6955.7667453661 2.4696850227 -9.0799902794
1.9735247328 -9.0181439639 0.0000000000 0.0000000000 0.0000000000 7213.0748991244 2.4696850227 -9.0799902794
1.9713927762 -9.0387006068 0.0000000000 0.0000000000 0.0000000000 7488.2734018580 2.4696850227 -9.0799902794
1.9701121435 -9.0593277925 0.0000000000 0.0000000000 0.0000000000 7786.7501535542 2.4696850227 -9.0799902794
1.9696850227 -9.0799902796 0.0000000000 0.0000000000 0.0000000000 8113.7806180457 2.4696850227 -9.0799902794
1.9701121435 -9.1006527667 0.0000000000 0.0000000000 0.0000000000 8472.3671094423 2.4696850227 -9.0799902794
1.9713927762 -9.1212799523 0.0000000000 0.0000000000 0.0000000000 8861.1292424930 2.4696850227 -9.0799902794
1.9735247329 -9.1418365952 0.0000000000 0.0000000000 0.0000000000 9273.4432387209 2.4696850227 -9.0799902794
1.9765043711 -9.1622875747 0.0000000000 0.0000000000 0.0000000000 9698.2462924638 2.4696850227 -9.0799902794
1.9803266001 -9.1825979507 0.0000000000 0.0000000000 0.0000000000 10121.9378970368 2.4696850227 -9.0799902794
1.9849848898 -9.2027330232 0.0000000000 0.0000000000 0.0000000000 10530.4660624822 2.4696850227 -9.0799902794
1.9904712816 -9.2226583917 0.0000000000 0.0000000000 0.0000000000 10910.9557039412 2.4696850227 -9.0799902794
1.9967764019 -9.2423400142 0.0000000000 0.0000000000 0.0000000000 11252.6478465421 2.4696850227 -9.0799902794
2.0038894788 -9.2617442649 0.0000000000 0.0000000000 0.0000000000 11547.2017434378 2.4696850227 -9.0799902794
2.0117983595 -9.2808379919 0.0000000000 0.0000000000 0.0000000000 11788.5463187370 2.4696850227 -9.0799902794
2.0204895319 -9.2995885740 0.0000000000 0.0000000000 0.0000000000 11972.4959786319 2.4696850227 -9.0799902794
2.0299481472 -9.3179639761 0.0000000000 0.0000000000 0.0000000000 12096.3072183387 2.4696850227 -9.0799902794
2.0401580457 -9.3359328041 0.0000000000 0.0000000000 0.0000000000 12158.2847196643 2.4696850227 -9.0799902794
2.0511017837 -9.3534643586 0.0000000000 0.0000000000 0.0000000000 12157.4816962168 2.4696850227 -9.0799902794
2.0627606642 -9.3705286873 0.0000000000 0.0000000000 0.0000000000 12093.4966120484 2.4696850227 -9.0799902794
2.0751147682 -9.3870966359 0.0000000000 0.0000000000 0.0000000000 11966.3479925117 2.4696850227 -9.0799902794
2.0881429888 -9.4031398985 0.0000000000 0.0000000000 0.0000000000 11776.4043804958 2.4696850227 -9.0799902794
2.1018230676 -9.4186310654 0.0000000000 0.0000000000 0.0000000000 11524.3491866630 2.4696850227 -9.0799902794
2.1310442371 -9.4478522349 0.0000000000 0.0000000000 0.0000000000 10838.1321605578 2.4696850227 -9.0799902794
2.1465354040 -9.4615323137 0.0000000000 0.0000000000 0.0000000000 10406.8213168810 2.4696850227 -9.0799902794
2.1625786666 -9.4745605342 0.0000000000 0.0000000000 0.0000000000 9919.1002091659 2.4696850227 -9.0799902794
2.1791466152 -9.4869146382 0.0000000000 0.0000000000 0.0000000000 9377.1298284379 2.4696850227 -9.0799902794
2.1962109439 -9.4985735187 0.0000000000 0.0000000000 0.0000000000 8783.3625739586 2.4696850227 -9.0799902794
2.2137424984 -9.5095172567 0.0000000000 0.0000000000 0.0000000000 8140.5386247660 2.4696850227 -9.0799902794
2.2317113264 -9.5197271551 0.0000000000 0.0000000000 0.0000000000 7451.6811188189 2.4696850227 -9.0799902794
2.2500867285 -9.5291857705 0.0000000000 0.0000000000 0.0000000000 6720.0900838117 2.4696850227 -9.0799902794
2.2688373107 -9.5378769428 0.0000000000 0.0000000000 0.0000000000 5949.3363404520 2.4696850227 -9.0799902794
2.2879310377 -9.5457858235 0.0000000000 0.0000000000 0.0000000000 5143.2513224568 2.4696850227 -9.0799902794
2.3073352884 -9.5528989003 0.0000000000 0.0000000000 0.0000000000 4305.9127270686 2.4696850227 -9.0799902794
2.3270169109 -9.5592040207 0.0000000000 0.0000000000 0.0000000000 3441.6115899787 2.4696850227 -9.0799902794
2.3469422794 -9.5646904124 0.0000000000 0.0000000000 0.0000000000 2554.8004287391 2.4696850227 -9.0799902794
2.3670773519 -9.5693487021 0.0000000000 0.0000000000 0.0000000000 1649.9989724216 2.4696850227 -9.0799902794
2.3873877279 -9.5731709311 0.0000000000 0.0000000000 0.0000000000 731.7876797302 2.4696850227 -9.0799902794
2.4078387074 -9.5761505693 0.0000000000 0.0000000000 0.0000000000 -195.1215092443 2.4696850227 -9.0799902794
2.4283953503 -9.5782825259 0.0000000000 0.0000000000 0.0000000000 -1125.8668395683 2.4696850227 -9.0799902794
2.4490225359 -9.5795631586 0.0000000000 0.0000000000 0.0000000000 -2055.4960724017 2.4696850227 -9.0799902794
2.4696850230 -9.5799902794 0.0000000000 0.0000000000 0.0000000000 -2979.0625139224 2.4696850227 -9.0799902794
2.4903475102 -9.5795631586 0.0000000000 0.0000000000 0.0000000000 -3891.7115551608 2.4696850227 -9.0799902794
2.5109746958 -9.5782825259 0.0000000000 0.0000000000 0.0000000000 -4788.7327819399 2.4696850227 -9.0799902794
2.5315313387 -9.5761505692 0.0000000000 0.0000000000 0.0000000000 -5665.5680143498 2.4696850227 -9.0799902794
2.5519823182 -9.5731709310 0.0000000000 0.0000000000 0.0000000000 -6517.7937398417 2.4696850227 -9.0799902794
2.5722926941 -9.5693487020 0.0000000000 0.0000000000 0.0000000000 -7341.1018284600 2.4696850227 -9.0799902794
2.5924277666 -9.5646904123 0.0000000000 0.0000000000 0.0000000000 -8131.3156767529 2.4696850227 -9.0799902794
2.6123531352 -9.5592040205 0.0000000000 0.0000000000 0.0000000000 -8884.4392522289 2.4696850227 -9.0799902794
2.6320347576 -9.5528989001 0.0000000000 0.0000000000 0.0000000000 -9596.7188114576 2.4696850227 -9.0799902794
2.6514390083 -9.5457858233 0.0000000000 0.0000000000 0.0000000000 -10264.7537940185 2.4696850227 -9.0799902794
2.6705327354 -9.5378769426 0.0000000000 0.0000000000 0.0000000000 -10885.3925498874 2.4696850227 -9.0799902794
2.6892833174 -9.5291857702 0.0000000000 0.0000000000 0.0000000000 -11456.1223803979 2.4696850227 -9.0799902794
2.7076587195 -9.5197271548 0.0000000000 0.0000000000 0.0000000000 -11974.1325364348 2.4696850227 -9.0799902794
2.7256275476 -9.5095172564 0.0000000000 0.0000000000 0.0000000000 -12438.3364472756 2.4696850227 -9.0799902794
2.7431591021 -9.4985735183 0.0000000000 0.0000000000 0.0000000000 -12845.1308124627 2.4696850227 -9.0799902794
2.7602234307 -9.4869146378 0.0000000000 0.0000000000 0.0000000000 -13196.5129266724 2.4696850227 -9.0799902794
2.7767913793 -9.4745605339 0.0000000000 0.0000000000 0.0000000000 -13485.7437322785 2.4696850227 -9.0799902794
2.7928346419 -9.4615323133 0.0000000000 0.0000000000 0.0000000000 -13719.6340898173 2.4696850227 -9.0799902794
2.8083258088 -9.4478522345 0.0000000000 0.0000000000 0.0000000000 -13892.3276211596 2.4696850227 -9.0799902794
3.0443915145 -9.5437964898 0.0000000000 1.4482057152 0.8309857832 -7108.5170449993 2.4946026102 -9.0336669369
3.0614723750 -9.5197815298 0.0000000000 1.3806249335 0.8321559404 -7153.3175713288 2.4929935823 -9.0305659718
3.0777240491 -9.4951439823 0.0000000000 1.3133526133 0.8289817088 -7170.8333184218 2.4913504369 -9.0275266313
3.0931268777 -9.4699322670 0.0000000000 1.2468111888 0.8215879257 -7162.0272991632 2.4896785426 -9.0245671282
3.1076631091 -9.4441972850 0.0000000000 1.1813975053 0.8100701348 -7127.2592922622 2.4879840281 -9.0217072418
3.1213161386 -9.4179912215 0.0000000000 1.1175053342 0.7946032564 -7067.5101437992 2.4862729889 -9.0189671645
3.1340701296 -9.3913668467 0.0000000000 1.0555058259 0.7754093328 -6984.0170983723 2.4845510765 -9.0163668471
3.1459098336 -9.3643770171 0.0000000000 0.9957384703 0.7527636579 -6878.3646511287 2.4828232883 -9.0139255463
3.1568205538 -9.3370742880 0.0000000000 0.9385008062 0.7269854154 -6752.4136926524 2.4810939027 -9.0116614841
3.1667882199 -9.3095105957 0.0000000000 0.8840405735 0.6984294854 -6608.2565610858 2.4793665279 -9.0095915778
3.1757995360 -9.2817369851 0.0000000000 0.8325502534 0.6674755711 -6448.1497634098 2.4776442244 -9.0077312172
3.1838421609 -9.2538033681 0.0000000000 0.7841643562 0.6345167942 -6274.4444638724 2.4759296631 -9.0060940721
3.1909048841 -9.2257583062 0.0000000000 0.7389594282 0.5999482575 -6089.5160113979 2.4742252796 -9.0046919258
3.1969777743 -9.1976488143 0.0000000000 0.6969565245 0.5641563816 -5895.6980078224 2.4725334045 -9.0035345309
3.2020522927 -9.1695201874 0.0000000000 0.6581257383 0.5275095403 -5695.2240903881 2.4708563585 -9.0026294873
3.2061213700 -9.1414158480 0.0000000000 0.6223922846 0.4903503590 -5490.1797650232 2.4691965150 -9.0019821430
3.2091794519 -9.1133772170 0.0000000000 0.5896436093 0.4529898623 -5282.4654817316 2.4675563322 -9.0015955177
3.2112225160 -9.0854436060 0.0000000000 0.5597370103 0.4157035057 -5073.7712229667 2.4659383585 -9.0014702493
3.2122480620 -9.0576521319 0.0000000000 0.5325073159 0.3787290038 -4865.5621055732 2.4643452140 -9.0016045620
3.2122550769 -9.0300376533 0.0000000000 0.5077742381 0.3422657728 -4659.0739158626 2.4627795483 -9.0019942579
3.2112439746 -9.0026327294 0.0000000000 0.4853491141 0.3064757399 -4455.3171069474 2.4612439746 -9.0026327297
3.2092165129 -8.9754676017 0.0000000000 0.4650408391 0.2714852433 -4255.0875836074 2.4597409843 -9.0035109977
3.2061756910 -8.9485702007 0.0000000000 0.4466608849 0.2373877341 -4058.9825641145 2.4582728431 -9.0046177712
3.2021256353 -8.9219661804 0.0000000000 0.4300273719 0.2042470129 -3867.4199089653 2.4568414779 -9.0059395377
3.1970714805 -8.8956789865 0.0000000000 0.4149682218 0.1721007602 -3680.6595019200 2.4554483608 -9.0074606864
3.1910192547 -8.8697299650 0.0000000000 0.4013234543 0.1409641644 -3498.8255135263 2.4540943998 -9.0091636707
3.1839757755 -8.8441385192 0.0000000000 0.3889467158 0.1108334953 -3321.9286290549 2.4527798414 -9.0110292199
3.1759485611 -8.8189223241 0.0000000000 0.3777061334 0.0816895188 -3149.8875483983 2.4515041915 -9.0130366082
3.1669457570 -8.7940976060 0.0000000000 0.3674845848 0.0535006940 -2982.5492455162 2.4502661527 -9.0151639870
3.1569760730 -8.7696794907 0.0000000000 0.3581794668 0.0262261330 -2819.7076062239 2.4490635754 -9.0173887874
3.1460487264 -8.7456824206 0.0000000000 0.3497020301 -0.0001816947 -2661.1201509265 2.4478934150 -9.0196881891
3.1341733805 -8.7221206327 0.0000000000 0.3419763288 -0.0257745389 -2506.5225794544 2.4467516887 -9.0220396512
3.1213600744 -8.6990086851 0.0000000000 0.3349378726 -0.0506059639 -2355.6408652890 2.4456334235 -9.0244214896
3.1076191393 -8.6763620132 0.0000000000 0.3285322091 -0.0747280540 -2208.2009348804 2.4445325942 -9.0268134846
3.0929611119 -8.6541974985 0.0000000000 0.3227135833 -0.0981880295 -2063.9369779114 2.4434420591 -9.0291974987
3.0773966671 -8.6325340331 0.0000000000 0.3174431214 -0.1210336392 -1922.5988377853 2.4423535178 -9.0315580906
3.0609366126 -8.6113930736 0.0000000000 0.3126859903 -0.1433355468 -1783.9523432506 2.4412575319 -9.0338831173
3.0435919747 -8.5907991904 0.0000000000 0.3084090025 -0.1651818771 -1647.7632787769 2.4401436400 -9.0361643297
3.0253741197 -8.5707806419 0.0000000000 0.3045781764 -0.1865302930 -1513.7850839921 2.4390005080 -9.0383979934
3.0062946233 -8.5513700646 0.0000000000 0.3011468745 -0.2069850391 -1381.8132146064 2.4378158310 -9.0405856232
2.9863639121 -8.5326052750 0.0000000000 0.2980627485 -0.2261057263 -1251.7834804076 2.4365750083 -9.0427348284
2.9423351859 -8.4948298091 0.0000000000 0.2940956732 -0.2714469518 -984.7953221655 2.4343740072 -9.0466227422
2.9181485251 -8.4760459690 0.0000000000 0.2947136506 -0.3097606378 -847.9388864499 2.4334240968 -9.0483590202
2.8930866050 -8.4581988006 0.0000000000 0.2972246464 -0.3554971836 -712.2202554558 2.4324270705 -9.0500541827
2.8672071115 -8.4413161698 0.0000000000 0.2988863379 -0.3864180861 -577.5730524369 2.4313995000 -9.0517027078
2.8405677789 -8.4254280258 0.0000000000 0.2952604997 -0.3772851420 -445.0758727710 2.4303566604 -9.0533028846
2.8132273819 -8.4105642619 0.0000000000 0.2845616525 -0.3261305246 -314.9197236739 2.4293135952 -9.0548547277
2.7852463443 -8.3967540768 0.0000000000 0.2701427643 -0.2584127252 -185.4370588462 2.4282857996 -9.0563593903
2.7566868927 -8.3840256221 0.0000000000 0.2571814297 -0.2013956216 -54.9396658999 2.4272894512 -9.0578188586
2.7276128994 -8.3724056471 0.0000000000 0.2478928776 -0.1625414595 76.5863128689 2.4263413310 -9.0592356422
2.6980895063 -8.3619191302 0.0000000000 0.2412512469 -0.1348062044 208.1972360263 2.4254585285 -9.0606124463
2.6681826211 -8.3525889482 0.0000000000 0.2358629619 -0.1117330326 339.3981920636 2.4246580193 -9.0619518795
2.6379583620 -8.3444356115 0.0000000000 0.2312901806 -0.0915449354 470.2153578575 2.4239561940 -9.0632562234
2.6074825172 -8.3374770653 0.0000000000 0.2274594017 -0.0737762158 600.6816370280 2.4233684019 -9.0645272648
2.5768200600 -8.3317285439 0.0000000000 0.2242455284 -0.0578022923 730.7617048102 2.4229085535 -9.0657661779
2.5460347457 -8.3272024716 0.0000000000 0.2215350135 -0.0431402019 860.4455067622 2.4225888031 -9.0669734492
2.5151887952 -8.3239084073 0.0000000000 0.2192492264 -0.0294651672 989.7471702605 2.4224193219 -9.0681488421
2.4843426625 -8.3218530328 0.0000000000 0.2173226195 -0.0165214621 1118.6950219816 2.4224081535 -9.0692914025
2.4535548718 -8.3210401860 0.0000000000 0.2156996146 -0.0041052252 1247.3333782389 2.4225611413 -9.0703995048
2.4228819086 -8.3214709336 0.0000000000 0.2143324031 0.0079504661 1375.7219587002 2.4228819087 -9.0714709336
2.3923781487 -8.3231436718 0.0000000000 0.2131789065 0.0197868549 1503.9352157761 2.4233718795 -9.0725029906
2.3620958128 -8.3260542437 0.0000000000 0.2122015189 0.0315273176 1632.0616574656 2.4240303220 -9.0734926135
2.3320849374 -8.3301960567 0.0000000000 0.2113661110 0.0432830623 1760.2032408023 2.4248544110 -9.0744364915
2.3023933576 -8.3355601917 0.0000000000 0.2106413453 0.0551576176 1888.4750164047 2.4258393005 -9.0753311692
2.2730667005 -8.3421354992 0.0000000000 0.2099980546 0.0672545757 2017.0036733921 2.4269782073 -9.0761731331
2.2441483878 -8.3499086854 0.0000000000 0.2094081565 0.0796818231 2145.9249044587 2.4282625033 -9.0769588848
2.2156796516 -8.3588643957 0.0000000000 0.2088445245 0.0925320305 2275.3870444040 2.4296818200 -9.0776850075
2.1876995618 -8.3689853064 0.0000000000 0.2082830261 0.1058816187 2405.5627397722 2.4312241639 -9.0783482376
2.1602450688 -8.3802522332 0.0000000000 0.2076989121 0.1199133535 2536.6386499727 2.4328760469 -9.0789455492
2.1333510631 -8.3926442620 0.0000000000 0.2070515150 0.1350391790 2668.7542915094 2.4346226318 -9.0794742569
2.1070504549 -8.4061389028 0.0000000000 0.2062856102 0.1515568093 2801.9610978984 2.4364478967 -9.0799321391
2.0813742767 -8.4207122603 0.0000000000 0.2053889926 0.1688449052 2936.3658481542 2.4383348217 -9.0803175736
2.0563518146 -8.4363392112 0.0000000000 0.2044472025 0.1854847736 3072.4599853419 2.4402656016 -9.0806296769
2.0320107710 -8.4529935757 0.0000000000 0.2035109506 0.2018722239 3211.2195767129 2.4422218898 -9.0808684343
2.0083774638 -8.4706482696 0.0000000000 0.2022059241 0.2238416072 3353.4412475298 2.4441850755 -9.0810348075
1.9854770620 -8.4892754276 0.0000000000 0.1994802588 0.2618065130 3498.4200823938 2.4461365967 -9.0811308095
1.9633338575 -8.5088464928 0.0000000000 0.1942464814 0.3208803902 3643.3344004946 2.4480582861 -9.0811595438
1.9419715709 -8.5293322858 0.0000000000 0.1871288900 0.3861491816 3785.3915073183 2.4499327497 -9.0811252186
1.9016840068 -8.5729258649 0.0000000000 0.1871537988 0.3608972135 4069.5006418489 2.4534769400 -9.0808870435
1.8828063200 -8.5959716280 0.0000000000 0.2099679730 0.1858787194 4221.9580095297 2.4551193713 -9.0806960562
1.8648052728 -8.6198075965 0.0000000000 0.2538813771 -0.0941323218 4384.4765815841 2.4566606549 -9.0804671308
1.8477064315 -8.6444001465 0.0000000000 0.3128448796 -0.4161149398 4552.9566651368 2.4580929696 -9.0802077579
1.8315363586 -8.6697145360 0.0000000000 0.3729162999 -0.6975693561 4716.8354541007 2.4594112174 -9.0799256544
1.8163225956 -8.6957147345 0.0000000000 0.4204304389 -0.8821188121 4865.8616936834 2.4606130615 -9.0796285211
1.8020935268 -8.7223633009 0.0000000000 0.4506414998 -0.9673945133 5001.8751610114 2.4616988403 -9.0793238454
1.7888781175 -8.7496212979 0.0000000000 0.4687493146 -0.9922972001 5137.0805922505 2.4626713540 -9.0790187393
1.7767055468 -8.7774482439 0.0000000000 0.4834909123 -1.0002633942 5280.1712351835 2.4635355419 -9.0787198122
1.7656047650 -8.8058021038 0.0000000000 0.5006513216 -1.0143728983 5431.1075714467 2.4642980812 -9.0784330815
1.7556040136 -8.8346393156 0.0000000000 0.5214420463 -1.0375149995 5586.3853328339 2.4649669449 -9.0781639172
1.7467303484 -8.8639148491 0.0000000000 0.5447072262 -1.0647191546 5743.4648858243 2.4655509603 -9.0779170171
1.7390092004 -8.8935822890 0.0000000000 0.5694198422 -1.0922619554 5901.5831884766 2.4660594000 -9.0776964041
1.7324640001 -8.9235939332 0.0000000000 0.5954589230 -1.1193667874 6060.9060352506 2.4665016342 -9.0775054395
1.7271158805 -8.9539009008 0.0000000000 0.6231482692 -1.1464320472 6221.4899761608 2.4668868581 -9.0773468432
1.7229834627 -8.9844532432 0.0000000000 0.6527795395 -1.1737087012 6382.9464776127 2.4672238975 -9.0772227164
1.7200827182 -9.0152000549 0.0000000000 0.6845311935 -1.2011347547 6544.6022998744 2.4675210880 -9.0771345637
1.7184268957 -9.0460895827 0.0000000000 0.7185490958 -1.2285367751 6705.6231765264 2.4677862146 -9.0770833131
1.7180264978 -9.0770693341 0.0000000000 0.7549873815 -1.2557252163 6865.0012737777 2.4680264978 -9.0770693338
1.7188892916 -9.1080861835 0.0000000000 0.7940000664 -1.2824893218 7021.5141815662 2.4682486104 -9.0770924525
1.7210203434 -9.1390864795 0.0000000000 0.8357243903 -1.3085815533 7173.7084845505 2.4684587131 -9.0771519700