 TITLE = "Tecplot data"
 VARIABLES = "X", "Y", "Z" "U", "V", "p", "dispX", "dispY"
 ZONE SOLUTIONTIME=179.900000, NODES=26114 , ELEMENTS=25916, DATAPACKING=POINT, ZONETYPE=FEQUADRILATERAL
6.2300435327 -15.5209309140 0.0000000000 0.0000000000 0.0000000000 -7419.0650785154 5.8764901421 -15.8744843046
6.2300435329 -16.2280376949 0.0000000000 0.0000000000 0.0000000000 -17950.4128693452 5.8764901421 -15.8744843046
5.5229367514 -15.5209309141 0.0000000000 0.0000000000 0.0000000000 3455.7075989400 5.8764901421 -15.8744843046
5.5229367517 -16.2280376954 0.0000000000 0.0000000000 0.0000000000 20850.6576825013 5.8764901421 -15.8744843046
6.3438219597 -15.2830060093 0.0000000000 0.2816408842 0.2442221113 -5427.7944653520 5.8134918739 -15.8133360953
6.4415287900 -16.3320731217 0.0000000000 1.7621390183 1.5006538204 -10597.1481255507 5.9111987038 -15.8017430362
5.3117003961 -15.3474131501 0.0000000000 0.1686802546 0.2426686714 3533.5287118441 5.8420304821 -15.8777432358
5.3504508573 -16.4035939770 0.0000000000 1.8701922598 -1.1014271949 13323.0127012780 5.8807809429 -15.8732638908
6.5239010184 -14.3593748649 0.0000000000 0.7760568285 0.0265785846 -1899.4724263367 5.4632408467 -15.4200350368
7.1318085578 -16.4348621112 0.0000000000 1.2789186396 0.7126576907 -5167.4340767197 6.0711483852 -15.3742019402
4.6112662499 -14.8052684306 0.0000000000 0.8384316956 -0.3809517625 3061.0188999921 5.6719264220 -15.8659286021
4.8568787914 -16.9064956598 0.0000000000 1.4696370139 -0.4252820475 7014.9862883053 5.9175389626 -15.8458354875
8.0183177944 -9.7789029540 0.0000000000 0.9770639382 -0.1001602968 7.9161355982 3.8183177944 -13.0789029540
11.0765414073 -16.3596985528 0.0000000000 1.5309792877 0.1182167265 -1385.7895294666 6.8765414073 -13.0596985528
20.0000000000 4.7000000000 0.0000000000 0.2005803765 0.4342515719 -0.1095000678 0.0000000000 0.0000000000
20.0000000000 -4.7000000000 0.0000000000 1.1070249616 -0.5068158578 -1.0512392851 0.0000000000 0.0000000000
-10.0000000000 15.0000000000 0.0000000000 1.0000000000 0.0000000000 777.8211710034 0.0000000000 0.0000000000
20.0000000000 15.0000000000 0.0000000000 2.0243646151 0.0000000000 3.2050660188 0.0000000000 0.0000000000
20.0000000000 -15.0000000000 0.0000000000 1.9968282715 0.0000000000 -8.3724577691 0.0000000000 0.0000000000
-10.0000000000 -15.0000000000 0.0000000000 1.0000000000 0.0000000000 1693.1910864205 0.0000000000 0.0000000000
6.2430160783 -16.2145706732 0.0000000000 0.0000000000 0.0000000000 -18963.1560334028 5.8764901421 -15.8744843046
6.2554760039 -16.2006280100 0.0000000000 0.0000000000 0.0000000000 -19784.2873106310 5.8764901421 -15.8744843046
6.2674058835 -16.1862292053 0.0000000000 0.0000000000 0.0000000000 -20605.4413622391 5.8764901421 -15.8744843046
6.2787890322 -16.1713943971 0.0000000000 0.0000000000 0.0000000000 -21315.9713456851 5.8764901421 -15.8744843046
6.2896095294 -16.1561443334 0.0000000000 0.0000000000 0.0000000000 -21973.1861973404 5.8764901421 -15.8744843046
6.2998522419 -16.1405003426 0.0000000000 0.0000000000 0.0000000000 -22541.3155974765 5.8764901421 -15.8744843046
6.3095028441 -16.1244843043 0.0000000000 0.0000000000 0.0000000000 -23038.8340960224 5.8764901421 -15.8744843046
6.3185478390 -16.1081186185 0.0000000000 0.0000000000 0.0000000000 -23453.2709318004 5.8764901421 -15.8744843046
6.3269745762 -16.0914261739 0.0000000000 0.0000000000 0.0000000000 -23791.2886182154 5.8764901421 -15.8744843046
6.3347712701 -16.0744303165 0.0000000000 0.0000000000 0.0000000000 -24048.6540270264 5.8764901421 -15.8744843046
6.3419270165 -16.0571548165 0.0000000000 0.0000000000 0.0000000000 -24228.4511682235 5.8764901421 -15.8744843046
6.3484318073 -16.0396238353 0.0000000000 0.0000000000 0.0000000000 -24329.8483401555 5.8764901421 -15.8744843046
6.3542765451 -16.0218618915 0.0000000000 0.0000000000 0.0000000000 -24355.0708033342 5.8764901421 -15.8744843046
6.3594530553 -16.0038938269 0.0000000000 0.0000000000 0.0000000000 -24305.0020439757 5.8764901421 -15.8744843046
6.3639540982 -15.9857447713 0.0000000000 0.0000000000 0.0000000000 -24181.9580443109 5.8764901421 -15.8744843046
6.3677733788 -15.9674401079 0.0000000000 0.0000000000 0.0000000000 -23987.8926425150 5.8764901421 -15.8744843046
6.3709055552 -15.9490054374 0.0000000000 0.0000000000 0.0000000000 -23725.5351560417 5.8764901421 -15.8744843046
6.3733462471 -15.9304665424 0.0000000000 0.0000000000 0.0000000000 -23397.6250309840 5.8764901421 -15.8744843046
6.3750920407 -15.9118493512 0.0000000000 0.0000000000 0.0000000000 -23007.3861125709 5.8764901421 -15.8744843046
6.3761404945 -15.8931799015 0.0000000000 0.0000000000 0.0000000000 -22558.1805926727 5.8764901421 -15.8744843046
6.3764901421 -15.8744843044 0.0000000000 0.0000000000 0.0000000000 -22053.7038726998 5.8764901421 -15.8744843046
6.3761404945 -15.8557887073 0.0000000000 0.0000000000 0.0000000000 -21497.8140485158 5.8764901421 -15.8744843046
6.3750920407 -15.8371192576 0.0000000000 0.0000000000 0.0000000000 -20894.6056024831 5.8764901421 -15.8744843046
6.3733462470 -15.8185020664 0.0000000000 0.0000000000 0.0000000000 -20248.3154483226 5.8764901421 -15.8744843046
6.3709055552 -15.7999631713 0.0000000000 0.0000000000 0.0000000000 -19563.3465181448 5.8764901421 -15.8744843046
6.3677733787 -15.7815285008 0.0000000000 0.0000000000 0.0000000000 -18844.2128764443 5.8764901421 -15.8744843046
6.3639540982 -15.7632238375 0.0000000000 0.0000000000 0.0000000000 -18095.5550877711 5.8764901421 -15.8744843046
6.3594530552 -15.7450747819 0.0000000000 0.0000000000 0.0000000000 -17322.1202734347 5.8764901421 -15.8744843046
6.3542765449 -15.7271067172 0.0000000000 0.0000000000 0.0000000000 -16528.8120045037 5.8764901421 -15.8744843046
6.3484318072 -15.7093447735 0.0000000000 0.0000000000 0.0000000000 -15720.7333242229 5.8764901421 -15.8744843046
6.3419270164 -15.6918137923 0.0000000000 0.0000000000 0.0000000000 -14903.3268235342 5.8764901421 -15.8744843046
6.3347712700 -15.6745382923 0.0000000000 0.0000000000 0.0000000000 -14082.5537394772 5.8764901421 -15.8744843046
6.3269745760 -15.6575424349 0.0000000000 0.0000000000 0.0000000000 -13265.1372780812 5.8764901421 -15.8744843046
6.3185478388 -15.6408499904 0.0000000000 0.0000000000 0.0000000000 -12458.9693119484 5.8764901421 -15.8744843046
6.3095028439 -15.6244843045 0.0000000000 0.0000000000 0.0000000000 -11673.0457682074 5.8764901421 -15.8744843046
6.2998522417 -15.6084682663 0.0000000000 0.0000000000 0.0000000000 -10917.9375605531 5.8764901421 -15.8744843046
6.2896095292 -15.5928242755 0.0000000000 0.0000000000 0.0000000000 -10203.6057119529 5.8764901421 -15.8744843046
6.2787890319 -15.5775742117 0.0000000000 0.0000000000 0.0000000000 -9540.1113211466 5.8764901421 -15.8744843046
6.2674058833 -15.5627394036 0.0000000000 0.0000000000 0.0000000000 -8930.9549487734 5.8764901421 -15.8744843046
6.2554760036 -15.5483405989 0.0000000000 0.0000000000 0.0000000000 -8379.2786722468 5.8764901421 -15.8744843046
6.2430160780 -15.5343979357 0.0000000000 0.0000000000 0.0000000000 -7875.6250481378 5.8764901421 -15.8744843046
6.2151309279 -15.5066223492 0.0000000000 0.0000000000 0.0000000000 -6948.5339893511 5.8764901421 -15.8744843046
6.1996397610 -15.4929422705 0.0000000000 0.0000000000 0.0000000000 -6516.9372659063 5.8764901421 -15.8744843046
6.1835964984 -15.4799140499 0.0000000000 0.0000000000 0.0000000000 -6106.7752998659 5.8764901421 -15.8744843046
6.1670285497 -15.4675599459 0.0000000000 0.0000000000 0.0000000000 -5721.8798181011 5.8764901421 -15.8744843046
6.1499642211 -15.4559010654 0.0000000000 0.0000000000 0.0000000000 -5352.8831243573 5.8764901421 -15.8744843046
6.1324326666 -15.4449573274 0.0000000000 0.0000000000 0.0000000000 -5001.8922041881 5.8764901421 -15.8744843046
6.1144638386 -15.4347474290 0.0000000000 0.0000000000 0.0000000000 -4663.6711280735 5.8764901421 -15.8744843046
6.0960884365 -15.4252888136 0.0000000000 0.0000000000 0.0000000000 -4338.8071817427 5.8764901421 -15.8744843046
6.0773378544 -15.4165976412 0.0000000000 0.0000000000 0.0000000000 -4024.2021327002 5.8764901421 -15.8744843046
6.0582441273 -15.4086887605 0.0000000000 0.0000000000 0.0000000000 -3719.6718988430 5.8764901421 -15.8744843046
6.0388398766 -15.4015756837 0.0000000000 0.0000000000 0.0000000000 -3423.3151913588 5.8764901421 -15.8744843046
6.0191582541 -15.3952705633 0.0000000000 0.0000000000 0.0000000000 -3134.6749564172 5.8764901421 -15.8744843046
5.9992328856 -15.3897841716 0.0000000000 0.0000000000 0.0000000000 -2852.5335414568 5.8764901421 -15.8744843046
5.9790978131 -15.3851258819 0.0000000000 0.0000000000 0.0000000000 -2576.3715032686 5.8764901421 -15.8744843046
5.9587874371 -15.3813036529 0.0000000000 0.0000000000 0.0000000000 -2305.3500378756 5.8764901421 -15.8744843046
5.9383364576 -15.3783240147 0.0000000000 0.0000000000 0.0000000000 -2038.9654485152 5.8764901421 -15.8744843046
5.9177798147 -15.3761920581 0.0000000000 0.0000000000 0.0000000000 -1776.5948891371 5.8764901421 -15.8744843046
5.8971526291 -15.3749114254 0.0000000000 0.0000000000 0.0000000000 -1517.7798198307 5.8764901421 -15.8744843046
5.8764901420 -15.3744843046 0.0000000000 0.0000000000 0.0000000000 -1262.0288510630 5.8764901421 -15.8744843046
5.8558276549 -15.3749114254 0.0000000000 0.0000000000 0.0000000000 -1008.9351125655 5.8764901421 -15.8744843046
5.8352004693 -15.3761920581 0.0000000000 0.0000000000 0.0000000000 -758.0925972261 5.8764901421 -15.8744843046
5.8146438264 -15.3783240147 0.0000000000 0.0000000000 0.0000000000 -509.1418845897 5.8764901421 -15.8744843046
5.7941928468 -15.3813036529 0.0000000000 0.0000000000 0.0000000000 -261.7350395762 5.8764901421 -15.8744843046
5.7738824709 -15.3851258819 0.0000000000 0.0000000000 0.0000000000 -15.5517889708 5.8764901421 -15.8744843046
5.7537473984 -15.3897841716 0.0000000000 0.0000000000 0.0000000000 229.7153747029 5.8764901421 -15.8744843046
5.7338220299 -15.3952705634 0.0000000000 0.0000000000 0.0000000000 474.3565252217 5.8764901421 -15.8744843046
5.7141404074 -15.4015756838 0.0000000000 0.0000000000 0.0000000000 718.6509770008 5.8764901421 -15.8744843046
5.6947361567 -15.4086887606 0.0000000000 0.0000000000 0.0000000000 962.8667763982 5.8764901421 -15.8744843046
5.6756424297 -15.4165976413 0.0000000000 0.0000000000 0.0000000000 1207.2640783788 5.8764901421 -15.8744843046
5.6568918476 -15.4252888137 0.0000000000 0.0000000000 0.0000000000 1452.0959775014 5.8764901421 -15.8744843046
5.6385164455 -15.4347474290 0.0000000000 0.0000000000 0.0000000000 1697.6105599612 5.8764901421 -15.8744843046
5.6205476174 -15.4449573275 0.0000000000 0.0000000000 0.0000000000 1944.0520772382 5.8764901421 -15.8744843046
5.6030160629 -15.4559010655 0.0000000000 0.0000000000 0.0000000000 2191.6624566919 5.8764901421 -15.8744843046
5.5859517343 -15.4675599460 0.0000000000 0.0000000000 0.0000000000 2440.6825154630 5.8764901421 -15.8744843046
5.5693837856 -15.4799140500 0.0000000000 0.0000000000 0.0000000000 2691.3532519176 5.8764901421 -15.8744843046
5.5533405231 -15.4929422706 0.0000000000 0.0000000000 0.0000000000 2943.9170459270 5.8764901421 -15.8744843046
5.5378493562 -15.5066223494 0.0000000000 0.0000000000 0.0000000000 3198.6188854334 5.8764901421 -15.8744843046
5.5086281867 -15.5358435189 0.0000000000 0.0000000000 0.0000000000 3715.4371699070 5.8764901421 -15.8744843046
5.4949481079 -15.5513346858 0.0000000000 0.0000000000 0.0000000000 3978.0682155599 5.8764901421 -15.8744843046
5.4819198873 -15.5673779484 0.0000000000 0.0000000000 0.0000000000 4243.8697840940 5.8764901421 -15.8744843046
5.4695657834 -15.5839458970 0.0000000000 0.0000000000 0.0000000000 4513.1216544964 5.8764901421 -15.8744843046
5.4579069029 -15.6010102257 0.0000000000 0.0000000000 0.0000000000 4786.1173039735 5.8764901421 -15.8744843046
5.4469631648 -15.6185417802 0.0000000000 0.0000000000 0.0000000000 5063.1675876756 5.8764901421 -15.8744843046
5.4367532664 -15.6365106082 0.0000000000 0.0000000000 0.0000000000 5344.6049825180 5.8764901421 -15.8744843046
5.4272946511 -15.6548860103 0.0000000000 0.0000000000 0.0000000000 5630.7880722523 5.8764901421 -15.8744843046
5.4186034787 -15.6736365924 0.0000000000 0.0000000000 0.0000000000 5922.1059575218 5.8764901421 -15.8744843046
5.4106945980 -15.6927303195 0.0000000000 0.0000000000 0.0000000000 6218.9825745976 5.8764901421 -15.8744843046
5.4035815212 -15.7121345702 0.0000000000 0.0000000000 0.0000000000 6521.8814922240 5.8764901421 -15.8744843046
5.3972764008 -15.7318161926 0.0000000000 0.0000000000 0.0000000000 6831.3122453689 5.8764901421 -15.8744843046
5.3917900091 -15.7517415612 0.0000000000 0.0000000000 0.0000000000 7147.8393422540 5.8764901421 -15.8744843046
5.3871317194 -15.7718766337 0.0000000000 0.0000000000 0.0000000000 7472.0942860152 5.8764901421 -15.8744843046
5.3833094904 -15.7921870096 0.0000000000 0.0000000000 0.0000000000 7804.7896613404 5.8764901421 -15.8744843046
5.3803298522 -15.8126379891 0.0000000000 0.0000000000 0.0000000000 8146.7335858287 5.8764901421 -15.8744843046
5.3781978956 -15.8331946321 0.0000000000 0.0000000000 0.0000000000 8498.8438600978 5.8764901421 -15.8744843046
5.3769172629 -15.8538218177 0.0000000000 0.0000000000 0.0000000000 8862.1660176515 5.8764901421 -15.8744843046
5.3764901421 -15.8744843048 0.0000000000 0.0000000000 0.0000000000 9237.9077472634 5.8764901421 -15.8744843046
5.3769172629 -15.8951467919 0.0000000000 0.0000000000 0.0000000000 9627.5141729418 5.8764901421 -15.8744843046
5.3781978956 -15.9157739775 0.0000000000 0.0000000000 0.0000000000 10032.8178354452 5.8764901421 -15.8744843046
5.3803298523 -15.9363306204 0.0000000000 0.0000000000 0.0000000000 10456.3042058272 5.8764901421 -15.8744843046
5.3833094904 -15.9567815999 0.0000000000 0.0000000000 0.0000000000 10901.5548885312 5.8764901421 -15.8744843046
5.3871317195 -15.9770919759 0.0000000000 0.0000000000 0.0000000000 11373.9786668965 5.8764901421 -15.8744843046
5.3917900092 -15.9972270484 0.0000000000 0.0000000000 0.0000000000 11881.8357554282 5.8764901421 -15.8744843046
5.3972764009 -16.0171524169 0.0000000000 0.0000000000 0.0000000000 12436.9030376144 5.8764901421 -15.8744843046
5.4035815213 -16.0368340394 0.0000000000 0.0000000000 0.0000000000 13053.0876406297 5.8764901421 -15.8744843046
5.4106945982 -16.0562382901 0.0000000000 0.0000000000 0.0000000000 13741.5451976749 5.8764901421 -15.8744843046
5.4186034789 -16.0753320171 0.0000000000 0.0000000000 0.0000000000 14503.7894145814 5.8764901421 -15.8744843046
5.4272946513 -16.0940825992 0.0000000000 0.0000000000 0.0000000000 15327.2255911593 5.8764901421 -15.8744843046
5.4367532666 -16.1124580013 0.0000000000 0.0000000000 0.0000000000 16186.3302989883 5.8764901421 -15.8744843046
5.4469631650 -16.1304268293 0.0000000000 0.0000000000 0.0000000000 17048.4731510754 5.8764901421 -15.8744843046
5.4579069031 -16.1479583839 0.0000000000 0.0000000000 0.0000000000 17880.8163884100 5.8764901421 -15.8744843046
5.4695657836 -16.1650227125 0.0000000000 0.0000000000 0.0000000000 18655.3538587089 5.8764901421 -15.8744843046
5.4819198876 -16.1815906611 0.0000000000 0.0000000000 0.0000000000 19351.1038614383 5.8764901421 -15.8744843046
5.4949481082 -16.1976339237 0.0000000000 0.0000000000 0.0000000000 19953.9760005974 5.8764901421 -15.8744843046
5.5086281869 -16.2131250906 0.0000000000 0.0000000000 0.0000000000 20455.3986759251 5.8764901421 -15.8744843046
5.5378493565 -16.2423462601 0.0000000000 0.0000000000 0.0000000000 21137.4886113296 5.8764901421 -15.8744843046
5.5533405234 -16.2560263389 0.0000000000 0.0000000000 0.0000000000 21315.0917875012 5.8764901421 -15.8744843046
5.5693837860 -16.2690545594 0.0000000000 0.0000000000 0.0000000000 21383.5327754837 5.8764901421 -15.8744843046
5.5859517346 -16.2814086634 0.0000000000 0.0000000000 0.0000000000 21343.4177618816 5.8764901421 -15.8744843046
5.6030160633 -16.2930675439 0.0000000000 0.0000000000 0.0000000000 21195.7394239450 5.8764901421 -15.8744843046
5.6205476178 -16.3040112819 0.0000000000 0.0000000000 0.0000000000 20941.8170326784 5.8764901421 -15.8744843046
5.6385164458 -16.3142211803 0.0000000000 0.0000000000 0.0000000000 20583.2841313657 5.8764901421 -15.8744843046
5.6568918479 -16.3236797957 0.0000000000 0.0000000000 0.0000000000 20122.0972997548 5.8764901421 -15.8744843046
5.6756424300 -16.3323709680 0.0000000000 0.0000000000 0.0000000000 19560.5557601659 5.8764901421 -15.8744843046
5.6947361571 -16.3402798487 0.0000000000 0.0000000000 0.0000000000 18901.3248607916 5.8764901421 -15.8744843046
5.7141404078 -16.3473929255 0.0000000000 0.0000000000 0.0000000000 18147.4662885577 5.8764901421 -15.8744843046
5.7338220302 -16.3536980459 0.0000000000 0.0000000000 0.0000000000 17302.4660465929 5.8764901421 -15.8744843046
5.7537473988 -16.3591844376 0.0000000000 0.0000000000 0.0000000000 16370.2627261093 5.8764901421 -15.8744843046
5.7738824713 -16.3638427273 0.0000000000 0.0000000000 0.0000000000 15355.2496244892 5.8764901421 -15.8744843046
5.7941928472 -16.3676649563 0.0000000000 0.0000000000 0.0000000000 14262.2571546944 5.8764901421 -15.8744843046
5.8146438268 -16.3706445945 0.0000000000 0.0000000000 0.0000000000 13096.4703247530 5.8764901421 -15.8744843046
5.8352004697 -16.3727765511 0.0000000000 0.0000000000 0.0000000000 11863.3318173446 5.8764901421 -15.8744843046
5.8558276553 -16.3740571838 0.0000000000 0.0000000000 0.0000000000 10568.3961304304 5.8764901421 -15.8744843046
5.8764901424 -16.3744843046 0.0000000000 0.0000000000 0.0000000000 9217.3768140361 5.8764901421 -15.8744843046
5.8971526295 -16.3740571838 0.0000000000 0.0000000000 0.0000000000 7816.2825017214 5.8764901421 -15.8744843046
5.9177798151 -16.3727765511 0.0000000000 0.0000000000 0.0000000000 6371.5882172938 5.8764901421 -15.8744843046
5.9383364580 -16.3706445944 0.0000000000 0.0000000000 0.0000000000 4889.7405229164 5.8764901421 -15.8744843046
5.9587874376 -16.3676649562 0.0000000000 0.0000000000 0.0000000000 3377.9058603496 5.8764901421 -15.8744843046
5.9790978135 -16.3638427272 0.0000000000 0.0000000000 0.0000000000 1843.5087073441 5.8764901421 -15.8744843046
5.9992328860 -16.3591844375 0.0000000000 0.0000000000 0.0000000000 294.0295497217 5.8764901421 -15.8744843046
6.0191582545 -16.3536980457 0.0000000000 0.0000000000 0.0000000000 -1263.1971730282 5.8764901421 -15.8744843046
6.0388398770 -16.3473929253 0.0000000000 0.0000000000 0.0000000000 -2820.9435451649 5.8764901421 -15.8744843046
6.0582441277 -16.3402798485 0.0000000000 0.0000000000 0.0000000000 -4372.1251014695 5.8764901421 -15.8744843046
6.0773378547 -16.3323709678 0.0000000000 0.0000000000 0.0000000000 -5909.5782645020 5.8764901421 -15.8744843046
6.0960884368 -16.3236797954 0.0000000000 0.0000000000 0.0000000000 -7426.4427923970 5.8764901421 -15.8744843046
6.1144638389 -16.3142211800 0.0000000000 0.0000000000 0.0000000000 -8915.2685478438 5.8764901421 -15.8744843046
6.1324326669 -16.3040112816 0.0000000000 0.0000000000 0.0000000000 -10369.9952625104 5.8764901421 -15.8744843046
6.1499642214 -16.2930675435 0.0000000000 0.0000000000 0.0000000000 -11781.9716364464 5.8764901421 -15.8744843046
6.1670285501 -16.2814086630 0.0000000000 0.0000000000 0.0000000000 -13147.7489070309 5.8764901421 -15.8744843046
6.1835964987 -16.2690545591 0.0000000000 0.0000000000 0.0000000000 -14455.3998714247 5.8764901421 -15.8744843046
6.1996397613 -16.2560263385 0.0000000000 0.0000000000 0.0000000000 -15704.9227140580 5.8764901421 -15.8744843046
6.2151309282 -16.2423462597 0.0000000000 0.0000000000 0.0000000000 -16891.5087839095 5.8764901421 -15.8744843046
6.4588471114 -16.3064993261 0.0000000000 1.6824839454 1.5266776038 -11176.0019246714 5.9090582072 -15.7963697732
6.4753274262 -16.2802736281 0.0000000000 1.6010320465 1.5468943976 -11710.1310921047 5.9068486335 -15.7910580701
6.4909436541 -16.2534502660 0.0000000000 1.5183619300 1.5608186505 -12190.6423315012 5.9045700420 -15.7858329151
6.5056756822 -16.2260925531 0.0000000000 1.4351456884 1.5683635099 -12614.5290772046 5.9022273471 -15.7807274143
6.5195062542 -16.1982673864 0.0000000000 1.3520882762 1.5694534922 -12978.0257827440 5.8998271732 -15.7757773432
6.5324197791 -16.1700432517 0.0000000000 1.2699105612 1.5641517398 -13278.7872942719 5.8973766294 -15.7710191947
6.5444017469 -16.1414890425 0.0000000000 1.1893242129 1.5526367132 -13515.5387213185 5.8948826938 -15.7664890429
6.5554384449 -16.1126732112 0.0000000000 1.1110042375 1.5352062431 -13688.2823548615 5.8923518996 -15.7622217404
6.5655168755 -16.0836631082 0.0000000000 1.0355639835 1.5122656259 -13798.2715727147 5.8897902243 -15.7582503042
6.5746248249 -16.0545244434 0.0000000000 0.9635338545 1.4843109041 -13847.9411858650 5.8872031328 -15.7546054256
6.5827510288 -16.0253208323 0.0000000000 0.8953458207 1.4519069168 -13840.7635134232 5.8845957172 -15.7513150644
6.5898853746 -15.9961134022 0.0000000000 0.8313244780 1.4156627569 -13781.0555176812 5.8819728768 -15.7484041061
6.5960190917 -15.9669604477 0.0000000000 0.7716847171 1.3762068444 -13673.7559160040 5.8793394872 -15.7458940673
6.6011449005 -15.9379171315 0.0000000000 0.7165353758 1.3341636085 -13524.1929642959 5.8767005306 -15.7438028480
6.6052571110 -15.9090352265 0.0000000000 0.6658878027 1.2901332410 -13337.8606960495 5.8740611768 -15.7421445264
6.6083516736 -15.8803629015 0.0000000000 0.6196680236 1.2446754153 -13120.2174479784 5.8714268186 -15.7409291965
6.6104261881 -15.8519445467 0.0000000000 0.5777311459 1.1982973474 -12876.5159718659 5.8688030684 -15.7401628474
6.6114798771 -15.8238206384 0.0000000000 0.5398767204 1.1514461467 -12611.6700603777 5.8661957196 -15.7398472816
6.6115135240 -15.7960276429 0.0000000000 0.5058639636 1.1045050895 -12330.1587789400 5.8636106761 -15.7399800731
6.6105293774 -15.7685979566 0.0000000000 0.4754259892 1.0577932450 -12035.9663463101 5.8610538488 -15.7405545612
6.6085310191 -15.7415598825 0.0000000000 0.4482824601 1.0115677760 -11732.5535572721 5.8585310191 -15.7415598828
6.6055232018 -15.7149376456 0.0000000000 0.4241503276 0.9660282170 -11422.8554006911 5.8560476732 -15.7429810416
6.6015116602 -15.6887514475 0.0000000000 0.4027525439 0.9213220819 -11109.2991095731 5.8536088123 -15.7447990179
6.5965029087 -15.6630175679 0.0000000000 0.3838247952 0.8775512436 -10793.8371277909 5.8512187513 -15.7469909253
6.5905040378 -15.6377485222 0.0000000000 0.3671204151 0.8347786454 -10477.9901832746 5.8488809181 -15.7495302221
6.5835225233 -15.6129532862 0.0000000000 0.3524136877 0.7930350188 -10162.8965936638 5.8465976684 -15.7523869918
6.5755660589 -15.5886376046 0.0000000000 0.3395017592 0.7523253813 -9849.3648855133 5.8443701248 -15.7555283053
6.5666424164 -15.5648043983 0.0000000000 0.3282053604 0.7126351621 -9537.9276130166 5.8421980468 -15.7589186824
6.5567593337 -15.5414542831 0.0000000000 0.3183685079 0.6739358410 -9228.8948131315 5.8400797294 -15.7625206642
6.5459244201 -15.5185862085 0.0000000000 0.3098573342 0.6361900022 -8922.4058040043 5.8380119224 -15.7662955052
6.5341450688 -15.4961982150 0.0000000000 0.3025581841 0.5993556981 -8618.4780700339 5.8359897574 -15.7702039835
6.5214283612 -15.4742882981 0.0000000000 0.2963751267 0.5633900143 -8317.0518871777 5.8340066694 -15.7742073165
6.5077809516 -15.4528553566 0.0000000000 0.2912270611 0.5282517330 -8018.0292687808 5.8320543007 -15.7782681611
6.4932089319 -15.4319001959 0.0000000000 0.2870446200 0.4939030313 -7721.3059030599 5.8301223869 -15.7823516672
6.4777176906 -15.4114265536 0.0000000000 0.2837670953 0.4603102329 -7426.7951272649 5.8281986379 -15.7864265537
6.4613118110 -15.3914421246 0.0000000000 0.2813395931 0.4274437693 -7134.4436917552 5.8262686617 -15.7904661821
6.4439950839 -15.3719595725 0.0000000000 0.2797105525 0.3952776968 -6844.2400424014 5.8243160032 -15.7944496162
6.4257706879 -15.3529975396 0.0000000000 0.2788295804 0.3637891885 -6556.2168145904 5.8223223532 -15.7983626788
6.4066414372 -15.3345817090 0.0000000000 0.2786452412 0.3329579922 -6270.4493653397 5.8202678254 -15.8021990605
6.3866095840 -15.3167460789 0.0000000000 0.2791019149 0.3027657083 -5987.0495717875 5.8181307917 -15.8059616375
6.3656744373 -15.2995344363 0.0000000000 0.2801333016 0.2731976778 -5706.1397440759 5.8158855335 -15.8096639897
6.3198221100 -15.2645441222 0.0000000000 0.2855029721 0.2134090169 -5120.7540588510 5.8118609313 -15.8163370553
6.2948213986 -15.2469945153 0.0000000000 0.2897596791 0.1834380671 -4819.4389683418 5.8100969703 -15.8193075665
6.2688987895 -15.2303608958 0.0000000000 0.2945016189 0.1539976743 -4523.2988565218 5.8082392550 -15.8222162779
6.2421257528 -15.2146663244 0.0000000000 0.2995691786 0.1255502353 -4232.0230288687 5.8063181414 -15.8250528624
6.2145728368 -15.1999390078 0.0000000000 0.3041522573 0.1007070582 -3945.3795353969 5.8043617182 -15.8278138666
6.1863115327 -15.1862085125 0.0000000000 0.3075008592 0.0814929083 -3663.9069993900 5.8023977460 -15.8304989783
6.1574154433 -15.1735046622 0.0000000000 0.3123443402 0.0597325709 -3388.7548102243 5.8004548986 -15.8331099756
6.1279606245 -15.1618569373 0.0000000000 0.3276604303 0.0125764200 -3120.2106109918 5.7985631830 -15.8356501738
6.0980253623 -15.1512938633 0.0000000000 0.3623897670 -0.0778426716 -2857.0897506364 5.7967537939 -15.8381238583
6.0676895510 -15.1418423674 0.0000000000 0.4106793577 -0.1919192921 -2598.5428172061 5.7950585732 -15.8405356835
6.0370338363 -15.1335271999 0.0000000000 0.4476768792 -0.2737097336 -2345.5843293101 5.7935092345 -15.8428901312
6.0061386660 -15.1263704715 0.0000000000 0.4502101568 -0.2814353549 -2099.6015516731 5.7921364979 -15.8451910834
5.9750833658 -15.1203913073 0.0000000000 0.4212132657 -0.2293985483 -1859.6448430157 5.7909692506 -15.8474415068
5.9439453177 -15.1156055991 0.0000000000 0.3839613555 -0.1649298812 -1622.9876384256 5.7900338112 -15.8496432331
5.9127992850 -15.1120258425 0.0000000000 0.3551921570 -0.1167604344 -1388.2272036459 5.7893533425 -15.8517968201
5.8817168975 -15.1096610533 0.0000000000 0.3352857852 -0.0835987155 -1155.9956153946 5.7889474242 -15.8539014881
5.8507662864 -15.1085167644 0.0000000000 0.3195729188 -0.0571187598 -927.0206218028 5.7888317774 -15.8559551342
5.8200118472 -15.1085951000 0.0000000000 0.3062012990 -0.0343345018 -701.2778103938 5.7890181167 -15.8579544188
5.7895140997 -15.1098949166 0.0000000000 0.2947419483 -0.0144821668 -478.5815140466 5.7895140998 -15.8598949166
5.7593296173 -15.1124119899 0.0000000000 0.2847359280 0.0032233519 -258.7920454552 5.7903233481 -15.8617713087
5.7295110036 -15.1161392216 0.0000000000 0.2758324651 0.0193438089 -41.7210854974 5.7914455129 -15.8635775914
5.7001068996 -15.1210668416 0.0000000000 0.2677884780 0.0342591020 172.8620789077 5.7928763732 -15.8653072764
5.6711620134 -15.1271825879 0.0000000000 0.2604142438 0.0482559314 385.2191031224 5.7946079563 -15.8669535654
5.6427171699 -15.1344718587 0.0000000000 0.2535612097 0.0615525512 595.6393999802 5.7966286767 -15.8685094926
5.6148093791 -15.1429178433 0.0000000000 0.2471101765 0.0743208544 804.4355102958 5.7989234947 -15.8699680427
5.5874719262 -15.1525016481 0.0000000000 0.2409638746 0.0867002742 1011.9392053664 5.8014740946 -15.8713222599
5.5607344834 -15.1632024366 0.0000000000 0.2350417024 0.0988075386 1218.4979424364 5.8042590855 -15.8725653678
5.5346232488 -15.1749976017 0.0000000000 0.2292755979 0.1107448944 1424.4714199898 5.8072542269 -15.8736909177
5.5091611138 -15.1878629814 0.0000000000 0.2236062775 0.1226081229 1630.2275029285 5.8104326824 -15.8746929763
5.4843678665 -15.2017731180 0.0000000000 0.2179808115 0.1344895170 1836.1383217433 5.8137653083 -15.8755663543
5.4602604373 -15.2167015522 0.0000000000 0.2123534059 0.1464700375 2042.5804952584 5.8172209823 -15.8763068655
5.4368531958 -15.2326211329 0.0000000000 0.2066864520 0.1586145222 2249.9420053762 5.8207669828 -15.8769115986
5.4141583079 -15.2495043205 0.0000000000 0.2009409125 0.1710076871 2458.6258161300 5.8243694266 -15.8773791791
5.3921861602 -15.2673234567 0.0000000000 0.1950510929 0.1838369144 2669.0268795979 5.8279937719 -15.8777099945
5.3709458571 -15.2860509840 0.0000000000 0.1889097552 0.1974195767 2881.4749981038 5.8316053917 -15.8779063659
5.3504457869 -15.3056596051 0.0000000000 0.1824152765 0.2120089048 3096.1960098838 5.8351702155 -15.8779726561
5.3306942610 -15.3261224078 0.0000000000 0.1755927688 0.2273872258 3313.3978419432 5.8386554398 -15.8779153406
5.2934739366 -15.3694999273 0.0000000000 0.1619597795 0.2570158876 3757.5042282663 5.8452668697 -15.8774611058
5.2760275219 -15.3923614481 0.0000000000 0.1551476378 0.2715619707 3986.6737322257 5.8483405732 -15.8770858763
5.2593755646 -15.4159698127 0.0000000000 0.1465588046 0.2915319521 4221.8623841207 5.8512309468 -15.8766293470
5.2435357338 -15.4402971046 0.0000000000 0.1328697205 0.3258755494 4462.0349868531 5.8539222719 -15.8761047160
5.2285289834 -15.4653146811 0.0000000000 0.1108570730 0.3814415251 4703.6291760803 5.8564038422 -15.8755257995
5.2143795894 -15.4909927910 0.0000000000 0.0817615132 0.4518670331 4942.5260617703 5.8586700553 -15.8749065776
5.2011149635 -15.5173002816 0.0000000000 0.0563374722 0.5079171682 5178.7064690792 5.8607202771 -15.8742608262
5.1887652312 -15.5442043690 0.0000000000 0.0558685321 0.5005506138 5418.8877373793 5.8625584677 -15.8736018104
5.1773626046 -15.5716704738 0.0000000000 0.1049903964 0.3825932574 5672.5621674851 5.8641925997 -15.8729420420
5.1669406085 -15.5996621241 0.0000000000 0.2173764662 0.1400031959 5945.0261888218 5.8656339246 -15.8722931018
5.1575332287 -15.6281409235 0.0000000000 0.3821980065 -0.1884001139 6233.0907729486 5.8668961601 -15.8716655252
5.1491740596 -15.6570665742 0.0000000000 0.5627528468 -0.5214464568 6523.2469147841 5.8679946715 -15.8710687421
5.1418955147 -15.6863969435 0.0000000000 0.7136228384 -0.7766910572 6796.5336101157 5.8689457142 -15.8705110586
5.1357281516 -15.7160881596 0.0000000000 0.8074516027 -0.9164899559 7045.7985022324 5.8697657857 -15.8699996660
5.1307001380 -15.7460947215 0.0000000000 0.8491264127 -0.9619773809 7285.8441700967 5.8704711156 -15.8695406639
5.1268368660 -15.7763696149 0.0000000000 0.8647712341 -0.9642332137 7536.7451230235 5.8710773008 -15.8691390881