 TITLE = "Tecplot data"
 VARIABLES = "X", "Y", "Z" "U", "V", "p", "dispX", "dispY"
 ZONE SOLUTIONTIME=29.900000, NODES=26114 , ELEMENTS=25916, DATAPACKING=POINT, ZONETYPE=FEQUADRILATERAL
0.3758789014 0.3557538038 0.0000000000 -0.0098812860 0.0005452875 -219.2853981784 0.0223255109 0.0022004132
0.3758789017 -0.3513529772 0.0000000000 -0.0098812860 0.0005452875 -201.3363740279 0.0223255109 0.0022004132
-0.3312278798 0.3557538036 0.0000000000 -0.0098812860 0.0005452875 -80.7096273399 0.0223255109 0.0022004132
-0.3312278795 -0.3513529776 0.0000000000 -0.0098812860 0.0005452875 -67.3515039862 0.0223255109 0.0022004132
0.5499128761 0.5332234570 0.0000000000 0.0475089047 0.0661075374 -218.0434278836 0.0195827903 0.0028933710
0.5497202480 -0.5293763979 0.0000000000 0.0363833036 -0.0524539353 -201.2053397621 0.0193901617 0.0009536876
-0.5110784272 0.5312271566 0.0000000000 0.8018411484 0.4822175501 93.3938405719 0.0192516589 0.0008970709
-0.5108896453 -0.5273877606 0.0000000000 0.7964780155 -0.4779416004 101.7316307808 0.0194404403 0.0029423256
1.0754724951 1.0636380656 0.0000000000 1.1933655050 0.1483532613 -209.5566100223 0.0148123234 0.0029778937
1.0751611562 -1.0607324612 0.0000000000 1.1685818694 -0.1729485627 -173.8562424602 0.0145009836 -0.0000722901
-1.0465542272 1.0604491407 0.0000000000 0.9084741620 0.1870889184 100.7796344426 0.0141059449 -0.0002110307
-1.0462597717 -1.0575720829 0.0000000000 0.9060034246 -0.1868305926 105.4862264240 0.0144003996 0.0030880895
4.2068708478 3.3020278259 0.0000000000 1.1305153318 -0.0401014197 -99.4506760972 0.0068708478 0.0020278259
4.2065408752 -3.3008628264 0.0000000000 1.1175463199 0.0572614870 -102.0965351797 0.0065408752 -0.0008628264
20.0000000000 4.7000000000 0.0000000000 1.0054795635 -0.0032039302 0.0012630019 0.0000000000 0.0000000000
20.0000000000 -4.7000000000 0.0000000000 1.0056142670 0.0032867213 -0.0004447115 0.0000000000 0.0000000000
-10.0000000000 15.0000000000 0.0000000000 1.0000000000 0.0000000000 1.6181151665 0.0000000000 0.0000000000
20.0000000000 15.0000000000 0.0000000000 0.9985932334 0.0000000000 0.0063954493 0.0000000000 0.0000000000
20.0000000000 -15.0000000000 0.0000000000 0.9987150658 0.0000000000 0.0071839457 0.0000000000 0.0000000000
-10.0000000000 -15.0000000000 0.0000000000 1.0000000000 0.0000000000 2.1496584772 0.0000000000 0.0000000000
0.3888514470 -0.3378859555 0.0000000000 -0.0098812860 0.0005452875 -199.8263917903 0.0223255109 0.0022004132
0.4013113727 -0.3239432922 0.0000000000 -0.0098812860 0.0005452875 -198.7042669661 0.0223255109 0.0022004132
0.4132412523 -0.3095444875 0.0000000000 -0.0098812860 0.0005452875 -197.5197407514 0.0223255109 0.0022004132
0.4246244010 -0.2947096794 0.0000000000 -0.0098812860 0.0005452875 -196.4580714459 0.0223255109 0.0022004132
0.4354448982 -0.2794596156 0.0000000000 -0.0098812860 0.0005452875 -195.4189206381 0.0223255109 0.0022004132
0.4456876107 -0.2638156248 0.0000000000 -0.0098812860 0.0005452875 -194.4383104037 0.0223255109 0.0022004132
0.4553382129 -0.2477995866 0.0000000000 -0.0098812860 0.0005452875 -193.4956361886 0.0223255109 0.0022004132
0.4643832078 -0.2314339007 0.0000000000 -0.0098812860 0.0005452875 -192.6021562886 0.0223255109 0.0022004132
0.4728099450 -0.2147414561 0.0000000000 -0.0098812860 0.0005452875 -191.7599998003 0.0223255109 0.0022004132
0.4806066389 -0.1977455987 0.0000000000 -0.0098812860 0.0005452875 -190.9807424673 0.0223255109 0.0022004132
0.4877623853 -0.1804700988 0.0000000000 -0.0098812860 0.0005452875 -190.2761885272 0.0223255109 0.0022004132
0.4942671761 -0.1629391176 0.0000000000 -0.0098812860 0.0005452875 -189.6618934045 0.0223255109 0.0022004132
0.5001119139 -0.1451771738 0.0000000000 -0.0098812860 0.0005452875 -189.1544879243 0.0223255109 0.0022004132
0.5052884241 -0.1272091091 0.0000000000 -0.0098812860 0.0005452875 -188.7717235806 0.0223255109 0.0022004132
0.5097894670 -0.1090600536 0.0000000000 -0.0098812860 0.0005452875 -188.5310471571 0.0223255109 0.0022004132
0.5136087475 -0.0907553902 0.0000000000 -0.0098812860 0.0005452875 -188.4487641406 0.0223255109 0.0022004132
0.5167409240 -0.0723207197 0.0000000000 -0.0098812860 0.0005452875 -188.5388751776 0.0223255109 0.0022004132
0.5191816159 -0.0537818247 0.0000000000 -0.0098812860 0.0005452875 -188.8121257823 0.0223255109 0.0022004132
0.5209274095 -0.0351646334 0.0000000000 -0.0098812860 0.0005452875 -189.2751050974 0.0223255109 0.0022004132
0.5219758633 -0.0164951838 0.0000000000 -0.0098812860 0.0005452875 -189.9295817923 0.0223255109 0.0022004132
0.5223255109 0.0022004134 0.0000000000 -0.0098812860 0.0005452875 -190.7720661380 0.0223255109 0.0022004132
0.5219758633 0.0208960105 0.0000000000 -0.0098812860 0.0005452875 -191.7936871938 0.0223255109 0.0022004132
0.5209274095 0.0395654601 0.0000000000 -0.0098812860 0.0005452875 -192.9803494917 0.0223255109 0.0022004132
0.5191816158 0.0581826514 0.0000000000 -0.0098812860 0.0005452875 -194.3132404852 0.0223255109 0.0022004132
0.5167409240 0.0767215464 0.0000000000 -0.0098812860 0.0005452875 -195.7695200487 0.0223255109 0.0022004132
0.5136087475 0.0951562169 0.0000000000 -0.0098812860 0.0005452875 -197.3233876933 0.0223255109 0.0022004132
0.5097894669 0.1134608803 0.0000000000 -0.0098812860 0.0005452875 -198.9470059350 0.0223255109 0.0022004132
0.5052884240 0.1316099359 0.0000000000 -0.0098812860 0.0005452875 -200.6120393237 0.0223255109 0.0022004132
0.5001119137 0.1495780005 0.0000000000 -0.0098812860 0.0005452875 -202.2902172727 0.0223255109 0.0022004132
0.4942671760 0.1673399443 0.0000000000 -0.0098812860 0.0005452875 -203.9556255141 0.0223255109 0.0022004132
0.4877623852 0.1848709255 0.0000000000 -0.0098812860 0.0005452875 -205.5836673013 0.0223255109 0.0022004132
0.4806066388 0.2021464254 0.0000000000 -0.0098812860 0.0005452875 -207.1557259880 0.0223255109 0.0022004132
0.4728099448 0.2191422828 0.0000000000 -0.0098812860 0.0005452875 -208.6532156429 0.0223255109 0.0022004132
0.4643832076 0.2358347274 0.0000000000 -0.0098812860 0.0005452875 -210.0703158909 0.0223255109 0.0022004132
0.4553382127 0.2522004132 0.0000000000 -0.0098812860 0.0005452875 -211.3929778142 0.0223255109 0.0022004132
0.4456876104 0.2682164515 0.0000000000 -0.0098812860 0.0005452875 -212.6379145043 0.0223255109 0.0022004132
0.4354448980 0.2838604423 0.0000000000 -0.0098812860 0.0005452875 -213.7846093894 0.0223255109 0.0022004132
0.4246244007 0.2991105060 0.0000000000 -0.0098812860 0.0005452875 -214.8974333822 0.0223255109 0.0022004132
0.4132412521 0.3139453141 0.0000000000 -0.0098812860 0.0005452875 -215.9103113192 0.0223255109 0.0022004132
0.4013113724 0.3283441189 0.0000000000 -0.0098812860 0.0005452875 -217.0092143219 0.0223255109 0.0022004132
0.3888514468 0.3422867821 0.0000000000 -0.0098812860 0.0005452875 -217.9553235164 0.0223255109 0.0022004132
0.3609662967 0.3700623685 0.0000000000 -0.0098812860 0.0005452875 -220.4913721846 0.0223255109 0.0022004132
0.3454751298 0.3837424473 0.0000000000 -0.0098812860 0.0005452875 -222.2567344473 0.0223255109 0.0022004132
0.3294318672 0.3967706679 0.0000000000 -0.0098812860 0.0005452875 -224.1695872137 0.0223255109 0.0022004132
0.3128639185 0.4091247718 0.0000000000 -0.0098812860 0.0005452875 -226.6071471200 0.0223255109 0.0022004132
0.2957995899 0.4207836523 0.0000000000 -0.0098812860 0.0005452875 -229.5016276015 0.0223255109 0.0022004132
0.2782680354 0.4317273904 0.0000000000 -0.0098812860 0.0005452875 -233.0317746012 0.0223255109 0.0022004132
0.2602992073 0.4419372888 0.0000000000 -0.0098812860 0.0005452875 -237.2259011163 0.0223255109 0.0022004132
0.2419238052 0.4513959041 0.0000000000 -0.0098812860 0.0005452875 -242.1861934412 0.0223255109 0.0022004132
0.2231732231 0.4600870765 0.0000000000 -0.0098812860 0.0005452875 -247.9613892929 0.0223255109 0.0022004132
0.2040794961 0.4679959572 0.0000000000 -0.0098812860 0.0005452875 -254.6174805003 0.0223255109 0.0022004132
0.1846752454 0.4751090340 0.0000000000 -0.0098812860 0.0005452875 -262.1921617470 0.0223255109 0.0022004132
0.1649936229 0.4814141544 0.0000000000 -0.0098812860 0.0005452875 -270.7103398861 0.0223255109 0.0022004132
0.1450682544 0.4869005462 0.0000000000 -0.0098812860 0.0005452875 -280.1617985809 0.0223255109 0.0022004132
0.1249331819 0.4915588358 0.0000000000 -0.0098812860 0.0005452875 -290.4983766932 0.0223255109 0.0022004132
0.1046228059 0.4953810649 0.0000000000 -0.0098812860 0.0005452875 -301.6203160753 0.0223255109 0.0022004132
0.0841718264 0.4983607030 0.0000000000 -0.0098812860 0.0005452875 -313.3706101931 0.0223255109 0.0022004132
0.0636151835 0.5004926597 0.0000000000 -0.0098812860 0.0005452875 -325.5288450267 0.0223255109 0.0022004132
0.0429879979 0.5017732924 0.0000000000 -0.0098812860 0.0005452875 -337.8108381321 0.0223255109 0.0022004132
0.0223255108 0.5022004132 0.0000000000 -0.0098812860 0.0005452875 -349.8716964562 0.0223255109 0.0022004132
0.0016630237 0.5017732924 0.0000000000 -0.0098812860 0.0005452875 -361.3140393603 0.0223255109 0.0022004132
-0.0189641620 0.5004926597 0.0000000000 -0.0098812860 0.0005452875 -371.7002160328 0.0223255109 0.0022004132
-0.0395208049 0.4983607030 0.0000000000 -0.0098812860 0.0005452875 -380.5681837398 0.0223255109 0.0022004132
-0.0599717844 0.4953810648 0.0000000000 -0.0098812860 0.0005452875 -387.4496113003 0.0223255109 0.0022004132
-0.0802821603 0.4915588358 0.0000000000 -0.0098812860 0.0005452875 -391.8889084117 0.0223255109 0.0022004132
-0.1004172328 0.4869005461 0.0000000000 -0.0098812860 0.0005452875 -393.4616657436 0.0223255109 0.0022004132
-0.1203426014 0.4814141544 0.0000000000 -0.0098812860 0.0005452875 -391.7912589518 0.0223255109 0.0022004132
-0.1400242238 0.4751090340 0.0000000000 -0.0098812860 0.0005452875 -386.5626310806 0.0223255109 0.0022004132
-0.1594284745 0.4679959571 0.0000000000 -0.0098812860 0.0005452875 -377.5326742930 0.0223255109 0.0022004132
-0.1785222016 0.4600870764 0.0000000000 -0.0098812860 0.0005452875 -364.5370012806 0.0223255109 0.0022004132
-0.1972727837 0.4513959040 0.0000000000 -0.0098812860 0.0005452875 -347.4932296417 0.0223255109 0.0022004132
-0.2156481858 0.4419372887 0.0000000000 -0.0098812860 0.0005452875 -326.4011392668 0.0223255109 0.0022004132
-0.2336170138 0.4317273903 0.0000000000 -0.0098812860 0.0005452875 -301.3402061367 0.0223255109 0.0022004132
-0.2511485683 0.4207836522 0.0000000000 -0.0098812860 0.0005452875 -272.4650673303 0.0223255109 0.0022004132
-0.2682128969 0.4091247717 0.0000000000 -0.0098812860 0.0005452875 -239.9994537250 0.0223255109 0.0022004132
-0.2847808456 0.3967706678 0.0000000000 -0.0098812860 0.0005452875 -204.2290626535 0.0223255109 0.0022004132
-0.3008241082 0.3837424472 0.0000000000 -0.0098812860 0.0005452875 -165.4937593253 0.0223255109 0.0022004132
-0.3163152750 0.3700623684 0.0000000000 -0.0098812860 0.0005452875 -124.1794151359 0.0223255109 0.0022004132
-0.3455364446 0.3408411989 0.0000000000 -0.0098812860 0.0005452875 -35.5375210082 0.0223255109 0.0022004132
-0.3592165233 0.3253500320 0.0000000000 -0.0098812860 0.0005452875 10.8621966153 0.0223255109 0.0022004132
-0.3722447439 0.3093067694 0.0000000000 -0.0098812860 0.0005452875 58.0007895165 0.0223255109 0.0022004132
-0.3845988478 0.2927388207 0.0000000000 -0.0098812860 0.0005452875 105.3825529704 0.0223255109 0.0022004132
-0.3962577283 0.2756744921 0.0000000000 -0.0098812860 0.0005452875 152.5113263826 0.0223255109 0.0022004132
-0.4072014664 0.2581429376 0.0000000000 -0.0098812860 0.0005452875 198.8964523172 0.0223255109 0.0022004132
-0.4174113648 0.2401741095 0.0000000000 -0.0098812860 0.0005452875 244.0582115962 0.0223255109 0.0022004132
-0.4268699801 0.2217987074 0.0000000000 -0.0098812860 0.0005452875 287.5327833033 0.0223255109 0.0022004132
-0.4355611525 0.2030481253 0.0000000000 -0.0098812860 0.0005452875 328.8767801838 0.0223255109 0.0022004132
-0.4434700332 0.1839543983 0.0000000000 -0.0098812860 0.0005452875 367.6713998288 0.0223255109 0.0022004132
-0.4505831100 0.1645501476 0.0000000000 -0.0098812860 0.0005452875 403.5262172482 0.0223255109 0.0022004132
-0.4568882304 0.1448685251 0.0000000000 -0.0098812860 0.0005452875 436.0826305354 0.0223255109 0.0022004132
-0.4623746221 0.1249431565 0.0000000000 -0.0098812860 0.0005452875 465.0169612149 0.0223255109 0.0022004132
-0.4670329118 0.1048080841 0.0000000000 -0.0098812860 0.0005452875 490.0432051118 0.0223255109 0.0022004132
-0.4708551408 0.0844977081 0.0000000000 -0.0098812860 0.0005452875 510.9154274622 0.0223255109 0.0022004132
-0.4738347790 0.0640467286 0.0000000000 -0.0098812860 0.0005452875 527.4297962442 0.0223255109 0.0022004132
-0.4759667356 0.0434900857 0.0000000000 -0.0098812860 0.0005452875 539.4262492330 0.0223255109 0.0022004132
-0.4772473683 0.0228629001 0.0000000000 -0.0098812860 0.0005452875 546.7897921298 0.0223255109 0.0022004132
-0.4776744891 0.0022004130 0.0000000000 -0.0098812860 0.0005452875 549.4514267248 0.0223255109 0.0022004132
-0.4772473683 -0.0184620742 0.0000000000 -0.0098812860 0.0005452875 547.3887090808 0.0223255109 0.0022004132
-0.4759667356 -0.0390892598 0.0000000000 -0.0098812860 0.0005452875 540.6259380888 0.0223255109 0.0022004132
-0.4738347790 -0.0596459027 0.0000000000 -0.0098812860 0.0005452875 529.2339745597 0.0223255109 0.0022004132
-0.4708551408 -0.0800968822 0.0000000000 -0.0098812860 0.0005452875 513.3296904867 0.0223255109 0.0022004132
-0.4670329117 -0.1004072581 0.0000000000 -0.0098812860 0.0005452875 493.0750474996 0.0223255109 0.0022004132
-0.4623746220 -0.1205423306 0.0000000000 -0.0098812860 0.0005452875 468.6758030827 0.0223255109 0.0022004132
-0.4568882303 -0.1404676992 0.0000000000 -0.0098812860 0.0005452875 440.3798429436 0.0223255109 0.0022004132
-0.4505831099 -0.1601493217 0.0000000000 -0.0098812860 0.0005452875 408.4751379644 0.0223255109 0.0022004132
-0.4434700331 -0.1795535723 0.0000000000 -0.0098812860 0.0005452875 373.2873242860 0.0223255109 0.0022004132
-0.4355611523 -0.1986472994 0.0000000000 -0.0098812860 0.0005452875 335.1769050028 0.0223255109 0.0022004132
-0.4268699800 -0.2173978815 0.0000000000 -0.0098812860 0.0005452875 294.5360714742 0.0223255109 0.0022004132
-0.4174113646 -0.2357732836 0.0000000000 -0.0098812860 0.0005452875 251.7851412120 0.0223255109 0.0022004132
-0.4072014662 -0.2537421116 0.0000000000 -0.0098812860 0.0005452875 207.3686076706 0.0223255109 0.0022004132
-0.3962577281 -0.2712736661 0.0000000000 -0.0098812860 0.0005452875 161.7507951985 0.0223255109 0.0022004132
-0.3845988476 -0.2883379947 0.0000000000 -0.0098812860 0.0005452875 115.4111102068 0.0223255109 0.0022004132
-0.3722447437 -0.3049059434 0.0000000000 -0.0098812860 0.0005452875 68.8388778178 0.0223255109 0.0022004132
-0.3592165231 -0.3209492060 0.0000000000 -0.0098812860 0.0005452875 22.5277525672 0.0223255109 0.0022004132
-0.3455364443 -0.3364403728 0.0000000000 -0.0098812860 0.0005452875 -23.0303068434 0.0223255109 0.0022004132
-0.3163152747 -0.3656615424 0.0000000000 -0.0098812860 0.0005452875 -109.9671078822 0.0223255109 0.0022004132
-0.3008241078 -0.3793416211 0.0000000000 -0.0098812860 0.0005452875 -150.4307719607 0.0223255109 0.0022004132
-0.2847808453 -0.3923698417 0.0000000000 -0.0098812860 0.0005452875 -188.3262224491 0.0223255109 0.0022004132
-0.2682128966 -0.4047239456 0.0000000000 -0.0098812860 0.0005452875 -223.2752334087 0.0223255109 0.0022004132
-0.2511485679 -0.4163828261 0.0000000000 -0.0098812860 0.0005452875 -254.9457564160 0.0223255109 0.0022004132
-0.2336170134 -0.4273265642 0.0000000000 -0.0098812860 0.0005452875 -283.0600100544 0.0223255109 0.0022004132
-0.2156481854 -0.4375364626 0.0000000000 -0.0098812860 0.0005452875 -307.4022589304 0.0223255109 0.0022004132
-0.1972727833 -0.4469950779 0.0000000000 -0.0098812860 0.0005452875 -327.8259276446 0.0223255109 0.0022004132
-0.1785222012 -0.4556862503 0.0000000000 -0.0098812860 0.0005452875 -344.2596097440 0.0223255109 0.0022004132
-0.1594284741 -0.4635951310 0.0000000000 -0.0098812860 0.0005452875 -356.7114576303 0.0223255109 0.0022004132
-0.1400242234 -0.4707082078 0.0000000000 -0.0098812860 0.0005452875 -365.2713939799 0.0223255109 0.0022004132
-0.1203426010 -0.4770133282 0.0000000000 -0.0098812860 0.0005452875 -370.1105894753 0.0223255109 0.0022004132
-0.1004172324 -0.4824997199 0.0000000000 -0.0098812860 0.0005452875 -371.4777269269 0.0223255109 0.0022004132
-0.0802821599 -0.4871580096 0.0000000000 -0.0098812860 0.0005452875 -369.6917353229 0.0223255109 0.0022004132
-0.0599717840 -0.4909802386 0.0000000000 -0.0098812860 0.0005452875 -365.1309337625 0.0223255109 0.0022004132
-0.0395208045 -0.4939598767 0.0000000000 -0.0098812860 0.0005452875 -358.2188626606 0.0223255109 0.0022004132
-0.0189641616 -0.4960918334 0.0000000000 -0.0098812860 0.0005452875 -349.4074599786 0.0223255109 0.0022004132
0.0016630241 -0.4973724660 0.0000000000 -0.0098812860 0.0005452875 -339.1586101306 0.0223255109 0.0022004132
0.0223255112 -0.4977995868 0.0000000000 -0.0098812860 0.0005452875 -327.9253736281 0.0223255109 0.0022004132
0.0429879983 -0.4973724660 0.0000000000 -0.0098812860 0.0005452875 -316.1343447569 0.0223255109 0.0022004132
0.0636151839 -0.4960918333 0.0000000000 -0.0098812860 0.0005452875 -304.1705068811 0.0223255109 0.0022004132
0.0841718268 -0.4939598767 0.0000000000 -0.0098812860 0.0005452875 -292.3657205092 0.0223255109 0.0022004132
0.1046228063 -0.4909802385 0.0000000000 -0.0098812860 0.0005452875 -280.9915174129 0.0223255109 0.0022004132
0.1249331823 -0.4871580094 0.0000000000 -0.0098812860 0.0005452875 -270.2565102960 0.0223255109 0.0022004132
0.1450682548 -0.4824997197 0.0000000000 -0.0098812860 0.0005452875 -260.3080530928 0.0223255109 0.0022004132
0.1649936233 -0.4770133280 0.0000000000 -0.0098812860 0.0005452875 -251.2377448484 0.0223255109 0.0022004132
0.1846752458 -0.4707082076 0.0000000000 -0.0098812860 0.0005452875 -243.0890294250 0.0223255109 0.0022004132
0.2040794965 -0.4635951307 0.0000000000 -0.0098812860 0.0005452875 -235.8665476692 0.0223255109 0.0022004132
0.2231732235 -0.4556862500 0.0000000000 -0.0098812860 0.0005452875 -229.5434776133 0.0223255109 0.0022004132
0.2419238056 -0.4469950776 0.0000000000 -0.0098812860 0.0005452875 -224.0710344326 0.0223255109 0.0022004132
0.2602992077 -0.4375364623 0.0000000000 -0.0098812860 0.0005452875 -219.3795943951 0.0223255109 0.0022004132
0.2782680357 -0.4273265638 0.0000000000 -0.0098812860 0.0005452875 -215.3933078304 0.0223255109 0.0022004132
0.2957995902 -0.4163828258 0.0000000000 -0.0098812860 0.0005452875 -212.0130849754 0.0223255109 0.0022004132
0.3128639189 -0.4047239453 0.0000000000 -0.0098812860 0.0005452875 -209.1662639878 0.0223255109 0.0022004132
0.3294318675 -0.3923698413 0.0000000000 -0.0098812860 0.0005452875 -206.7152415931 0.0223255109 0.0022004132
0.3454751301 -0.3793416207 0.0000000000 -0.0098812860 0.0005452875 -204.6711080878 0.0223255109 0.0022004132
0.3609662970 -0.3656615419 0.0000000000 -0.0098812860 0.0005452875 -202.7470966746 0.0223255109 0.0022004132
0.5692547347 -0.5091798636 0.0000000000 0.0059328548 -0.0531562498 -201.0498569289 0.0194658305 0.0009496894
0.5880202277 -0.4882644145 0.0000000000 -0.0173534324 -0.0540385103 -200.7773407860 0.0195414350 0.0009511436
0.6059901813 -0.4666593168 0.0000000000 -0.0346757962 -0.0548308047 -200.4234646735 0.0196165691 0.0009580342
0.6231391646 -0.4443948232 0.0000000000 -0.0471882804 -0.0553518170 -199.9983407999 0.0196908294 0.0009703156
0.6394428985 -0.4215021303 0.0000000000 -0.0559551883 -0.0554707837 -199.5199304891 0.0197638175 0.0009879129
0.6548782915 -0.3980133348 0.0000000000 -0.0619293821 -0.0550873051 -199.0099462371 0.0198351419 0.0010107222
0.6694234732 -0.3739613883 0.0000000000 -0.0659313748 -0.0541204899 -198.4905035279 0.0199044201 0.0010386113
0.6830578264 -0.3493800501 0.0000000000 -0.0686335734 -0.0525049942 -197.9824716195 0.0199712811 0.0010714207
0.6957620176 -0.3243038398 0.0000000000 -0.0705546381 -0.0501911178 -197.5049987382 0.0200353665 0.0011089641
0.7075180252 -0.2987679881 0.0000000000 -0.0720658803 -0.0471465364 -197.0757508314 0.0200963332 0.0011510297
0.7183091663 -0.2728083865 0.0000000000 -0.0734080473 -0.0433580586 -196.7114174144 0.0201538546 0.0011973814
0.7281201209 -0.2464615365 0.0000000000 -0.0747146258 -0.0388325583 -196.4281562175 0.0202076230 0.0012477596
0.7369369548 -0.2197644969 0.0000000000 -0.0760373642 -0.0335968096 -196.2417834896 0.0202573503 0.0013018835
0.7447471403 -0.1927548317 0.0000000000 -0.0773705790 -0.0276963126 -196.1676340937 0.0203027704 0.0013594518
0.7515395743 -0.1654705554 0.0000000000 -0.0786721805 -0.0211933778 -196.2201030188 0.0203436401 0.0014201447
0.7573045953 -0.1379500793 0.0000000000 -0.0798806236 -0.0141647673 -196.4119387786 0.0203797403 0.0014836257
0.7620339974 -0.1102321562 0.0000000000 -0.0809278534 -0.0066991407 -196.7533936570 0.0204108777 0.0015495430
0.7657210426 -0.0823558246 0.0000000000 -0.0817487608 0.0011055268 -197.2513497138 0.0204368852 0.0016175321
0.7683604710 -0.0543603529 0.0000000000 -0.0822877885 0.0091444645 -197.9085364629 0.0204576231 0.0016872170
0.7699485083 -0.0262851829 0.0000000000 -0.0825032752 0.0173085266 -198.7229399529 0.0204729797 0.0017582125
0.7704828722 0.0018301269 0.0000000000 -0.0823699995 0.0254864979 -199.6874775094 0.0204828722 0.0018301266
0.7699627753 0.0299459581 0.0000000000 -0.0818802473 0.0335672761 -200.7899813168 0.0204872467 0.0019025621
0.7683889267 0.0580226893 0.0000000000 -0.0810436097 0.0414419129 -202.0135006507 0.0204860788 0.0019751189
0.7657635309 0.0860207535 0.0000000000 -0.0798856223 0.0490054815 -203.3368998679 0.0204793735 0.0020473961
0.7620902851 0.1139006944 0.0000000000 -0.0784452901 0.0561587269 -204.7356996130 0.0204671655 0.0021189945
0.7573743735 0.1416232237 0.0000000000 -0.0767714734 0.0628094516 -206.1830847829 0.0204495186 0.0021895181
0.7516224600 0.1691492774 0.0000000000 -0.0749180566 0.0688735899 -207.6509871898 0.0204265260 0.0022585767
0.7448426786 0.1964400719 0.0000000000 -0.0729377488 0.0742759426 -209.1111460906 0.0203983090 0.0023257878
0.7370446214 0.2234571598 0.0000000000 -0.0708742938 0.0789505751 -210.5360576650 0.0203650172 0.0023907788
0.7282393247 0.2501624853 0.0000000000 -0.0687527907 0.0828409262 -211.8997459595 0.0203268271 0.0024531886
0.7184392529 0.2765184387 0.0000000000 -0.0665677923 0.0858997457 -213.1783220433 0.0202839415 0.0025126703
0.7076582803 0.3024879106 0.0000000000 -0.0642688739 0.0880890695 -214.3503424751 0.0202365885 0.0025688922
0.6959116709 0.3280343448 0.0000000000 -0.0617435169 0.0893805662 -215.3970277298 0.0201850201 0.0026215403
0.6832160560 0.3531217910 0.0000000000 -0.0587974212 0.0897567306 -216.3024497882 0.0201295109 0.0026703197
0.6695894098 0.3777149562 0.0000000000 -0.0551327171 0.0892135591 -217.0538382791 0.0200703570 0.0027149561
0.6550510233 0.4017792550 0.0000000000 -0.0503248697 0.0877654864 -217.6421791391 0.0200078740 0.0027551975
0.6396214763 0.4252808593 0.0000000000 -0.0437992827 0.0854534753 -218.0632761490 0.0199423956 0.0027908156
0.6233226066 0.4481867464 0.0000000000 -0.0348088557 0.0823571544 -218.3193962417 0.0198742719 0.0028216072
0.6061774791 0.4704647462 0.0000000000 -0.0224147524 0.0786115910 -218.4214651585 0.0198038674 0.0028473947
0.5882103514 0.4920835865 0.0000000000 -0.0054755820 0.0744282435 -218.3914544342 0.0197315591 0.0028680279
0.5694466385 0.5130129380 0.0000000000 0.0173422261 0.0701174492 -218.2606211834 0.0196577347 0.0028833846
0.5274603141 0.5546910288 0.0000000000 0.0914100640 0.0627700235 -217.9149629579 0.0194991355 0.0028980958
0.5041395815 0.5752091883 0.0000000000 0.1480614368 0.0614117364 -217.8318122403 0.0194151531 0.0028961370
0.4799909300 0.5947428769 0.0000000000 0.2185711743 0.0629930010 -217.9270541708 0.0193313955 0.0028874948
0.4550560254 0.6132587519 0.0000000000 0.3028427292 0.0683515386 -218.2798934064 0.0192484139 0.0028722139
0.4293778737 0.6307252427 0.0000000000 0.3991646190 0.0780292153 -218.9593503542 0.0191667551 0.0028503839
0.4030007447 0.6471126045 0.0000000000 0.5041310554 0.0921208185 -220.0185458451 0.0190869579 0.0028221387
0.3759700940 0.6623929690 0.0000000000 0.6129809929 0.1102122278 -221.4760006448 0.0190095493 0.0027876555
0.3483324824 0.6765403909 0.0000000000 0.7203035006 0.1314356071 -223.2886919958 0.0189350409 0.0027471544
0.3201354943 0.6895308914 0.0000000000 0.8209103273 0.1546273544 -225.3383407822 0.0188639259 0.0027008963
0.2914276531 0.7013424980 0.0000000000 0.9106209124 0.1785423446 -227.4471626108 0.0187966753 0.0026491820
0.2622583367 0.7119552810 0.0000000000 0.9867574659 0.2020649070 -229.4154143611 0.0187337349 0.0025923497
0.2326776904 0.7213513853 0.0000000000 1.0482681632 0.2243636953 -231.0583629489 0.0186755224 0.0025307734
0.2027365393 0.7295150599 0.0000000000 1.0955230740 0.2449612516 -232.2268810389 0.0186224240 0.0024648604
0.1724862990 0.7364326824 0.0000000000 1.1299088691 0.2637196001 -232.8100903707 0.0185747924 0.0023950484
0.1419788864 0.7420927805 0.0000000000 1.1533660497 0.2807664010 -232.7264014234 0.0185329439 0.0023218030
0.1112666292 0.7464860493 0.0000000000 1.1679811343 0.2963947214 -231.9100250228 0.0184971559 0.0022456145
0.0804021745 0.7496053647 0.0000000000 1.1756943909 0.3109653461 -230.2980692389 0.0184676656 0.0021669950
0.0494383982 0.7514457933 0.0000000000 1.1781352801 0.3248298374 -227.8212368552 0.0184446677 0.0020864745
0.0184283129 0.7520045980 0.0000000000 1.1765654538 0.3382810545 -224.3993438762 0.0184283131 0.0020045980
-0.0125750232 0.7512812400 0.0000000000 1.1718952131 0.3515292230 -219.9414333939 0.0184187077 0.0019219212
-0.0435185976 0.7492773772 0.0000000000 1.1647395214 0.3646971684 -214.3493254816 0.0184159116 0.0018390074
-0.0743495350 0.7459968581 0.0000000000 1.1554874764 0.3778273856 -207.5231065839 0.0184199386 0.0017564233
-0.1050151875 0.7414457127 0.0000000000 1.1443689310 0.3908947992 -199.3672051619 0.0184307554 0.0016747351
-0.1354632244 0.7356321389 0.0000000000 1.1315103239 0.4038210200 -189.7960933210 0.0184482825 0.0015945050
-0.1656417218 0.7285664861 0.0000000000 1.1169774866 0.4164877425 -178.7390830028 0.0184723938 0.0015162867
-0.1954992506 0.7202612339 0.0000000000 1.1008063534 0.4287482776 -166.1440239292 0.0185029178 0.0014406221
-0.2249849636 0.7107309686 0.0000000000 1.0830238115 0.4404370296 -151.9799214353 0.0185396384 0.0013680374
-0.2540486816 0.6999923550 0.0000000000 1.0636611419 0.4513771292 -136.2385934113 0.0185822965 0.0012990391
-0.2826409776 0.6880641055 0.0000000000 1.0427621891 0.4613865706 -118.9355143993 0.0186305910 0.0012341106
-0.3107132601 0.6749669450 0.0000000000 1.0203879225 0.4702831961 -100.1099865658 0.0186841817 0.0011737087
-0.3382178543 0.6607235737 0.0000000000 0.9966185872 0.4778888084 -79.8247557501 0.0187426906 0.0011182604
-0.3651080818 0.6453586253 0.0000000000 0.9715542687 0.4840326178 -58.1651688433 0.0188057052 0.0010681596
-0.3913383382 0.6288986228 0.0000000000 0.9453144201 0.4885541639 -35.2379513072 0.0188727806 0.0010237643
-0.4168641687 0.6113719316 0.0000000000 0.9180367093 0.4913058020 -11.1696712929 0.0189434431 0.0009853938
-0.4416423416 0.5928087085 0.0000000000 0.8898754201 0.4921548113 13.8950515893 0.0190171931 0.0009533266
-0.4656309199 0.5732408489 0.0000000000 0.8609995594 0.4909851594 39.7955407443 0.0190935086 0.0009277979
-0.4887893298 0.5527019309 0.0000000000 0.8315907738 0.4876989473 66.3572128593 0.0191718491 0.0009089981
-0.5324605618 0.5088532910 0.0000000000 0.7719509372 0.4744824691 120.7098879261 0.0193323714 0.0008921124
-0.5528996384 0.4856185986 0.0000000000 0.7421262690 0.4644559103 148.1028825990 0.0194134129 0.0008941704
-0.5723611752 0.4615627775 0.0000000000 0.7125768567 0.4521211039 175.3657923350 0.0194942070 0.0009032432
-0.5908123599 0.4367268916 0.0000000000 0.6835137405 0.4374823812 202.2893764280 0.0195741782 0.0009192803
-0.6082221024 0.4111533003 0.0000000000 0.6551470856 0.4205650276 228.6644866145 0.0196527564 0.0009421819
-0.6245610849 0.3848855867 0.0000000000 0.6276840567 0.4014149274 254.2842955101 0.0197293811 0.0009718001
-0.6398018086 0.3579684839 0.0000000000 0.6013267850 0.3800980174 278.9464346784 0.0198035049 0.0010079393
-0.6539186383 0.3304477991 0.0000000000 0.5762704432 0.3566995645 302.4550282063 0.0198745982 0.0010503577
-0.6668878425 0.3023703373 0.0000000000 0.5527014385 0.3313232805 324.6226107321 0.0199421526 0.0010987690
-0.6786876315 0.2737838219 0.0000000000 0.5307957325 0.3040902885 345.2719208912 0.0200056846 0.0011528442
-0.6892981919 0.2447368156 0.0000000000 0.5107172988 0.2751379545 364.2375623391 0.0200647395 0.0012122140
-0.6987017176 0.2152786391 0.0000000000 0.4926167260 0.2446185962 381.3675255833 0.0201188943 0.0012764712
-0.7068824384 0.1854592891 0.0000000000 0.4766299749 0.2126980792 396.5245651513 0.0201677611 0.0013451740
-0.7138266441 0.1553293550 0.0000000000 0.4628772869 0.1795543051 409.5874271428 0.0202109900 0.0014178487
-0.7195227062 0.1249399354 0.0000000000 0.4514622250 0.1453755932 420.4519201743 0.0202482714 0.0014939930
-0.7239610962 0.0943425534 0.0000000000 0.4424708165 0.1103589698 429.0318180300 0.0202793386 0.0015730802
-0.7271344002 0.0635890712 0.0000000000 0.4359707701 0.0747083932 435.2595798752 0.0203039696 0.0016545624
-0.7290373301 0.0327316049 0.0000000000 0.4320107790 0.0386329577 439.0868810446 0.0203219887 0.0017378745
-0.7296667321 0.0018224384 0.0000000000 0.4306199563 0.0023451152 440.4849632505 0.0203332679 0.0018224388
-0.7290215910 -0.0290860627 0.0000000000 0.4318074731 -0.0339410767 439.4448282220 0.0203377278 0.0019076683
-0.7271030317 -0.0599415377 0.0000000000 0.4355624249 -0.0700116826 435.9772878935 0.0203353380 0.0019929717
-0.7239143171 -0.0906917163 0.0000000000 0.4418539499 -0.1056546068 430.1128794744 0.0203261177 0.0020777575
-0.7194608424 -0.1212845052 0.0000000000 0.4506316131 -0.1406613231 421.9016477394 0.0203101351 0.0021614378
-0.7137501268 -0.1516680737 0.0000000000 0.4618260039 -0.1748286327 411.4127717305 0.0202875071 0.0022434333
-0.7067918010 -0.1817909390 0.0000000000 0.4753494830 -0.2079604394 398.7340147894 0.0202583984 0.0023231767