LAMMPS (2 Aug 2023 - Update 3)
OMP_NUM_THREADS environment is not set. Defaulting to 1 thread. (src/comm.cpp:98)
  using 1 OpenMP thread(s) per MPI task
Loaded 1 plugins from F:\Lammps\LAMMPS 64-bit 2Aug2023\plugins
Lattice spacing in x,y,z = 4.05 4.05 4.05
Created triclinic box = (0 0 0) to (8.1 12.15 16.2) with tilt (0 0 0)
  1 by 1 by 1 MPI processor grid
Created 96 atoms
  using lattice units in triclinic box = (0 0 0) to (8.1 12.15 16.2) with tilt (0 0 0)
  create_atoms CPU = 0.000 seconds
Neighbor list info ...
  update: every = 1 steps, delay = 0 steps, check = yes
  max neighbors/atom: 2000, page size: 100000
  master list distance cutoff = 7.28721
  ghost atom cutoff = 7.28721
  1 neighbor lists, perpetual/occasional/extra = 1 0 0
  (1) pair eam/alloy, perpetual
      attributes: half, newton on
      pair build: half/nsq/newton
      stencil: none
      bin: none
Setting up cg style minimization ...
  Unit style    : metal
  Current step  : 0
WARNING: Energy due to 3 extra global DOFs will be included in minimizer energies
 (src/min.cpp:228)
Per MPI rank memory allocation (min/avg/max) = 4.452 | 4.452 | 4.452 Mbytes
   Step          Temp          PotEng         Press           Pxx            Pyy            Pzz            Pxy            Pxz            Pyz             Lx             Ly             Lz           Volume    
         0   0             -322.56         2.726913       2.726913       2.726913       2.726913       2.2732222e-12  5.6691094e-12  8.2700661e-12  8.1            12.15          16.2           1594.323     
         1   0             -322.56        -0.00024358028 -0.00024358023 -0.00024358039 -0.00024358023  3.6538783e-12 -1.8548314e-12  3.8351776e-12  8.1000093      12.150014      16.200019      1594.3285    
         2   0             -322.56         4.4066656e-10  4.3579472e-10  4.388001e-10   4.4740485e-10 -2.2216138e-11 -2.0291576e-12 -5.2995182e-13  8.1000093      12.150014      16.200019      1594.3285    
Loop time of 0.001026 on 1 procs for 2 steps with 96 atoms

0.0% CPU use with 1 MPI tasks x 1 OpenMP threads

Minimization stats:
  Stopping criterion = force tolerance
  Energy initial, next-to-last, final = 
     -322.559998860994  -322.559998865621  -322.559998865637
  Force two-norm initial, final = 0.0047000001 7.6230766e-13
  Force max component initial, final = 0.0027135463 4.452128e-13
  Final line search alpha, max atom move = 1 4.452128e-13
  Iterations, force evaluations = 2 4

MPI task timing breakdown:
Section |  min time  |  avg time  |  max time  |%varavg| %total
---------------------------------------------------------------
Pair    | 0.000834   | 0.000834   | 0.000834   |   0.0 | 81.29
Neigh   | 0          | 0          | 0          |   0.0 |  0.00
Comm    | 1.5e-05    | 1.5e-05    | 1.5e-05    |   0.0 |  1.46
Output  | 1.1e-05    | 1.1e-05    | 1.1e-05    |   0.0 |  1.07
Modify  | 0          | 0          | 0          |   0.0 |  0.00
Other   |            | 0.000166   |            |       | 16.18

Nlocal:             96 ave          96 max          96 min
Histogram: 1 0 0 0 0 0 0 0 0 0
Nghost:            976 ave         976 max         976 min
Histogram: 1 0 0 0 0 0 0 0 0 0
Neighs:           4128 ave        4128 max        4128 min
Histogram: 1 0 0 0 0 0 0 0 0 0

Total # of neighbors = 4128
Ave neighs/atom = 43
Neighbor list builds = 0
Dangerous builds = 0
Displacing atoms ...
System init for write_restart ...
OMP_NUM_THREADS environment is not set. Defaulting to 1 thread. (src/comm.cpp:98)
  using 1 OpenMP thread(s) per MPI task
Loaded 1 plugins from F:\Lammps\LAMMPS 64-bit 2Aug2023\plugins

The 'box' command has been removed and will be ignored

Reading restart file ...
  restart file = 2 Aug 2023, LAMMPS = 2 Aug 2023
  restoring atom style atomic from restart
  triclinic box = (-4.6617854e-06 -6.9926781e-06 -9.3235709e-06) to (8.1000047 12.150007 16.200009) with tilt (0 0 0)
  1 by 1 by 1 MPI processor grid
  pair style eam/alloy stores no restart info
  96 atoms
  read_restart CPU = 0.000 seconds
Changing box ...
  triclinic box = (-4.6617854e-06 -6.9926781e-06 -9.3235709e-06) to (8.0919047 12.150007 16.200009) with tilt (0 0 0)
  triclinic box = (-4.6617854e-06 -6.9926781e-06 -9.3235709e-06) to (8.0919047 12.150007 16.200009) with tilt (0 0 0)
  triclinic box = (-4.6617854e-06 -6.9926781e-06 -9.3235709e-06) to (8.0919047 12.150007 16.200009) with tilt (0 0 0)
Neighbor list info ...
  update: every = 1 steps, delay = 0 steps, check = yes
  max neighbors/atom: 2000, page size: 100000
  master list distance cutoff = 7.28721
  ghost atom cutoff = 7.28721
  1 neighbor lists, perpetual/occasional/extra = 1 0 0
  (1) pair eam/alloy, perpetual
      attributes: half, newton on
      pair build: half/nsq/newton
      stencil: none
      bin: none
Setting up cg style minimization ...
  Unit style    : metal
  Current step  : 2
Per MPI rank memory allocation (min/avg/max) = 4.447 | 4.447 | 4.447 Mbytes
   Step          Temp          PotEng         Press           Pxx            Pyy            Pzz            Pxy            Pxz            Pyz             Lx             Ly             Lz           Volume    
         2   0             -322.55943      790.05278      1139.42        615.36916      615.36916      7.7291339e-07  3.1161852e-06  1.706111e-06   8.0919093      12.150014      16.200019      1592.7342    
         3   0             -322.55943      790.05276      1139.42        615.36914      615.36914     -2.5013088e-07 -5.3723623e-07 -4.4086048e-07  8.0919093      12.150014      16.200019      1592.7342    
         4   0             -322.55943      790.05276      1139.42        615.36913      615.36913     -1.0014868e-07  9.1688604e-08  8.9299296e-08  8.0919093      12.150014      16.200019      1592.7342    
         5   0             -322.55943      790.05276      1139.42        615.36913      615.36913     -2.9921879e-08 -7.2042828e-09  1.121441e-08   8.0919093      12.150014      16.200019      1592.7342    
         6   0             -322.55943      790.05276      1139.42        615.36913      615.36913     -4.5602427e-08 -2.5823227e-09  2.2974106e-09  8.0919093      12.150014      16.200019      1592.7342    
         7   0             -322.55943      790.05276      1139.42        615.36913      615.36913     -3.0320101e-08  6.8175505e-10 -3.6510793e-10  8.0919093      12.150014      16.200019      1592.7342    
         8   0             -322.55943      790.05276      1139.42        615.36913      615.36913     -1.526381e-08  -9.836721e-10  -1.794845e-10   8.0919093      12.150014      16.200019      1592.7342    
         9   0             -322.55943      790.05276      1139.42        615.36913      615.36913     -6.9396177e-09 -1.6021333e-10 -5.8302099e-10  8.0919093      12.150014      16.200019      1592.7342    
        10   0             -322.55943      790.05276      1139.42        615.36913      615.36913     -2.3376245e-09  5.1334045e-10 -4.1110633e-10  8.0919093      12.150014      16.200019      1592.7342    
        11   0             -322.55943      790.05276      1139.42        615.36913      615.36913     -7.1363953e-10  3.3847782e-11 -1.1719471e-10  8.0919093      12.150014      16.200019      1592.7342    
        12   0             -322.55943      790.05276      1139.42        615.36913      615.36913     -2.9761681e-10  1.289743e-11  -1.0564276e-11  8.0919093      12.150014      16.200019      1592.7342    
        13   0             -322.55943      790.05276      1139.42        615.36913      615.36913     -4.7983593e-11  1.5917003e-11  3.1096035e-11  8.0919093      12.150014      16.200019      1592.7342    
        14   0             -322.55943      790.05276      1139.42        615.36913      615.36913     -1.3817665e-11 -1.1079313e-11 -1.2131293e-11  8.0919093      12.150014      16.200019      1592.7342    
        15   0             -322.55943      790.05276      1139.42        615.36913      615.36913     -1.5212956e-11  1.2002232e-11 -1.2703655e-12  8.0919093      12.150014      16.200019      1592.7342    
        16   0             -322.55943      790.05276      1139.42        615.36913      615.36913      6.1366885e-12  9.6032658e-12  1.0829517e-11  8.0919093      12.150014      16.200019      1592.7342    
        17   0             -322.55943      790.05276      1139.42        615.36913      615.36913     -2.252969e-11   1.9599982e-11  1.842728e-11   8.0919093      12.150014      16.200019      1592.7342    
        18   0             -322.55943      790.05276      1139.42        615.36913      615.36913      2.2603573e-12 -6.0573521e-12 -3.0792403e-11  8.0919093      12.150014      16.200019      1592.7342    
        19   0             -322.55943      790.05276      1139.42        615.36913      615.36913      2.5531468e-11  3.6211783e-12  1.9369584e-12  8.0919093      12.150014      16.200019      1592.7342    
        20   0             -322.55943      790.05276      1139.42        615.36913      615.36913      3.2057934e-12 -7.9307853e-12  1.7188325e-11  8.0919093      12.150014      16.200019      1592.7342    
        21   0             -322.55943      790.05276      1139.42        615.36913      615.36913      1.0881769e-11  7.552749e-12   1.2867686e-11  8.0919093      12.150014      16.200019      1592.7342    
        22   0             -322.55943      790.05276      1139.42        615.36913      615.36913      2.4177331e-12 -5.5921156e-12 -1.5753928e-11  8.0919093      12.150014      16.200019      1592.7342    
        23   0             -322.55943      790.05276      1139.42        615.36913      615.36913      1.5036424e-11  8.1149195e-12  1.7219735e-11  8.0919093      12.150014      16.200019      1592.7342    
        24   0             -322.55943      790.05276      1139.42        615.36913      615.36913     -1.8882105e-11  2.3392826e-12  1.4291612e-11  8.0919093      12.150014      16.200019      1592.7342    
        25   0             -322.55943      790.05276      1139.42        615.36913      615.36913      1.3687272e-12 -1.4376189e-12 -1.0438635e-11  8.0919093      12.150014      16.200019      1592.7342    
        26   0             -322.55943      790.05276      1139.42        615.36913      615.36913      9.8842695e-12 -1.1901028e-11  1.4466113e-11  8.0919093      12.150014      16.200019      1592.7342    
        27   0             -322.55943      790.05276      1139.42        615.36913      615.36913     -1.3142821e-11 -1.8819227e-13  4.9942116e-12  8.0919093      12.150014      16.200019      1592.7342    
Loop time of 0.008125 on 1 procs for 25 steps with 96 atoms

0.0% CPU use with 1 MPI tasks x 1 OpenMP threads

Minimization stats:
  Stopping criterion = force tolerance
  Energy initial, next-to-last, final = 
     -322.559432170854  -322.559432193401  -322.559432193403
  Force two-norm initial, final = 0.0005150449 9.53304e-11
  Force max component initial, final = 7.9771141e-05 1.6957429e-11
  Final line search alpha, max atom move = 1 1.6957429e-11
  Iterations, force evaluations = 25 50

MPI task timing breakdown:
Section |  min time  |  avg time  |  max time  |%varavg| %total
---------------------------------------------------------------
Pair    | 0.007617   | 0.007617   | 0.007617   |   0.0 | 93.75
Neigh   | 0          | 0          | 0          |   0.0 |  0.00
Comm    | 0.000135   | 0.000135   | 0.000135   |   0.0 |  1.66
Output  | 0.000247   | 0.000247   | 0.000247   |   0.0 |  3.04
Modify  | 0          | 0          | 0          |   0.0 |  0.00
Other   |            | 0.000126   |            |       |  1.55

Nlocal:             96 ave          96 max          96 min
Histogram: 1 0 0 0 0 0 0 0 0 0
Nghost:            976 ave         976 max         976 min
Histogram: 1 0 0 0 0 0 0 0 0 0
Neighs:           4128 ave        4128 max        4128 min
Histogram: 1 0 0 0 0 0 0 0 0 0

Total # of neighbors = 4128
Ave neighs/atom = 43
Neighbor list builds = 0
Dangerous builds = 0
OMP_NUM_THREADS environment is not set. Defaulting to 1 thread. (src/comm.cpp:98)
  using 1 OpenMP thread(s) per MPI task
Loaded 1 plugins from F:\Lammps\LAMMPS 64-bit 2Aug2023\plugins

The 'box' command has been removed and will be ignored

Reading restart file ...
  restart file = 2 Aug 2023, LAMMPS = 2 Aug 2023
  restoring atom style atomic from restart
  triclinic box = (-4.6617854e-06 -6.9926781e-06 -9.3235709e-06) to (8.1000047 12.150007 16.200009) with tilt (0 0 0)
  1 by 1 by 1 MPI processor grid
  pair style eam/alloy stores no restart info
  96 atoms
  read_restart CPU = 0.000 seconds
Changing box ...
  triclinic box = (-4.6617854e-06 -6.9926781e-06 -9.3235709e-06) to (8.1081047 12.150007 16.200009) with tilt (0 0 0)
  triclinic box = (-4.6617854e-06 -6.9926781e-06 -9.3235709e-06) to (8.1081047 12.150007 16.200009) with tilt (0 0 0)
  triclinic box = (-4.6617854e-06 -6.9926781e-06 -9.3235709e-06) to (8.1081047 12.150007 16.200009) with tilt (0 0 0)
Neighbor list info ...
  update: every = 1 steps, delay = 0 steps, check = yes
  max neighbors/atom: 2000, page size: 100000
  master list distance cutoff = 7.28721
  ghost atom cutoff = 7.28721
  1 neighbor lists, perpetual/occasional/extra = 1 0 0
  (1) pair eam/alloy, perpetual
      attributes: half, newton on
      pair build: half/nsq/newton
      stencil: none
      bin: none
Setting up cg style minimization ...
  Unit style    : metal
  Current step  : 2
Per MPI rank memory allocation (min/avg/max) = 4.447 | 4.447 | 4.447 Mbytes
   Step          Temp          PotEng         Press           Pxx            Pyy            Pzz            Pxy            Pxz            Pyz             Lx             Ly             Lz           Volume    
         2   0             -322.55943     -788.52402     -1135.7343     -614.91887     -614.91886      9.0242421e-07  3.2494189e-06  1.742082e-06   8.1081093      12.150014      16.200019      1595.9228    
         3   0             -322.55943     -788.52404     -1135.7344     -614.91889     -614.91889     -2.5023972e-07 -5.2108481e-07 -4.5058618e-07  8.1081093      12.150014      16.200019      1595.9228    
         4   0             -322.55943     -788.52405     -1135.7344     -614.91889     -614.91889     -9.4527799e-08  9.9102499e-08  8.8755864e-08  8.1081093      12.150014      16.200019      1595.9228    
         5   0             -322.55943     -788.52405     -1135.7344     -614.91889     -614.91889     -2.4998688e-08 -2.0810792e-09  1.0852999e-08  8.1081093      12.150014      16.200019      1595.9228    
         6   0             -322.55943     -788.52405     -1135.7344     -614.91889     -614.91889     -4.3852216e-08 -2.0842024e-10  2.0645802e-09  8.1081093      12.150014      16.200019      1595.9228    
         7   0             -322.55943     -788.52405     -1135.7344     -614.91889     -614.91889     -2.9464869e-08  1.2073479e-09 -4.3256596e-10  8.1081093      12.150014      16.200019      1595.9228    
         8   0             -322.55943     -788.52405     -1135.7344     -614.91889     -614.91889     -1.5022609e-08 -1.1120365e-09 -1.8105549e-10  8.1081093      12.150014      16.200019      1595.9228    
         9   0             -322.55943     -788.52405     -1135.7344     -614.91889     -614.91889     -6.81191e-09   -2.476473e-10  -5.4439251e-10  8.1081093      12.150014      16.200019      1595.9228    
        10   0             -322.55943     -788.52405     -1135.7344     -614.91889     -614.91889     -2.2398299e-09  5.3280464e-10 -4.0698998e-10  8.1081093      12.150014      16.200019      1595.9228    
        11   0             -322.55943     -788.52405     -1135.7344     -614.91889     -614.91889     -6.7749123e-10  7.8681186e-11 -1.0876147e-10  8.1081093      12.150014      16.200019      1595.9228    
        12   0             -322.55943     -788.52405     -1135.7344     -614.91889     -614.91889     -2.8401947e-10  1.6911313e-11  2.0539499e-11  8.1081093      12.150014      16.200019      1595.9228    
        13   0             -322.55943     -788.52405     -1135.7344     -614.91889     -614.91889     -3.565681e-11   1.2743795e-11  1.1285056e-11  8.1081093      12.150014      16.200019      1595.9228    
        14   0             -322.55943     -788.52405     -1135.7344     -614.91889     -614.91889     -3.0422081e-11 -1.3259372e-11 -2.5565529e-12  8.1081093      12.150014      16.200019      1595.9228    
        15   0             -322.55943     -788.52405     -1135.7344     -614.91889     -614.91889      6.5658019e-12 -2.5534448e-12 -3.7477533e-12  8.1081093      12.150014      16.200019      1595.9228    
        16   0             -322.55943     -788.52405     -1135.7344     -614.91889     -614.91889     -5.0533763e-13 -1.4587051e-11 -3.7320796e-11  8.1081093      12.150014      16.200019      1595.9228    
        17   0             -322.55943     -788.52405     -1135.7344     -614.91889     -614.91889     -5.8900926e-12  2.84384e-12   -1.5760765e-11  8.1081093      12.150014      16.200019      1595.9228    
        18   0             -322.55943     -788.52405     -1135.7344     -614.91889     -614.91889     -3.6749993e-12 -4.8889072e-12 -1.7227126e-11  8.1081093      12.150014      16.200019      1595.9228    
        19   0             -322.55943     -788.52405     -1135.7344     -614.91889     -614.91889     -1.380812e-11   2.8197002e-11  9.0071468e-12  8.1081093      12.150014      16.200019      1595.9228    
        20   0             -322.55943     -788.52405     -1135.7344     -614.91889     -614.91889      3.5057173e-12  1.1931604e-11 -1.2228961e-11  8.1081093      12.150014      16.200019      1595.9228    
        21   0             -322.55943     -788.52405     -1135.7344     -614.91889     -614.91889     -1.3040112e-11  3.1236706e-11 -1.5356732e-11  8.1081093      12.150014      16.200019      1595.9228    
        22   0             -322.55943     -788.52405     -1135.7344     -614.91889     -614.91889     -1.3279291e-11 -2.2767863e-11 -2.687167e-11   8.1081093      12.150014      16.200019      1595.9228    
        23   0             -322.55943     -788.52405     -1135.7344     -614.91889     -614.91889     -1.1829132e-11 -1.1642936e-11  1.2504121e-11  8.1081093      12.150014      16.200019      1595.9228    
        24   0             -322.55943     -788.52405     -1135.7344     -614.91889     -614.91889      4.8640533e-12 -1.2486734e-11  2.8233539e-11  8.1081093      12.150014      16.200019      1595.9228    
        25   0             -322.55943     -788.52405     -1135.7344     -614.91889     -614.91889      2.214801e-12  -2.8091479e-11 -1.3280839e-11  8.1081093      12.150014      16.200019      1595.9228    
        26   0             -322.55943     -788.52405     -1135.7344     -614.91889     -614.91889     -1.2357344e-11  1.163672e-11   2.0710168e-11  8.1081093      12.150014      16.200019      1595.9228    
        27   0             -322.55943     -788.52405     -1135.7344     -614.91889     -614.91889      3.0671295e-13 -4.8363602e-13  1.000678e-11   8.1081093      12.150014      16.200019      1595.9228    
Loop time of 0.007517 on 1 procs for 25 steps with 96 atoms

207.9% CPU use with 1 MPI tasks x 1 OpenMP threads

Minimization stats:
  Stopping criterion = force tolerance
  Energy initial, next-to-last, final = 
     -322.559433390255   -322.55943341275   -322.55943341275
  Force two-norm initial, final = 0.00051346464 9.0739786e-11
  Force max component initial, final = 7.9579769e-05 1.6174409e-11
  Final line search alpha, max atom move = 1 1.6174409e-11
  Iterations, force evaluations = 25 50

MPI task timing breakdown:
Section |  min time  |  avg time  |  max time  |%varavg| %total
---------------------------------------------------------------
Pair    | 0.007041   | 0.007041   | 0.007041   |   0.0 | 93.67
Neigh   | 0          | 0          | 0          |   0.0 |  0.00
Comm    | 0.000141   | 0.000141   | 0.000141   |   0.0 |  1.88
Output  | 0.000225   | 0.000225   | 0.000225   |   0.0 |  2.99
Modify  | 0          | 0          | 0          |   0.0 |  0.00
Other   |            | 0.00011    |            |       |  1.46

Nlocal:             96 ave          96 max          96 min
Histogram: 1 0 0 0 0 0 0 0 0 0
Nghost:            976 ave         976 max         976 min
Histogram: 1 0 0 0 0 0 0 0 0 0
Neighs:           4128 ave        4128 max        4128 min
Histogram: 1 0 0 0 0 0 0 0 0 0

Total # of neighbors = 4128
Ave neighs/atom = 43
Neighbor list builds = 0
Dangerous builds = 0
OMP_NUM_THREADS environment is not set. Defaulting to 1 thread. (src/comm.cpp:98)
  using 1 OpenMP thread(s) per MPI task
Loaded 1 plugins from F:\Lammps\LAMMPS 64-bit 2Aug2023\plugins

The 'box' command has been removed and will be ignored

Reading restart file ...
  restart file = 2 Aug 2023, LAMMPS = 2 Aug 2023
  restoring atom style atomic from restart
  triclinic box = (-4.6617854e-06 -6.9926781e-06 -9.3235709e-06) to (8.1000047 12.150007 16.200009) with tilt (0 0 0)
  1 by 1 by 1 MPI processor grid
  pair style eam/alloy stores no restart info
  96 atoms
  read_restart CPU = 0.000 seconds
Changing box ...
  triclinic box = (-4.6617854e-06 -6.9926781e-06 -9.3235709e-06) to (8.1000047 12.137857 16.200009) with tilt (0 0 0)
  triclinic box = (-4.6617854e-06 -6.9926781e-06 -9.3235709e-06) to (8.1000047 12.137857 16.200009) with tilt (0 0 0)
Neighbor list info ...
  update: every = 1 steps, delay = 0 steps, check = yes
  max neighbors/atom: 2000, page size: 100000
  master list distance cutoff = 7.28721
  ghost atom cutoff = 7.28721
  1 neighbor lists, perpetual/occasional/extra = 1 0 0
  (1) pair eam/alloy, perpetual
      attributes: half, newton on
      pair build: half/nsq/newton
      stencil: none
      bin: none
Setting up cg style minimization ...
  Unit style    : metal
  Current step  : 2
Per MPI rank memory allocation (min/avg/max) = 4.447 | 4.447 | 4.447 Mbytes
   Step          Temp          PotEng         Press           Pxx            Pyy            Pzz            Pxy            Pxz            Pyz             Lx             Ly             Lz           Volume    
         2   0             -322.55943      790.05278      615.36916      1139.42        615.36916      7.7926066e-07  3.1912502e-06  1.6565709e-06  8.1000093      12.137864      16.200019      1592.7342    
         3   0             -322.55943      790.05276      615.36914      1139.42        615.36914     -2.4447785e-07 -5.3240261e-07 -4.4943887e-07  8.1000093      12.137864      16.200019      1592.7342    
         4   0             -322.55943      790.05276      615.36913      1139.42        615.36913     -9.7850644e-08  9.4684241e-08  8.6305317e-08  8.1000093      12.137864      16.200019      1592.7342    
         5   0             -322.55943      790.05276      615.36913      1139.42        615.36913     -2.8459615e-08 -5.4037053e-09  1.1302079e-08  8.1000093      12.137864      16.200019      1592.7342    
         6   0             -322.55943      790.05276      615.36913      1139.42        615.36913     -4.5280569e-08 -1.5981857e-09  2.2730818e-09  8.1000093      12.137864      16.200019      1592.7342    
         7   0             -322.55943      790.05276      615.36913      1139.42        615.36913     -3.0229722e-08  9.0905397e-10 -4.4120771e-10  8.1000093      12.137864      16.200019      1592.7342    
         8   0             -322.55943      790.05276      615.36913      1139.42        615.36913     -1.5229444e-08 -1.0627392e-09 -2.3819004e-10  8.1000093      12.137864      16.200019      1592.7342    
         9   0             -322.55943      790.05276      615.36913      1139.42        615.36913     -6.9606611e-09 -1.8096092e-10 -6.0742666e-10  8.1000093      12.137864      16.200019      1592.7342    
        10   0             -322.55943      790.05276      615.36913      1139.42        615.36913     -2.3403575e-09  5.2678249e-10 -4.3307947e-10  8.1000093      12.137864      16.200019      1592.7342    
        11   0             -322.55943      790.05276      615.36913      1139.42        615.36913     -7.0917211e-10  4.7288271e-11 -1.1149551e-10  8.1000093      12.137864      16.200019      1592.7342    
        12   0             -322.55943      790.05276      615.36913      1139.42        615.36913     -2.9417353e-10  2.2706929e-11  3.5950646e-11  8.1000093      12.137864      16.200019      1592.7342    
        13   0             -322.55943      790.05276      615.36913      1139.42        615.36913     -3.2792921e-11  1.3798921e-11  1.0155944e-11  8.1000093      12.137864      16.200019      1592.7342    
        14   0             -322.55943      790.05276      615.36913      1139.42        615.36913     -2.694095e-11  -9.391074e-12  -1.9223003e-11  8.1000093      12.137864      16.200019      1592.7342    
        15   0             -322.55943      790.05276      615.36913      1139.42        615.36913      2.7252073e-12  1.1747008e-11  8.6691976e-12  8.1000093      12.137864      16.200019      1592.7342    
        16   0             -322.55943      790.05276      615.36913      1139.42        615.36913      2.0767455e-11  2.8049559e-13  8.5191269e-12  8.1000093      12.137864      16.200019      1592.7342    
        17   0             -322.55943      790.05276      615.36913      1139.42        615.36913     -9.9574584e-12  1.1942011e-11 -1.6944023e-11  8.1000093      12.137864      16.200019      1592.7342    
        18   0             -322.55943      790.05276      615.36913      1139.42        615.36913     -1.3511296e-11 -2.2895919e-12 -3.0202591e-11  8.1000093      12.137864      16.200019      1592.7342    
        19   0             -322.55943      790.05276      615.36913      1139.42        615.36913      5.3049041e-12 -1.4684387e-12 -1.4679004e-11  8.1000093      12.137864      16.200019      1592.7342    
        20   0             -322.55943      790.05276      615.36913      1139.42        615.36913     -1.2090369e-11 -2.3805201e-11 -1.4832564e-11  8.1000093      12.137864      16.200019      1592.7342    
        21   0             -322.55943      790.05276      615.36913      1139.42        615.36913     -3.2861105e-12  6.5340327e-12 -1.5335126e-11  8.1000093      12.137864      16.200019      1592.7342    
        22   0             -322.55943      790.05276      615.36913      1139.42        615.36913     -6.9256975e-12 -6.7725055e-12 -3.2743322e-11  8.1000093      12.137864      16.200019      1592.7342    
        23   0             -322.55943      790.05276      615.36913      1139.42        615.36913      2.8373769e-12 -8.6087952e-12  1.2180153e-11  8.1000093      12.137864      16.200019      1592.7342    
        24   0             -322.55943      790.05276      615.36913      1139.42        615.36913      1.4483825e-12 -2.961466e-12  -1.5303716e-11  8.1000093      12.137864      16.200019      1592.7342    
        25   0             -322.55943      790.05276      615.36913      1139.42        615.36913      3.0172207e-12 -4.056022e-12  -4.1112378e-12  8.1000093      12.137864      16.200019      1592.7342    
        26   0             -322.55943      790.05276      615.36913      1139.42        615.36913     -7.2459348e-12 -3.2929936e-12 -4.1269429e-11  8.1000093      12.137864      16.200019      1592.7342    
        27   0             -322.55943      790.05276      615.36913      1139.42        615.36913     -3.4113758e-12 -2.0285567e-11  1.5307206e-11  8.1000093      12.137864      16.200019      1592.7342    
Loop time of 0.00715 on 1 procs for 25 steps with 96 atoms

218.5% CPU use with 1 MPI tasks x 1 OpenMP threads

Minimization stats:
  Stopping criterion = force tolerance
  Energy initial, next-to-last, final = 
     -322.559432170854  -322.559432193398    -322.5594321934
  Force two-norm initial, final = 0.0005150084 9.6260594e-11
  Force max component initial, final = 7.9849528e-05 1.7417248e-11
  Final line search alpha, max atom move = 1 1.7417248e-11
  Iterations, force evaluations = 25 50

MPI task timing breakdown:
Section |  min time  |  avg time  |  max time  |%varavg| %total
---------------------------------------------------------------
Pair    | 0.006647   | 0.006647   | 0.006647   |   0.0 | 92.97
Neigh   | 0          | 0          | 0          |   0.0 |  0.00
Comm    | 0.000152   | 0.000152   | 0.000152   |   0.0 |  2.13
Output  | 0.000237   | 0.000237   | 0.000237   |   0.0 |  3.31
Modify  | 0          | 0          | 0          |   0.0 |  0.00
Other   |            | 0.000114   |            |       |  1.59

Nlocal:             96 ave          96 max          96 min
Histogram: 1 0 0 0 0 0 0 0 0 0
Nghost:            976 ave         976 max         976 min
Histogram: 1 0 0 0 0 0 0 0 0 0
Neighs:           4128 ave        4128 max        4128 min
Histogram: 1 0 0 0 0 0 0 0 0 0

Total # of neighbors = 4128
Ave neighs/atom = 43
Neighbor list builds = 0
Dangerous builds = 0
OMP_NUM_THREADS environment is not set. Defaulting to 1 thread. (src/comm.cpp:98)
  using 1 OpenMP thread(s) per MPI task
Loaded 1 plugins from F:\Lammps\LAMMPS 64-bit 2Aug2023\plugins

The 'box' command has been removed and will be ignored

Reading restart file ...
  restart file = 2 Aug 2023, LAMMPS = 2 Aug 2023
  restoring atom style atomic from restart
  triclinic box = (-4.6617854e-06 -6.9926781e-06 -9.3235709e-06) to (8.1000047 12.150007 16.200009) with tilt (0 0 0)
  1 by 1 by 1 MPI processor grid
  pair style eam/alloy stores no restart info
  96 atoms
  read_restart CPU = 0.000 seconds
Changing box ...
  triclinic box = (-4.6617854e-06 -6.9926781e-06 -9.3235709e-06) to (8.1000047 12.162157 16.200009) with tilt (0 0 0)
  triclinic box = (-4.6617854e-06 -6.9926781e-06 -9.3235709e-06) to (8.1000047 12.162157 16.200009) with tilt (0 0 0)
Neighbor list info ...
  update: every = 1 steps, delay = 0 steps, check = yes
  max neighbors/atom: 2000, page size: 100000
  master list distance cutoff = 7.28721
  ghost atom cutoff = 7.28721
  1 neighbor lists, perpetual/occasional/extra = 1 0 0
  (1) pair eam/alloy, perpetual
      attributes: half, newton on
      pair build: half/nsq/newton
      stencil: none
      bin: none
Setting up cg style minimization ...
  Unit style    : metal
  Current step  : 2
Per MPI rank memory allocation (min/avg/max) = 4.447 | 4.447 | 4.447 Mbytes
   Step          Temp          PotEng         Press           Pxx            Pyy            Pzz            Pxy            Pxz            Pyz             Lx             Ly             Lz           Volume    
         2   0             -322.55943     -788.52402     -614.91887     -1135.7343     -614.91886      8.983273e-07   3.2128855e-06  1.7287823e-06  8.1000093      12.162164      16.200019      1595.9228    
         3   0             -322.55943     -788.52404     -614.91889     -1135.7344     -614.91889     -2.520408e-07  -5.4854931e-07 -4.3810274e-07  8.1000093      12.162164      16.200019      1595.9228    
         4   0             -322.55943     -788.52405     -614.91889     -1135.7344     -614.91889     -9.5286649e-08  9.4532414e-08  8.6602832e-08  8.1000093      12.162164      16.200019      1595.9228    
         5   0             -322.55943     -788.52405     -614.91889     -1135.7344     -614.91889     -2.5517103e-08 -5.5025466e-09  8.9560332e-09  8.1000093      12.162164      16.200019      1595.9228    
         6   0             -322.55943     -788.52405     -614.91889     -1135.7344     -614.91889     -4.3979036e-08 -1.8236949e-09  1.5233711e-09  8.1000093      12.162164      16.200019      1595.9228    
         7   0             -322.55943     -788.52405     -614.91889     -1135.7344     -614.91889     -2.9494052e-08  8.7003626e-10 -5.1394027e-10  8.1000093      12.162164      16.200019      1595.9228    
         8   0             -322.55943     -788.52405     -614.91889     -1135.7344     -614.91889     -1.5077789e-08 -1.0576346e-09 -1.0396881e-10  8.1000093      12.162164      16.200019      1595.9228    
         9   0             -322.55943     -788.52405     -614.91889     -1135.7344     -614.91889     -6.8061838e-09 -2.0452493e-10 -4.8788015e-10  8.1000093      12.162164      16.200019      1595.9228    
        10   0             -322.55943     -788.52405     -614.91889     -1135.7344     -614.91889     -2.2366425e-09  5.2701349e-10 -3.5336507e-10  8.1000093      12.162164      16.200019      1595.9228    
        11   0             -322.55943     -788.52405     -614.91889     -1135.7344     -614.91889     -6.8250008e-10  3.6482233e-11 -7.4599795e-11  8.1000093      12.162164      16.200019      1595.9228    
        12   0             -322.55943     -788.52405     -614.91889     -1135.7344     -614.91889     -2.7122085e-10 -1.828186e-13  -1.2817595e-12  8.1000093      12.162164      16.200019      1595.9228    
        13   0             -322.55943     -788.52405     -614.91889     -1135.7344     -614.91889     -1.0081421e-11 -1.5124333e-11  4.169898e-11   8.1000093      12.162164      16.200019      1595.9228    
        14   0             -322.55943     -788.52405     -614.91889     -1135.7344     -614.91889     -2.6011709e-11  2.6893694e-11 -2.5823274e-11  8.1000093      12.162164      16.200019      1595.9228    
        15   0             -322.55943     -788.52405     -614.91889     -1135.7344     -614.91889     -5.9023597e-12  1.4297944e-11 -8.6832239e-12  8.1000093      12.162164      16.200019      1595.9228    
        16   0             -322.55943     -788.52405     -614.91889     -1135.7344     -614.91889     -1.1114354e-11 -1.033224e-11   7.9308868e-12  8.1000093      12.162164      16.200019      1595.9228    
        17   0             -322.55943     -788.52405     -614.91889     -1135.7344     -614.91889      9.8294239e-12  1.1396975e-11 -7.9413359e-12  8.1000093      12.162164      16.200019      1595.9228    
        18   0             -322.55943     -788.52405     -614.91889     -1135.7344     -614.91889     -1.6088218e-11 -3.9661153e-12 -2.1636657e-11  8.1000093      12.162164      16.200019      1595.9228    
        19   0             -322.55943     -788.52405     -614.91889     -1135.7344     -614.91889     -3.4317844e-14  1.9310752e-11 -1.7923735e-11  8.1000093      12.162164      16.200019      1595.9228    
        20   0             -322.55943     -788.52405     -614.91889     -1135.7344     -614.91889     -2.1733535e-11  1.3661006e-11 -3.9428036e-12  8.1000093      12.162164      16.200019      1595.9228    
        21   0             -322.55943     -788.52405     -614.91889     -1135.7344     -614.91889      1.2489944e-11  1.5675937e-12  4.4269465e-12  8.1000093      12.162164      16.200019      1595.9228    
        22   0             -322.55943     -788.52405     -614.91889     -1135.7344     -614.91889     -2.4480617e-12  1.3097544e-12  1.2580748e-11  8.1000093      12.162164      16.200019      1595.9228    
        23   0             -322.55943     -788.52405     -614.91889     -1135.7344     -614.91889     -9.4910685e-12 -1.704594e-11   1.0236661e-11  8.1000093      12.162164      16.200019      1595.9228    
        24   0             -322.55943     -788.52405     -614.91889     -1135.7344     -614.91889      9.1507883e-12  1.3260665e-12 -8.3941314e-13  8.1000093      12.162164      16.200019      1595.9228    
        25   0             -322.55943     -788.52405     -614.91889     -1135.7344     -614.91889      7.1880298e-12  3.6109053e-12 -1.7080838e-11  8.1000093      12.162164      16.200019      1595.9228    
        26   0             -322.55943     -788.52405     -614.91889     -1135.7344     -614.91889      1.3101959e-11 -6.7999861e-12 -5.9908324e-13  8.1000093      12.162164      16.200019      1595.9228    
        27   0             -322.55943     -788.52405     -614.91889     -1135.7344     -614.91889     -1.2156883e-11 -7.8088637e-12  3.4952327e-11  8.1000093      12.162164      16.200019      1595.9228    
Loop time of 0.007095 on 1 procs for 25 steps with 96 atoms

220.2% CPU use with 1 MPI tasks x 1 OpenMP threads

Minimization stats:
  Stopping criterion = force tolerance
  Energy initial, next-to-last, final = 
     -322.559433390255  -322.559433412748  -322.559433412751
  Force two-norm initial, final = 0.00051350062 8.9711011e-11
  Force max component initial, final = 7.9501421e-05 1.580417e-11
  Final line search alpha, max atom move = 1 1.580417e-11
  Iterations, force evaluations = 25 50

MPI task timing breakdown:
Section |  min time  |  avg time  |  max time  |%varavg| %total
---------------------------------------------------------------
Pair    | 0.006638   | 0.006638   | 0.006638   |   0.0 | 93.56
Neigh   | 0          | 0          | 0          |   0.0 |  0.00
Comm    | 0.000131   | 0.000131   | 0.000131   |   0.0 |  1.85
Output  | 0.000214   | 0.000214   | 0.000214   |   0.0 |  3.02
Modify  | 0          | 0          | 0          |   0.0 |  0.00
Other   |            | 0.000112   |            |       |  1.58

Nlocal:             96 ave          96 max          96 min
Histogram: 1 0 0 0 0 0 0 0 0 0
Nghost:            976 ave         976 max         976 min
Histogram: 1 0 0 0 0 0 0 0 0 0
Neighs:           4128 ave        4128 max        4128 min
Histogram: 1 0 0 0 0 0 0 0 0 0

Total # of neighbors = 4128
Ave neighs/atom = 43
Neighbor list builds = 0
Dangerous builds = 0
OMP_NUM_THREADS environment is not set. Defaulting to 1 thread. (src/comm.cpp:98)
  using 1 OpenMP thread(s) per MPI task
Loaded 1 plugins from F:\Lammps\LAMMPS 64-bit 2Aug2023\plugins

The 'box' command has been removed and will be ignored

Reading restart file ...
  restart file = 2 Aug 2023, LAMMPS = 2 Aug 2023
  restoring atom style atomic from restart
  triclinic box = (-4.6617854e-06 -6.9926781e-06 -9.3235709e-06) to (8.1000047 12.150007 16.200009) with tilt (0 0 0)
  1 by 1 by 1 MPI processor grid
  pair style eam/alloy stores no restart info
  96 atoms
  read_restart CPU = 0.000 seconds
Changing box ...
  triclinic box = (-4.6617854e-06 -6.9926781e-06 -9.3235709e-06) to (8.1000047 12.150007 16.183809) with tilt (0 0 0)
Neighbor list info ...
  update: every = 1 steps, delay = 0 steps, check = yes
  max neighbors/atom: 2000, page size: 100000
  master list distance cutoff = 7.28721
  ghost atom cutoff = 7.28721
  1 neighbor lists, perpetual/occasional/extra = 1 0 0
  (1) pair eam/alloy, perpetual
      attributes: half, newton on
      pair build: half/nsq/newton
      stencil: none
      bin: none
Setting up cg style minimization ...
  Unit style    : metal
  Current step  : 2
Per MPI rank memory allocation (min/avg/max) = 4.447 | 4.447 | 4.447 Mbytes
   Step          Temp          PotEng         Press           Pxx            Pyy            Pzz            Pxy            Pxz            Pyz             Lx             Ly             Lz           Volume    
         2   0             -322.55943      790.05278      615.36916      615.36916      1139.42        8.1843491e-07  3.1321907e-06  1.7023331e-06  8.1000093      12.150014      16.183819      1592.7342    
         3   0             -322.55943      790.05276      615.36914      615.36914      1139.42       -2.4921612e-07 -5.3382355e-07 -4.4691429e-07  8.1000093      12.150014      16.183819      1592.7342    
         4   0             -322.55943      790.05276      615.36913      615.36913      1139.42       -9.7748882e-08  9.3018146e-08  8.7437942e-08  8.1000093      12.150014      16.183819      1592.7342    
         5   0             -322.55943      790.05276      615.36913      615.36913      1139.42       -2.8577271e-08 -6.1418274e-09  1.1906989e-08  8.1000093      12.150014      16.183819      1592.7342    
         6   0             -322.55943      790.05276      615.36913      615.36913      1139.42       -4.5541986e-08 -2.1543356e-09  2.6921349e-09  8.1000093      12.150014      16.183819      1592.7342    
         7   0             -322.55943      790.05276      615.36913      615.36913      1139.42       -3.035185e-08   7.8145883e-10 -2.7128935e-10  8.1000093      12.150014      16.183819      1592.7342    
         8   0             -322.55943      790.05276      615.36913      615.36913      1139.42       -1.5386183e-08 -1.0368959e-09 -2.0519893e-10  8.1000093      12.150014      16.183819      1592.7342    
         9   0             -322.55943      790.05276      615.36913      615.36913      1139.42       -6.9742394e-09 -1.7239057e-10 -5.9076184e-10  8.1000093      12.150014      16.183819      1592.7342    
        10   0             -322.55943      790.05276      615.36913      615.36913      1139.42       -2.3170401e-09  5.1509345e-10 -3.929757e-10   8.1000093      12.150014      16.183819      1592.7342    
        11   0             -322.55943      790.05276      615.36913      615.36913      1139.42       -7.1378284e-10  4.8682505e-11 -8.0996271e-11  8.1000093      12.150014      16.183819      1592.7342    
        12   0             -322.55943      790.05276      615.36913      615.36913      1139.42       -2.9549129e-10  5.5506915e-12  1.1974242e-11  8.1000093      12.150014      16.183819      1592.7342    
        13   0             -322.55943      790.05276      615.36913      615.36913      1139.42       -2.6552137e-11  1.2391384e-11  1.5726008e-11  8.1000093      12.150014      16.183819      1592.7342    
        14   0             -322.55943      790.05276      615.36913      615.36913      1139.42       -1.9298351e-11  7.8560958e-12 -3.7063961e-12  8.1000093      12.150014      16.183819      1592.7342    
        15   0             -322.55943      790.05276      615.36913      615.36913      1139.42       -7.1511919e-12 -2.6935939e-11 -1.9013602e-11  8.1000093      12.150014      16.183819      1592.7342    
        16   0             -322.55943      790.05276      615.36913      615.36913      1139.42       -4.113128e-12   3.0632239e-12 -1.3108497e-11  8.1000093      12.150014      16.183819      1592.7342    
        17   0             -322.55943      790.05276      615.36913      615.36913      1139.42        1.1105464e-11  1.6021736e-11 -9.4404909e-12  8.1000093      12.150014      16.183819      1592.7342    
        18   0             -322.55943      790.05276      615.36913      615.36913      1139.42        9.9907511e-12  1.1013197e-11 -8.5854372e-13  8.1000093      12.150014      16.183819      1592.7342    
        19   0             -322.55943      790.05276      615.36913      615.36913      1139.42        1.269445e-12   9.7085575e-12  1.9578985e-12  8.1000093      12.150014      16.183819      1592.7342    
        20   0             -322.55943      790.05276      615.36913      615.36913      1139.42        7.2163368e-13 -4.3846876e-12  2.7086007e-11  8.1000093      12.150014      16.183819      1592.7342    
        21   0             -322.55943      790.05276      615.36913      615.36913      1139.42        2.9794618e-12 -2.6674032e-11 -3.2750302e-11  8.1000093      12.150014      16.183819      1592.7342    
        22   0             -322.55943      790.05276      615.36913      615.36913      1139.42       -2.317322e-12   1.2373301e-11 -1.7135974e-11  8.1000093      12.150014      16.183819      1592.7342    
        23   0             -322.55943      790.05276      615.36913      615.36913      1139.42       -9.7616315e-12 -2.181102e-11   1.4525443e-11  8.1000093      12.150014      16.183819      1592.7342    
        24   0             -322.55943      790.05276      615.36913      615.36913      1139.42       -5.4519609e-12 -1.1546483e-12 -2.5752822e-11  8.1000093      12.150014      16.183819      1592.7342    
        25   0             -322.55943      790.05276      615.36913      615.36913      1139.42        2.1430856e-11 -2.153415e-12   5.8806755e-12  8.1000093      12.150014      16.183819      1592.7342    
        26   0             -322.55943      790.05276      615.36913      615.36913      1139.42        1.0029207e-11  1.5449433e-11 -5.7480549e-12  8.1000093      12.150014      16.183819      1592.7342    
        27   0             -322.55943      790.05276      615.36913      615.36913      1139.42        4.8857825e-12 -5.4235681e-12 -1.6518242e-11  8.1000093      12.150014      16.183819      1592.7342    
Loop time of 0.007129 on 1 procs for 25 steps with 96 atoms

0.0% CPU use with 1 MPI tasks x 1 OpenMP threads

Minimization stats:
  Stopping criterion = force tolerance
  Energy initial, next-to-last, final = 
      -322.55943217085  -322.559432193401  -322.559432193401
  Force two-norm initial, final = 0.00051506148 7.2742403e-11
  Force max component initial, final = 7.9801351e-05 1.2769612e-11
  Final line search alpha, max atom move = 1 1.2769612e-11
  Iterations, force evaluations = 25 50

MPI task timing breakdown:
Section |  min time  |  avg time  |  max time  |%varavg| %total
---------------------------------------------------------------
Pair    | 0.006655   | 0.006655   | 0.006655   |   0.0 | 93.35
Neigh   | 0          | 0          | 0          |   0.0 |  0.00
Comm    | 0.000149   | 0.000149   | 0.000149   |   0.0 |  2.09
Output  | 0.000223   | 0.000223   | 0.000223   |   0.0 |  3.13
Modify  | 0          | 0          | 0          |   0.0 |  0.00
Other   |            | 0.000102   |            |       |  1.43

Nlocal:             96 ave          96 max          96 min
Histogram: 1 0 0 0 0 0 0 0 0 0
Nghost:            976 ave         976 max         976 min
Histogram: 1 0 0 0 0 0 0 0 0 0
Neighs:           4128 ave        4128 max        4128 min
Histogram: 1 0 0 0 0 0 0 0 0 0

Total # of neighbors = 4128
Ave neighs/atom = 43
Neighbor list builds = 0
Dangerous builds = 0
OMP_NUM_THREADS environment is not set. Defaulting to 1 thread. (src/comm.cpp:98)
  using 1 OpenMP thread(s) per MPI task
Loaded 1 plugins from F:\Lammps\LAMMPS 64-bit 2Aug2023\plugins

The 'box' command has been removed and will be ignored

Reading restart file ...
  restart file = 2 Aug 2023, LAMMPS = 2 Aug 2023
  restoring atom style atomic from restart
  triclinic box = (-4.6617854e-06 -6.9926781e-06 -9.3235709e-06) to (8.1000047 12.150007 16.200009) with tilt (0 0 0)
  1 by 1 by 1 MPI processor grid
  pair style eam/alloy stores no restart info
  96 atoms
  read_restart CPU = 0.000 seconds
Changing box ...
  triclinic box = (-4.6617854e-06 -6.9926781e-06 -9.3235709e-06) to (8.1000047 12.150007 16.216209) with tilt (0 0 0)
Neighbor list info ...
  update: every = 1 steps, delay = 0 steps, check = yes
  max neighbors/atom: 2000, page size: 100000
  master list distance cutoff = 7.28721
  ghost atom cutoff = 7.28721
  1 neighbor lists, perpetual/occasional/extra = 1 0 0
  (1) pair eam/alloy, perpetual
      attributes: half, newton on
      pair build: half/nsq/newton
      stencil: none
      bin: none
Setting up cg style minimization ...
  Unit style    : metal
  Current step  : 2
Per MPI rank memory allocation (min/avg/max) = 4.447 | 4.447 | 4.447 Mbytes
   Step          Temp          PotEng         Press           Pxx            Pyy            Pzz            Pxy            Pxz            Pyz             Lx             Ly             Lz           Volume    
         2   0             -322.55943     -788.52402     -614.91887     -614.91887     -1135.7343      7.5232754e-07  3.2443099e-06  1.7108344e-06  8.1000093      12.150014      16.216219      1595.9228    
         3   0             -322.55943     -788.52404     -614.91889     -614.91889     -1135.7344     -2.658635e-07  -5.2239683e-07 -4.3844027e-07  8.1000093      12.150014      16.216219      1595.9228    
         4   0             -322.55943     -788.52405     -614.91889     -614.91889     -1135.7344     -9.9734148e-08  9.8964402e-08  8.6196197e-08  8.1000093      12.150014      16.216219      1595.9228    
         5   0             -322.55943     -788.52405     -614.91889     -614.91889     -1135.7344     -2.6948828e-08 -2.4501097e-09  8.732589e-09   8.1000093      12.150014      16.216219      1595.9228    
         6   0             -322.55943     -788.52405     -614.91889     -614.91889     -1135.7344     -4.4467329e-08 -4.0280728e-10  1.3748612e-09  8.1000093      12.150014      16.216219      1595.9228    
         7   0             -322.55943     -788.52405     -614.91889     -614.91889     -1135.7344     -2.968499e-08   1.1789417e-09 -5.8264676e-10  8.1000093      12.150014      16.216219      1595.9228    
         8   0             -322.55943     -788.52405     -614.91889     -614.91889     -1135.7344     -1.4929409e-08 -1.1058054e-09 -9.8995022e-11  8.1000093      12.150014      16.216219      1595.9228    
         9   0             -322.55943     -788.52405     -614.91889     -614.91889     -1135.7344     -6.8242233e-09 -2.382582e-10  -4.8249537e-10  8.1000093      12.150014      16.216219      1595.9228    
        10   0             -322.55943     -788.52405     -614.91889     -614.91889     -1135.7344     -2.2867879e-09  5.3403806e-10 -3.6968312e-10  8.1000093      12.150014      16.216219      1595.9228    
        11   0             -322.55943     -788.52405     -614.91889     -614.91889     -1135.7344     -6.6475693e-10  3.4526607e-11 -9.9754325e-11  8.1000093      12.150014      16.216219      1595.9228    
        12   0             -322.55943     -788.52405     -614.91889     -614.91889     -1135.7344     -2.8141867e-10  2.3027248e-11  5.6634264e-12  8.1000093      12.150014      16.216219      1595.9228    
        13   0             -322.55943     -788.52405     -614.91889     -614.91889     -1135.7344     -2.7406559e-11  1.9591907e-11 -1.3026577e-11  8.1000093      12.150014      16.216219      1595.9228    
        14   0             -322.55943     -788.52405     -614.91889     -614.91889     -1135.7344     -2.2803497e-11 -9.2911935e-12 -4.8414285e-12  8.1000093      12.150014      16.216219      1595.9228    
        15   0             -322.55943     -788.52405     -614.91889     -614.91889     -1135.7344     -2.2474124e-11  1.1730427e-11 -2.1253523e-11  8.1000093      12.150014      16.216219      1595.9228    
        16   0             -322.55943     -788.52405     -614.91889     -614.91889     -1135.7344     -4.4789144e-13 -3.4955187e-11  2.8909249e-13  8.1000093      12.150014      16.216219      1595.9228    
        17   0             -322.55943     -788.52405     -614.91889     -614.91889     -1135.7344     -8.6178704e-12  6.7077133e-14 -1.5189546e-11  8.1000093      12.150014      16.216219      1595.9228    
        18   0             -322.55943     -788.52405     -614.91889     -614.91889     -1135.7344      1.8148622e-12 -1.3298426e-12 -9.7873482e-13  8.1000093      12.150014      16.216219      1595.9228    
        19   0             -322.55943     -788.52405     -614.91889     -614.91889     -1135.7344     -2.4543114e-12  5.2685791e-12  1.052227e-11   8.1000093      12.150014      16.216219      1595.9228    
        20   0             -322.55943     -788.52405     -614.91889     -614.91889     -1135.7344      5.0433565e-13 -7.5205487e-12 -2.8038489e-11  8.1000093      12.150014      16.216219      1595.9228    
        21   0             -322.55943     -788.52405     -614.91889     -614.91889     -1135.7344     -5.7619896e-12  2.2872444e-11 -5.2524274e-12  8.1000093      12.150014      16.216219      1595.9228    
        22   0             -322.55943     -788.52405     -614.91889     -614.91889     -1135.7344      5.2773194e-13  2.0187284e-11  1.5311453e-11  8.1000093      12.150014      16.216219      1595.9228    
        23   0             -322.55943     -788.52405     -614.91889     -614.91889     -1135.7344      1.0204872e-12  6.5030763e-12 -6.1823997e-12  8.1000093      12.150014      16.216219      1595.9228    
        24   0             -322.55943     -788.52405     -614.91889     -614.91889     -1135.7344     -1.0014604e-11 -3.6575954e-11  1.1588081e-11  8.1000093      12.150014      16.216219      1595.9228    
        25   0             -322.55943     -788.52405     -614.91889     -614.91889     -1135.7344      9.2487081e-12  2.277436e-11  -3.6780924e-12  8.1000093      12.150014      16.216219      1595.9228    
        26   0             -322.55943     -788.52405     -614.91889     -614.91889     -1135.7344      1.8869319e-11  3.2813077e-13  2.7829506e-12  8.1000093      12.150014      16.216219      1595.9228    
        27   0             -322.55943     -788.52405     -614.91889     -614.91889     -1135.7344     -7.2423629e-13  2.7677285e-11  1.7753065e-11  8.1000093      12.150014      16.216219      1595.9228    
Loop time of 0.00745 on 1 procs for 25 steps with 96 atoms

0.0% CPU use with 1 MPI tasks x 1 OpenMP threads

Minimization stats:
  Stopping criterion = force tolerance
  Energy initial, next-to-last, final = 
     -322.559433390258  -322.559433412749  -322.559433412752
  Force two-norm initial, final = 0.00051344721 7.1733617e-11
  Force max component initial, final = 7.9550053e-05 1.2747969e-11
  Final line search alpha, max atom move = 1 1.2747969e-11
  Iterations, force evaluations = 25 50

MPI task timing breakdown:
Section |  min time  |  avg time  |  max time  |%varavg| %total
---------------------------------------------------------------
Pair    | 0.006956   | 0.006956   | 0.006956   |   0.0 | 93.37
Neigh   | 0          | 0          | 0          |   0.0 |  0.00
Comm    | 0.000153   | 0.000153   | 0.000153   |   0.0 |  2.05
Output  | 0.000228   | 0.000228   | 0.000228   |   0.0 |  3.06
Modify  | 0          | 0          | 0          |   0.0 |  0.00
Other   |            | 0.000113   |            |       |  1.52

Nlocal:             96 ave          96 max          96 min
Histogram: 1 0 0 0 0 0 0 0 0 0
Nghost:            976 ave         976 max         976 min
Histogram: 1 0 0 0 0 0 0 0 0 0
Neighs:           4128 ave        4128 max        4128 min
Histogram: 1 0 0 0 0 0 0 0 0 0

Total # of neighbors = 4128
Ave neighs/atom = 43
Neighbor list builds = 0
Dangerous builds = 0
OMP_NUM_THREADS environment is not set. Defaulting to 1 thread. (src/comm.cpp:98)
  using 1 OpenMP thread(s) per MPI task
Loaded 1 plugins from F:\Lammps\LAMMPS 64-bit 2Aug2023\plugins

The 'box' command has been removed and will be ignored

Reading restart file ...
  restart file = 2 Aug 2023, LAMMPS = 2 Aug 2023
  restoring atom style atomic from restart
  triclinic box = (-4.6617854e-06 -6.9926781e-06 -9.3235709e-06) to (8.1000047 12.150007 16.200009) with tilt (0 0 0)
  1 by 1 by 1 MPI processor grid
  pair style eam/alloy stores no restart info
  96 atoms
  read_restart CPU = 0.000 seconds
Changing box ...
  triclinic box = (-4.6617854e-06 -6.9926781e-06 -9.3235709e-06) to (8.1000047 12.150007 16.200009) with tilt (0 0 -0.016200019)
Neighbor list info ...
  update: every = 1 steps, delay = 0 steps, check = yes
  max neighbors/atom: 2000, page size: 100000
  master list distance cutoff = 7.28721
  ghost atom cutoff = 7.28721
  1 neighbor lists, perpetual/occasional/extra = 1 0 0
  (1) pair eam/alloy, perpetual
      attributes: half, newton on
      pair build: half/nsq/newton
      stencil: none
      bin: none
Setting up cg style minimization ...
  Unit style    : metal
  Current step  : 2
Per MPI rank memory allocation (min/avg/max) = 4.447 | 4.447 | 4.447 Mbytes
   Step          Temp          PotEng         Press           Pxx            Pyy            Pzz            Pxy            Pxz            Pyz             Lx             Ly             Lz           Volume    
         2   0             -322.55984      0.17129811     0.25674513    -0.056782401    0.31393161     7.8631787e-07  3.2030966e-06  315.96156      8.1000093      12.150014      16.200019      1594.3285    
         3   0             -322.55984      0.17127615     0.25672404    -0.056803291    0.3139077     -2.6058421e-07 -5.3526229e-07  315.96156      8.1000093      12.150014      16.200019      1594.3285    
         4   0             -322.55984      0.17127317     0.25672102    -0.056805868    0.31390435    -1.0056381e-07  9.4877687e-08  315.96156      8.1000093      12.150014      16.200019      1594.3285    
         5   0             -322.55984      0.17127253     0.25672037    -0.056806374    0.31390358    -2.8406091e-08 -6.0956293e-09  315.96156      8.1000093      12.150014      16.200019      1594.3285    
         6   0             -322.55984      0.1712724      0.25672022    -0.056806464    0.31390343    -4.5359477e-08 -2.0226796e-09  315.96156      8.1000093      12.150014      16.200019      1594.3285    
         7   0             -322.55984      0.17127237     0.2567202     -0.056806496    0.31390339    -3.0241459e-08  7.3864654e-10  315.96156      8.1000093      12.150014      16.200019      1594.3285    
         8   0             -322.55984      0.17127235     0.25672019    -0.056806514    0.31390337    -1.5295e-08    -1.1878993e-09  315.96156      8.1000093      12.150014      16.200019      1594.3285    
         9   0             -322.55984      0.17127234     0.25672018    -0.056806521    0.31390335    -6.9763037e-09 -2.3258422e-10  315.96156      8.1000093      12.150014      16.200019      1594.3285    
        10   0             -322.55984      0.17127233     0.25672017    -0.056806524    0.31390334    -2.3108445e-09  5.3719383e-10  315.96156      8.1000093      12.150014      16.200019      1594.3285    
        11   0             -322.55984      0.17127233     0.25672017    -0.056806525    0.31390334    -7.0235403e-10  6.3306073e-11  315.96156      8.1000093      12.150014      16.200019      1594.3285    
        12   0             -322.55984      0.17127233     0.25672017    -0.056806526    0.31390334    -2.905777e-10   3.108972e-11   315.96156      8.1000093      12.150014      16.200019      1594.3285    
        13   0             -322.55984      0.17127233     0.25672017    -0.056806526    0.31390334    -2.8104384e-11  2.7042508e-11  315.96156      8.1000093      12.150014      16.200019      1594.3285    
        14   0             -322.55984      0.17127233     0.25672017    -0.056806526    0.31390334    -1.2796362e-12 -2.4977096e-11  315.96156      8.1000093      12.150014      16.200019      1594.3285    
        15   0             -322.55984      0.17127233     0.25672017    -0.056806526    0.31390334    -1.4711431e-11 -7.7103701e-12  315.96156      8.1000093      12.150014      16.200019      1594.3285    
        16   0             -322.55984      0.17127233     0.25672017    -0.056806526    0.31390334     6.0265104e-12  1.5714682e-11  315.96156      8.1000093      12.150014      16.200019      1594.3285    
        17   0             -322.55984      0.17127233     0.25672017    -0.056806526    0.31390334    -8.5068636e-12  4.3129939e-12  315.96156      8.1000093      12.150014      16.200019      1594.3285    
        18   0             -322.55984      0.17127233     0.25672017    -0.056806526    0.31390334     1.5545432e-12  2.2534509e-12  315.96156      8.1000093      12.150014      16.200019      1594.3285    
        19   0             -322.55984      0.17127233     0.25672017    -0.056806526    0.31390334    -1.8834298e-11 -7.4695135e-12  315.96156      8.1000093      12.150014      16.200019      1594.3285    
        20   0             -322.55984      0.17127233     0.25672017    -0.056806526    0.31390334    -3.0991769e-13  1.7668898e-11  315.96156      8.1000093      12.150014      16.200019      1594.3285    
        21   0             -322.55984      0.17127233     0.25672017    -0.056806526    0.31390334     3.7639729e-12 -3.2133586e-12  315.96156      8.1000093      12.150014      16.200019      1594.3285    
        22   0             -322.55984      0.17127233     0.25672017    -0.056806526    0.31390334    -2.1807962e-13 -1.1678212e-11  315.96156      8.1000093      12.150014      16.200019      1594.3285    
        23   0             -322.55984      0.17127233     0.25672017    -0.056806526    0.31390334     7.5872352e-12 -1.4403318e-11  315.96156      8.1000093      12.150014      16.200019      1594.3285    
        24   0             -322.55984      0.17127233     0.25672017    -0.056806526    0.31390334    -4.4076474e-12 -1.3764415e-11  315.96156      8.1000093      12.150014      16.200019      1594.3285    
        25   0             -322.55984      0.17127233     0.25672017    -0.056806526    0.31390334     1.1970629e-12 -2.1234506e-11  315.96156      8.1000093      12.150014      16.200019      1594.3285    
        26   0             -322.55984      0.17127233     0.25672017    -0.056806526    0.31390334     2.7108961e-12  8.2277905e-12  315.96156      8.1000093      12.150014      16.200019      1594.3285    
        27   0             -322.55984      0.17127233     0.25672017    -0.056806526    0.31390334     1.8109218e-12  1.6318081e-12  315.96156      8.1000093      12.150014      16.200019      1594.3285    
        28   0             -322.55984      0.17127233     0.25672017    -0.056806526    0.31390334    -6.1150164e-12  1.6178967e-11  315.96156      8.1000093      12.150014      16.200019      1594.3285    
Loop time of 0.007568 on 1 procs for 26 steps with 96 atoms

0.0% CPU use with 1 MPI tasks x 1 OpenMP threads

Minimization stats:
  Stopping criterion = force tolerance
  Energy initial, next-to-last, final = 
     -322.559841640253  -322.559841662774  -322.559841662777
  Force two-norm initial, final = 0.00051433376 3.4334268e-11
  Force max component initial, final = 7.9654e-05 5.0451587e-12
  Final line search alpha, max atom move = 1 5.0451587e-12
  Iterations, force evaluations = 26 52

MPI task timing breakdown:
Section |  min time  |  avg time  |  max time  |%varavg| %total
---------------------------------------------------------------
Pair    | 0.007079   | 0.007079   | 0.007079   |   0.0 | 93.54
Neigh   | 0          | 0          | 0          |   0.0 |  0.00
Comm    | 0.000145   | 0.000145   | 0.000145   |   0.0 |  1.92
Output  | 0.000234   | 0.000234   | 0.000234   |   0.0 |  3.09
Modify  | 0          | 0          | 0          |   0.0 |  0.00
Other   |            | 0.00011    |            |       |  1.45

Nlocal:             96 ave          96 max          96 min
Histogram: 1 0 0 0 0 0 0 0 0 0
Nghost:            976 ave         976 max         976 min
Histogram: 1 0 0 0 0 0 0 0 0 0
Neighs:           4128 ave        4128 max        4128 min
Histogram: 1 0 0 0 0 0 0 0 0 0

Total # of neighbors = 4128
Ave neighs/atom = 43
Neighbor list builds = 0
Dangerous builds = 0
OMP_NUM_THREADS environment is not set. Defaulting to 1 thread. (src/comm.cpp:98)
  using 1 OpenMP thread(s) per MPI task
Loaded 1 plugins from F:\Lammps\LAMMPS 64-bit 2Aug2023\plugins

The 'box' command has been removed and will be ignored

Reading restart file ...
  restart file = 2 Aug 2023, LAMMPS = 2 Aug 2023
  restoring atom style atomic from restart
  triclinic box = (-4.6617854e-06 -6.9926781e-06 -9.3235709e-06) to (8.1000047 12.150007 16.200009) with tilt (0 0 0)
  1 by 1 by 1 MPI processor grid
  pair style eam/alloy stores no restart info
  96 atoms
  read_restart CPU = 0.000 seconds
Changing box ...
  triclinic box = (-4.6617854e-06 -6.9926781e-06 -9.3235709e-06) to (8.1000047 12.150007 16.200009) with tilt (0 0 0.016200019)
Neighbor list info ...
  update: every = 1 steps, delay = 0 steps, check = yes
  max neighbors/atom: 2000, page size: 100000
  master list distance cutoff = 7.28721
  ghost atom cutoff = 7.28721
  1 neighbor lists, perpetual/occasional/extra = 1 0 0
  (1) pair eam/alloy, perpetual
      attributes: half, newton on
      pair build: half/nsq/newton
      stencil: none
      bin: none
Setting up cg style minimization ...
  Unit style    : metal
  Current step  : 2
Per MPI rank memory allocation (min/avg/max) = 4.447 | 4.447 | 4.447 Mbytes
   Step          Temp          PotEng         Press           Pxx            Pyy            Pzz            Pxy            Pxz            Pyz             Lx             Ly             Lz           Volume    
         2   0             -322.55984      0.17129813     0.25674514    -0.056782371    0.31393162     7.8616667e-07  3.2069118e-06 -315.96156      8.1000093      12.150014      16.200019      1594.3285    
         3   0             -322.55984      0.17127616     0.25672405    -0.056803285    0.31390771    -2.5395057e-07 -5.4314261e-07 -315.96156      8.1000093      12.150014      16.200019      1594.3285    
         4   0             -322.55984      0.17127317     0.25672102    -0.056805872    0.31390435    -9.7192353e-08  9.5073638e-08 -315.96156      8.1000093      12.150014      16.200019      1594.3285    
         5   0             -322.55984      0.17127253     0.25672037    -0.056806376    0.31390358    -2.7932881e-08 -4.9564212e-09 -315.96156      8.1000093      12.150014      16.200019      1594.3285    
         6   0             -322.55984      0.1712724      0.25672022    -0.056806465    0.31390343    -4.5340876e-08 -1.4593417e-09 -315.96156      8.1000093      12.150014      16.200019      1594.3285    
         7   0             -322.55984      0.17127237     0.2567202     -0.056806496    0.31390339    -3.0232248e-08  1.0431129e-09 -315.96156      8.1000093      12.150014      16.200019      1594.3285    
         8   0             -322.55984      0.17127235     0.25672019    -0.056806514    0.31390337    -1.529158e-08  -9.4334764e-10 -315.96156      8.1000093      12.150014      16.200019      1594.3285    
         9   0             -322.55984      0.17127234     0.25672018    -0.056806521    0.31390335    -6.9196533e-09 -1.4769121e-10 -315.96156      8.1000093      12.150014      16.200019      1594.3285    
        10   0             -322.55984      0.17127233     0.25672017    -0.056806524    0.31390334    -2.3149454e-09  5.2127121e-10 -315.96156      8.1000093      12.150014      16.200019      1594.3285    
        11   0             -322.55984      0.17127233     0.25672017    -0.056806525    0.31390334    -7.0583789e-10  4.1328296e-11 -315.96156      8.1000093      12.150014      16.200019      1594.3285    
        12   0             -322.55984      0.17127233     0.25672017    -0.056806526    0.31390334    -3.0415286e-10  3.3194731e-11 -315.96156      8.1000093      12.150014      16.200019      1594.3285    
        13   0             -322.55984      0.17127233     0.25672017    -0.056806526    0.31390334    -2.3128726e-11  1.1001551e-11 -315.96156      8.1000093      12.150014      16.200019      1594.3285    
        14   0             -322.55984      0.17127233     0.25672017    -0.056806526    0.31390334    -2.6305067e-13 -1.5799781e-11 -315.96156      8.1000093      12.150014      16.200019      1594.3285    
        15   0             -322.55984      0.17127233     0.25672017    -0.056806527    0.31390334    -8.8379902e-12 -1.4934089e-11 -315.96156      8.1000093      12.150014      16.200019      1594.3285    
        16   0             -322.55984      0.17127233     0.25672017    -0.056806526    0.31390334    -4.9181666e-13  9.1939632e-13 -315.96156      8.1000093      12.150014      16.200019      1594.3285    
        17   0             -322.55984      0.17127233     0.25672017    -0.056806526    0.31390334     4.884968e-12  -2.9521626e-11 -315.96156      8.1000093      12.150014      16.200019      1594.3285    
        18   0             -322.55984      0.17127233     0.25672017    -0.056806526    0.31390334    -2.0010272e-12  4.3328166e-12 -315.96156      8.1000093      12.150014      16.200019      1594.3285    
        19   0             -322.55984      0.17127233     0.25672017    -0.056806527    0.31390334     4.000079e-12  -1.4947718e-11 -315.96156      8.1000093      12.150014      16.200019      1594.3285    
        20   0             -322.55984      0.17127233     0.25672017    -0.056806527    0.31390334     3.9394674e-12  3.0332019e-12 -315.96156      8.1000093      12.150014      16.200019      1594.3285    
        21   0             -322.55984      0.17127233     0.25672017    -0.056806526    0.31390334     1.7054125e-12 -9.2023248e-12 -315.96156      8.1000093      12.150014      16.200019      1594.3285    
        22   0             -322.55984      0.17127233     0.25672017    -0.056806527    0.31390334    -7.3941534e-12  6.160697e-12  -315.96156      8.1000093      12.150014      16.200019      1594.3285    
        23   0             -322.55984      0.17127233     0.25672017    -0.056806526    0.31390334     6.0923083e-12  5.2836723e-13 -315.96156      8.1000093      12.150014      16.200019      1594.3285    
        24   0             -322.55984      0.17127233     0.25672017    -0.056806526    0.31390334     2.9092632e-12  2.9751217e-11 -315.96156      8.1000093      12.150014      16.200019      1594.3285    
        25   0             -322.55984      0.17127233     0.25672017    -0.056806526    0.31390334    -8.2311512e-12 -6.0375562e-12 -315.96156      8.1000093      12.150014      16.200019      1594.3285    
        26   0             -322.55984      0.17127233     0.25672017    -0.056806526    0.31390334     3.5089907e-12 -1.5902188e-12 -315.96156      8.1000093      12.150014      16.200019      1594.3285    
        27   0             -322.55984      0.17127233     0.25672017    -0.056806527    0.31390334    -2.0354954e-11 -1.2908416e-12 -315.96156      8.1000093      12.150014      16.200019      1594.3285    
        28   0             -322.55984      0.17127233     0.25672017    -0.056806526    0.31390334    -1.1102078e-11 -7.6392397e-13 -315.96156      8.1000093      12.150014      16.200019      1594.3285    
Loop time of 0.00746 on 1 procs for 26 steps with 96 atoms

0.0% CPU use with 1 MPI tasks x 1 OpenMP threads

Minimization stats:
  Stopping criterion = force tolerance
  Energy initial, next-to-last, final = 
     -322.559841640255  -322.559841662774  -322.559841662777
  Force two-norm initial, final = 0.00051420494 3.4131981e-11
  Force max component initial, final = 7.9704264e-05 4.8581035e-12
  Final line search alpha, max atom move = 1 4.8581035e-12
  Iterations, force evaluations = 26 52

MPI task timing breakdown:
Section |  min time  |  avg time  |  max time  |%varavg| %total
---------------------------------------------------------------
Pair    | 0.006979   | 0.006979   | 0.006979   |   0.0 | 93.55
Neigh   | 0          | 0          | 0          |   0.0 |  0.00
Comm    | 0.000136   | 0.000136   | 0.000136   |   0.0 |  1.82
Output  | 0.000227   | 0.000227   | 0.000227   |   0.0 |  3.04
Modify  | 0          | 0          | 0          |   0.0 |  0.00
Other   |            | 0.000118   |            |       |  1.58

Nlocal:             96 ave          96 max          96 min
Histogram: 1 0 0 0 0 0 0 0 0 0
Nghost:            976 ave         976 max         976 min
Histogram: 1 0 0 0 0 0 0 0 0 0
Neighs:           4128 ave        4128 max        4128 min
Histogram: 1 0 0 0 0 0 0 0 0 0

Total # of neighbors = 4128
Ave neighs/atom = 43
Neighbor list builds = 0
Dangerous builds = 0
OMP_NUM_THREADS environment is not set. Defaulting to 1 thread. (src/comm.cpp:98)
  using 1 OpenMP thread(s) per MPI task
Loaded 1 plugins from F:\Lammps\LAMMPS 64-bit 2Aug2023\plugins

The 'box' command has been removed and will be ignored

Reading restart file ...
  restart file = 2 Aug 2023, LAMMPS = 2 Aug 2023
  restoring atom style atomic from restart
  triclinic box = (-4.6617854e-06 -6.9926781e-06 -9.3235709e-06) to (8.1000047 12.150007 16.200009) with tilt (0 0 0)
  1 by 1 by 1 MPI processor grid
  pair style eam/alloy stores no restart info
  96 atoms
  read_restart CPU = 0.000 seconds
Changing box ...
  triclinic box = (-4.6617854e-06 -6.9926781e-06 -9.3235709e-06) to (8.1000047 12.150007 16.200009) with tilt (0 -0.016200019 0)
Neighbor list info ...
  update: every = 1 steps, delay = 0 steps, check = yes
  max neighbors/atom: 2000, page size: 100000
  master list distance cutoff = 7.28721
  ghost atom cutoff = 7.28721
  1 neighbor lists, perpetual/occasional/extra = 1 0 0
  (1) pair eam/alloy, perpetual
      attributes: half, newton on
      pair build: half/nsq/newton
      stencil: none
      bin: none
Setting up cg style minimization ...
  Unit style    : metal
  Current step  : 2
Per MPI rank memory allocation (min/avg/max) = 4.447 | 4.447 | 4.447 Mbytes
   Step          Temp          PotEng         Press           Pxx            Pyy            Pzz            Pxy            Pxz            Pyz             Lx             Ly             Lz           Volume    
         2   0             -322.55984      0.1712981     -0.056781685    0.2567444      0.31393158     7.9361613e-07  315.96157      1.7198897e-06  8.1000093      12.150014      16.200019      1594.3285    
         3   0             -322.55984      0.17127615    -0.056802673    0.25672342     0.31390769    -2.5536361e-07  315.96156     -4.471926e-07   8.1000093      12.150014      16.200019      1594.3285    
         4   0             -322.55984      0.17127316    -0.056805687    0.25672083     0.31390435    -9.7275974e-08  315.96156      8.6394757e-08  8.1000093      12.150014      16.200019      1594.3285    
         5   0             -322.55984      0.17127252    -0.056806327    0.25672032     0.31390358    -2.7542583e-08  315.96156      9.8791142e-09  8.1000093      12.150014      16.200019      1594.3285    
         6   0             -322.55984      0.17127239    -0.056806476    0.25672023     0.31390343    -4.5191239e-08  315.96156      1.7687107e-09  8.1000093      12.150014      16.200019      1594.3285    
         7   0             -322.55984      0.17127237    -0.056806496    0.2567202      0.31390339    -3.0238709e-08  315.96156     -6.4859129e-10  8.1000093      12.150014      16.200019      1594.3285    
         8   0             -322.55984      0.17127235    -0.056806508    0.25672018     0.31390337    -1.5221013e-08  315.96156     -2.3695471e-10  8.1000093      12.150014      16.200019      1594.3285    
         9   0             -322.55984      0.17127234    -0.056806518    0.25672018     0.31390335    -6.9468248e-09  315.96156     -5.753394e-10   8.1000093      12.150014      16.200019      1594.3285    
        10   0             -322.55984      0.17127233    -0.056806524    0.25672017     0.31390334    -2.308536e-09   315.96156     -4.2907619e-10  8.1000093      12.150014      16.200019      1594.3285    
        11   0             -322.55984      0.17127233    -0.056806525    0.25672017     0.31390334    -6.8557761e-10  315.96156     -8.6647122e-11  8.1000093      12.150014      16.200019      1594.3285    
        12   0             -322.55984      0.17127233    -0.056806526    0.25672017     0.31390334    -2.9071841e-10  315.96156      3.4621194e-12  8.1000093      12.150014      16.200019      1594.3285    
        13   0             -322.55984      0.17127233    -0.056806526    0.25672017     0.31390334    -2.1863495e-11  315.96156      3.46456e-11    8.1000093      12.150014      16.200019      1594.3285    
        14   0             -322.55984      0.17127233    -0.056806526    0.25672017     0.31390334    -9.1565887e-12  315.96156     -1.920378e-11   8.1000093      12.150014      16.200019      1594.3285    
        15   0             -322.55984      0.17127233    -0.056806526    0.25672017     0.31390334    -1.1566336e-11  315.96156     -1.9698867e-11  8.1000093      12.150014      16.200019      1594.3285    
        16   0             -322.55984      0.17127233    -0.056806527    0.25672017     0.31390334    -6.1506968e-12  315.96156     -1.9873193e-13  8.1000093      12.150014      16.200019      1594.3285    
        17   0             -322.55984      0.17127233    -0.056806527    0.25672017     0.31390334    -7.2050642e-12  315.96156      1.4734055e-11  8.1000093      12.150014      16.200019      1594.3285    
        18   0             -322.55984      0.17127233    -0.056806526    0.25672017     0.31390334     7.4222297e-12  315.96156      7.6145708e-12  8.1000093      12.150014      16.200019      1594.3285    
        19   0             -322.55984      0.17127233    -0.056806527    0.25672017     0.31390334     8.2963636e-13  315.96156      1.3179065e-12  8.1000093      12.150014      16.200019      1594.3285    
        20   0             -322.55984      0.17127233    -0.056806526    0.25672017     0.31390334     7.4891172e-12  315.96156      5.5854132e-12  8.1000093      12.150014      16.200019      1594.3285    
        21   0             -322.55984      0.17127233    -0.056806527    0.25672017     0.31390334     3.4148947e-12  315.96156     -2.3645613e-11  8.1000093      12.150014      16.200019      1594.3285    
        22   0             -322.55984      0.17127233    -0.056806526    0.25672017     0.31390334    -6.9364485e-12  315.96156     -9.5949171e-12  8.1000093      12.150014      16.200019      1594.3285    
        23   0             -322.55984      0.17127233    -0.056806527    0.25672017     0.31390334    -6.9322742e-12  315.96156      2.6215182e-11  8.1000093      12.150014      16.200019      1594.3285    
        24   0             -322.55984      0.17127233    -0.056806526    0.25672017     0.31390334    -6.4110898e-12  315.96156      6.4814502e-12  8.1000093      12.150014      16.200019      1594.3285    
        25   0             -322.55984      0.17127233    -0.056806527    0.25672017     0.31390334    -1.5185145e-12  315.96156      8.9324773e-12  8.1000093      12.150014      16.200019      1594.3285    
        26   0             -322.55984      0.17127233    -0.056806527    0.25672017     0.31390334    -7.0899612e-12  315.96156      3.8780619e-11  8.1000093      12.150014      16.200019      1594.3285    
        27   0             -322.55984      0.17127233    -0.056806527    0.25672017     0.31390334    -9.5298887e-12  315.96156     -2.5483012e-11  8.1000093      12.150014      16.200019      1594.3285    
        28   0             -322.55984      0.17127233    -0.056806527    0.25672017     0.31390334     8.5872126e-12  315.96156     -1.8733099e-11  8.1000093      12.150014      16.200019      1594.3285    
Loop time of 0.007362 on 1 procs for 26 steps with 96 atoms

212.2% CPU use with 1 MPI tasks x 1 OpenMP threads

Minimization stats:
  Stopping criterion = force tolerance
  Energy initial, next-to-last, final = 
      -322.55984164025  -322.559841662776  -322.559841662776
  Force two-norm initial, final = 0.00051437638 3.3887719e-11
  Force max component initial, final = 7.9647098e-05 5.2554072e-12
  Final line search alpha, max atom move = 1 5.2554072e-12
  Iterations, force evaluations = 26 52

MPI task timing breakdown:
Section |  min time  |  avg time  |  max time  |%varavg| %total
---------------------------------------------------------------
Pair    | 0.006889   | 0.006889   | 0.006889   |   0.0 | 93.58
Neigh   | 0          | 0          | 0          |   0.0 |  0.00
Comm    | 0.000142   | 0.000142   | 0.000142   |   0.0 |  1.93
Output  | 0.000219   | 0.000219   | 0.000219   |   0.0 |  2.97
Modify  | 0          | 0          | 0          |   0.0 |  0.00
Other   |            | 0.000112   |            |       |  1.52

Nlocal:             96 ave          96 max          96 min
Histogram: 1 0 0 0 0 0 0 0 0 0
Nghost:            976 ave         976 max         976 min
Histogram: 1 0 0 0 0 0 0 0 0 0
Neighs:           4128 ave        4128 max        4128 min
Histogram: 1 0 0 0 0 0 0 0 0 0

Total # of neighbors = 4128
Ave neighs/atom = 43
Neighbor list builds = 0
Dangerous builds = 0
OMP_NUM_THREADS environment is not set. Defaulting to 1 thread. (src/comm.cpp:98)
  using 1 OpenMP thread(s) per MPI task
Loaded 1 plugins from F:\Lammps\LAMMPS 64-bit 2Aug2023\plugins

The 'box' command has been removed and will be ignored

Reading restart file ...
  restart file = 2 Aug 2023, LAMMPS = 2 Aug 2023
  restoring atom style atomic from restart
  triclinic box = (-4.6617854e-06 -6.9926781e-06 -9.3235709e-06) to (8.1000047 12.150007 16.200009) with tilt (0 0 0)
  1 by 1 by 1 MPI processor grid
  pair style eam/alloy stores no restart info
  96 atoms
  read_restart CPU = 0.000 seconds
Changing box ...
  triclinic box = (-4.6617854e-06 -6.9926781e-06 -9.3235709e-06) to (8.1000047 12.150007 16.200009) with tilt (0 0.016200019 0)
Neighbor list info ...
[...]
Neigh   | 0          | 0          | 0          |   0.0 |  0.00
Comm    | 0.000145   | 0.000145   | 0.000145   |   0.0 |  1.98
Output  | 0.000229   | 0.000229   | 0.000229   |   0.0 |  3.13
Modify  | 0          | 0          | 0          |   0.0 |  0.00
Other   |            | 0.000108   |            |       |  1.48

Nlocal:             96 ave          96 max          96 min
Histogram: 1 0 0 0 0 0 0 0 0 0
Nghost:            976 ave         976 max         976 min
Histogram: 1 0 0 0 0 0 0 0 0 0
Neighs:           4128 ave        4128 max        4128 min
Histogram: 1 0 0 0 0 0 0 0 0 0

Total # of neighbors = 4128
Ave neighs/atom = 43
Neighbor list builds = 0
Dangerous builds = 0
OMP_NUM_THREADS environment is not set. Defaulting to 1 thread. (src/comm.cpp:98)
  using 1 OpenMP thread(s) per MPI task
Loaded 1 plugins from F:\Lammps\LAMMPS 64-bit 2Aug2023\plugins

The 'box' command has been removed and will be ignored

Reading restart file ...
  restart file = 2 Aug 2023, LAMMPS = 2 Aug 2023
  restoring atom style atomic from restart
  triclinic box = (-4.6617854e-06 -6.9926781e-06 -9.3235709e-06) to (8.1000047 12.150007 16.200009) with tilt (0 0 0)
  1 by 1 by 1 MPI processor grid
  pair style eam/alloy stores no restart info
  96 atoms
  read_restart CPU = 0.000 seconds
Changing box ...
  triclinic box = (-4.6617854e-06 -6.9926781e-06 -9.3235709e-06) to (8.1000047 12.150007 16.200009) with tilt (-0.012150014 0 0)
Neighbor list info ...
  update: every = 1 steps, delay = 0 steps, check = yes
  max neighbors/atom: 2000, page size: 100000
  master list distance cutoff = 7.28721
  ghost atom cutoff = 7.28721
  1 neighbor lists, perpetual/occasional/extra = 1 0 0
  (1) pair eam/alloy, perpetual
      attributes: half, newton on
      pair build: half/nsq/newton
      stencil: none
      bin: none
Setting up cg style minimization ...
  Unit style    : metal
  Current step  : 2
Per MPI rank memory allocation (min/avg/max) = 4.447 | 4.447 | 4.447 Mbytes
   Step          Temp          PotEng         Press           Pxx            Pyy            Pzz            Pxy            Pxz            Pyz             Lx             Ly             Lz           Volume    
         2   0             -322.55984      0.17129808    -0.056781713    0.31392741     0.25674853     315.96156      3.1966597e-06  1.7222908e-06  8.1000093      12.150014      16.200019      1594.3285    
         3   0             -322.55984      0.17127615    -0.05680267     0.31390656     0.25672455     315.96156     -5.370048e-07  -4.5346037e-07  8.1000093      12.150014      16.200019      1594.3285    
         4   0             -322.55984      0.17127316    -0.056805684    0.31390399     0.25672118     315.96156      9.4842851e-08  8.7089841e-08  8.1000093      12.150014      16.200019      1594.3285    
         5   0             -322.55984      0.17127252    -0.056806327    0.31390349     0.25672041     315.96156     -4.9867067e-09  1.0495682e-08  8.1000093      12.150014      16.200019      1594.3285    
         6   0             -322.55984      0.1712724     -0.056806476    0.3139034      0.25672026     315.96156     -1.6575698e-09  1.9491558e-09  8.1000093      12.150014      16.200019      1594.3285    
         7   0             -322.55984      0.17127237    -0.056806496    0.31390337     0.25672022     315.96156      8.5725628e-10 -4.5598867e-10  8.1000093      12.150014      16.200019      1594.3285    
         8   0             -322.55984      0.17127235    -0.056806508    0.31390335     0.2567202      315.96156     -1.0745012e-09 -1.2633424e-10  8.1000093      12.150014      16.200019      1594.3285    
         9   0             -322.55984      0.17127234    -0.056806518    0.31390334     0.25672019     315.96156     -2.0655293e-10 -5.3140221e-10  8.1000093      12.150014      16.200019      1594.3285    
        10   0             -322.55984      0.17127233    -0.056806524    0.31390334     0.25672018     315.96156      5.2422071e-10 -3.9185753e-10  8.1000093      12.150014      16.200019      1594.3285    
        11   0             -322.55984      0.17127233    -0.056806525    0.31390334     0.25672017     315.96156      3.3419412e-11 -1.0878656e-10  8.1000093      12.150014      16.200019      1594.3285    
        12   0             -322.55984      0.17127233    -0.056806526    0.31390334     0.25672017     315.96156      5.992145e-12   2.8352422e-11  8.1000093      12.150014      16.200019      1594.3285    
        13   0             -322.55984      0.17127233    -0.056806526    0.31390334     0.25672017     315.96156     -1.072828e-11   4.433814e-11   8.1000093      12.150014      16.200019      1594.3285    
        14   0             -322.55984      0.17127233    -0.056806526    0.31390334     0.25672017     315.96156      2.7958901e-12  6.1432573e-12  8.1000093      12.150014      16.200019      1594.3285    
        15   0             -322.55984      0.17127233    -0.056806527    0.31390334     0.25672017     315.96156      1.9549191e-12  6.9660772e-12  8.1000093      12.150014      16.200019      1594.3285    
        16   0             -322.55984      0.17127233    -0.056806527    0.31390334     0.25672017     315.96156     -2.7732209e-12  7.1264573e-12  8.1000093      12.150014      16.200019      1594.3285    
        17   0             -322.55984      0.17127233    -0.056806527    0.31390334     0.25672017     315.96156      6.0080148e-12  8.5454731e-12  8.1000093      12.150014      16.200019      1594.3285    
        18   0             -322.55984      0.17127233    -0.056806526    0.31390334     0.25672017     315.96156     -2.4808295e-12 -1.9531514e-11  8.1000093      12.150014      16.200019      1594.3285    
        19   0             -322.55984      0.17127233    -0.056806527    0.31390334     0.25672017     315.96156     -1.1658375e-12 -1.8203148e-11  8.1000093      12.150014      16.200019      1594.3285    
        20   0             -322.55984      0.17127233    -0.056806527    0.31390334     0.25672017     315.96156      6.8341783e-12 -3.4934982e-12  8.1000093      12.150014      16.200019      1594.3285    
        21   0             -322.55984      0.17127233    -0.056806527    0.31390334     0.25672017     315.96156     -2.4291513e-12 -5.1914359e-12  8.1000093      12.150014      16.200019      1594.3285    
        22   0             -322.55984      0.17127233    -0.056806527    0.31390334     0.25672017     315.96156      6.9369592e-12  8.332795e-13   8.1000093      12.150014      16.200019      1594.3285    
        23   0             -322.55984      0.17127233    -0.056806527    0.31390334     0.25672017     315.96156     -1.4078888e-13 -1.6393641e-11  8.1000093      12.150014      16.200019      1594.3285    
        24   0             -322.55984      0.17127233    -0.056806527    0.31390334     0.25672017     315.96156     -1.8448832e-11  5.763226e-12   8.1000093      12.150014      16.200019      1594.3285    
        25   0             -322.55984      0.17127233    -0.056806527    0.31390334     0.25672017     315.96156     -1.5808531e-14  1.8032308e-11  8.1000093      12.150014      16.200019      1594.3285    
        26   0             -322.55984      0.17127233    -0.056806527    0.31390334     0.25672017     315.96156     -3.5921083e-12 -1.8095065e-12  8.1000093      12.150014      16.200019      1594.3285    
        27   0             -322.55984      0.17127233    -0.056806527    0.31390334     0.25672017     315.96156     -1.7875026e-11 -1.7453545e-11  8.1000093      12.150014      16.200019      1594.3285    
        28   0             -322.55984      0.17127233    -0.056806526    0.31390334     0.25672017     315.96156     -4.7271799e-12 -4.0722613e-12  8.1000093      12.150014      16.200019      1594.3285    
        29   0             -322.55984      0.17127233    -0.056806527    0.31390334     0.25672017     315.96156     -2.7429623e-12 -1.3088415e-11  8.1000093      12.150014      16.200019      1594.3285    
        30   0             -322.55984      0.17127233    -0.056806527    0.31390334     0.25672017     315.96156      1.5523379e-12 -1.7464004e-11  8.1000093      12.150014      16.200019      1594.3285    
Loop time of 0.008321 on 1 procs for 28 steps with 96 atoms

0.0% CPU use with 1 MPI tasks x 1 OpenMP threads

Minimization stats:
  Stopping criterion = force tolerance
  Energy initial, next-to-last, final = 
     -322.559841640253  -322.559841662776  -322.559841662777
  Force two-norm initial, final = 0.00051425545 6.7969015e-11
  Force max component initial, final = 7.9647143e-05 1.5053519e-11
  Final line search alpha, max atom move = 1 1.5053519e-11
  Iterations, force evaluations = 28 56

MPI task timing breakdown:
Section |  min time  |  avg time  |  max time  |%varavg| %total
---------------------------------------------------------------
Pair    | 0.007742   | 0.007742   | 0.007742   |   0.0 | 93.04
Neigh   | 0          | 0          | 0          |   0.0 |  0.00
Comm    | 0.000166   | 0.000166   | 0.000166   |   0.0 |  1.99
Output  | 0.000277   | 0.000277   | 0.000277   |   0.0 |  3.33
Modify  | 0          | 0          | 0          |   0.0 |  0.00
Other   |            | 0.000136   |            |       |  1.63

Nlocal:             96 ave          96 max          96 min
Histogram: 1 0 0 0 0 0 0 0 0 0
Nghost:            976 ave         976 max         976 min
Histogram: 1 0 0 0 0 0 0 0 0 0
Neighs:           4128 ave        4128 max        4128 min
Histogram: 1 0 0 0 0 0 0 0 0 0

Total # of neighbors = 4128
Ave neighs/atom = 43
Neighbor list builds = 0
Dangerous builds = 0
OMP_NUM_THREADS environment is not set. Defaulting to 1 thread. (src/comm.cpp:98)
  using 1 OpenMP thread(s) per MPI task
Loaded 1 plugins from F:\Lammps\LAMMPS 64-bit 2Aug2023\plugins

The 'box' command has been removed and will be ignored

Reading restart file ...
  restart file = 2 Aug 2023, LAMMPS = 2 Aug 2023
  restoring atom style atomic from restart
  triclinic box = (-4.6617854e-06 -6.9926781e-06 -9.3235709e-06) to (8.1000047 12.150007 16.200009) with tilt (0 0 0)
  1 by 1 by 1 MPI processor grid
  pair style eam/alloy stores no restart info
  96 atoms
  read_restart CPU = 0.000 seconds
Changing box ...
  triclinic box = (-4.6617854e-06 -6.9926781e-06 -9.3235709e-06) to (8.1000047 12.150007 16.200009) with tilt (0.012150014 0 0)
Neighbor list info ...
  update: every = 1 steps, delay = 0 steps, check = yes
  max neighbors/atom: 2000, page size: 100000
  master list distance cutoff = 7.28721
  ghost atom cutoff = 7.28721
  1 neighbor lists, perpetual/occasional/extra = 1 0 0
  (1) pair eam/alloy, perpetual
      attributes: half, newton on
      pair build: half/nsq/newton
      stencil: none
      bin: none
Setting up cg style minimization ...
  Unit style    : metal
  Current step  : 2
Per MPI rank memory allocation (min/avg/max) = 4.447 | 4.447 | 4.447 Mbytes
   Step          Temp          PotEng         Press           Pxx            Pyy            Pzz            Pxy            Pxz            Pyz             Lx             Ly             Lz           Volume    
         2   0             -322.55984      0.17129816    -0.056781573    0.31392754     0.25674852    -315.96156      3.2146831e-06  1.7283567e-06  8.1000093      12.150014      16.200019      1594.3285    
         3   0             -322.55984      0.17127616    -0.056802655    0.31390659     0.25672454    -315.96156     -5.4099639e-07 -4.4237389e-07  8.1000093      12.150014      16.200019      1594.3285    
         4   0             -322.55984      0.17127317    -0.056805682    0.313904       0.25672119    -315.96156      9.5323821e-08  9.0135136e-08  8.1000093      12.150014      16.200019      1594.3285    
         5   0             -322.55984      0.17127253    -0.056806324    0.31390349     0.25672042    -315.96156     -5.9660343e-09  1.14485e-08    8.1000093      12.150014      16.200019      1594.3285    
         6   0             -322.55984      0.1712724     -0.056806475    0.3139034      0.25672026    -315.96156     -1.8236711e-09  2.3861778e-09  8.1000093      12.150014      16.200019      1594.3285    
         7   0             -322.55984      0.17127237    -0.056806496    0.31390337     0.25672022    -315.96156      9.2431256e-10 -3.4568199e-10  8.1000093      12.150014      16.200019      1594.3285    
         8   0             -322.55984      0.17127235    -0.056806508    0.31390335     0.2567202     -315.96156     -1.0528829e-09 -1.7923877e-10  8.1000093      12.150014      16.200019      1594.3285    
         9   0             -322.55984      0.17127234    -0.056806518    0.31390334     0.25672019    -315.96156     -1.7817649e-10 -5.6151882e-10  8.1000093      12.150014      16.200019      1594.3285    
        10   0             -322.55984      0.17127233    -0.056806524    0.31390334     0.25672018    -315.96156      5.4627515e-10 -4.2384989e-10  8.1000093      12.150014      16.200019      1594.3285    
        11   0             -322.55984      0.17127233    -0.056806525    0.31390334     0.25672017    -315.96156      3.233686e-11  -8.8568197e-11  8.1000093      12.150014      16.200019      1594.3285    
        12   0             -322.55984      0.17127233    -0.056806526    0.31390334     0.25672017    -315.96156      2.3360525e-11  8.6814475e-13  8.1000093      12.150014      16.200019      1594.3285    
        13   0             -322.55984      0.17127233    -0.056806526    0.31390334     0.25672017    -315.96156      2.8135628e-11  2.8669696e-11  8.1000093      12.150014      16.200019      1594.3285    
        14   0             -322.55984      0.17127233    -0.056806526    0.31390334     0.25672017    -315.96156     -7.7105048e-12  3.8003124e-12  8.1000093      12.150014      16.200019      1594.3285    
        15   0             -322.55984      0.17127233    -0.056806526    0.31390334     0.25672017    -315.96156      1.783092e-11   2.9530868e-12  8.1000093      12.150014      16.200019      1594.3285    
        16   0             -322.55984      0.17127233    -0.056806527    0.31390334     0.25672017    -315.96156     -1.1351836e-11 -1.6728347e-11  8.1000093      12.150014      16.200019      1594.3285    
        17   0             -322.55984      0.17127233    -0.056806527    0.31390334     0.25672017    -315.96156      1.3816636e-11 -1.5413928e-11  8.1000093      12.150014      16.200019      1594.3285    
        18   0             -322.55984      0.17127233    -0.056806526    0.31390334     0.25672017    -315.96156      3.0056128e-12 -2.242533e-11   8.1000093      12.150014      16.200019      1594.3285    
        19   0             -322.55984      0.17127233    -0.056806527    0.31390334     0.25672017    -315.96156      5.1190973e-13 -3.1343861e-12  8.1000093      12.150014      16.200019      1594.3285    
        20   0             -322.55984      0.17127233    -0.056806527    0.31390334     0.25672017    -315.96156      2.1385126e-11  1.3660205e-11  8.1000093      12.150014      16.200019      1594.3285    
        21   0             -322.55984      0.17127233    -0.056806527    0.31390334     0.25672017    -315.96156      6.2134849e-12 -6.4291523e-12  8.1000093      12.150014      16.200019      1594.3285    
        22   0             -322.55984      0.17127233    -0.056806527    0.31390334     0.25672017    -315.96156      3.8672101e-12  2.7745767e-11  8.1000093      12.150014      16.200019      1594.3285    
        23   0             -322.55984      0.17127233    -0.056806527    0.31390334     0.25672017    -315.96156     -5.47824e-12    1.8265905e-11  8.1000093      12.150014      16.200019      1594.3285    
        24   0             -322.55984      0.17127233    -0.056806527    0.31390334     0.25672017    -315.96156     -1.2139342e-11 -1.2666546e-11  8.1000093      12.150014      16.200019      1594.3285    
        25   0             -322.55984      0.17127233    -0.056806526    0.31390334     0.25672017    -315.96156      3.3172516e-12 -1.3482393e-11  8.1000093      12.150014      16.200019      1594.3285    
        26   0             -322.55984      0.17127233    -0.056806527    0.31390334     0.25672017    -315.96156      3.2470819e-12 -2.084942e-11   8.1000093      12.150014      16.200019      1594.3285    
        27   0             -322.55984      0.17127233    -0.056806527    0.31390334     0.25672017    -315.96156     -8.2553186e-12 -3.6608514e-13  8.1000093      12.150014      16.200019      1594.3285    
        28   0             -322.55984      0.17127233    -0.056806526    0.31390334     0.25672017    -315.96156     -6.4454307e-12 -4.7381876e-12  8.1000093      12.150014      16.200019      1594.3285    
        29   0             -322.55984      0.17127233    -0.056806526    0.31390334     0.25672017    -315.96156      2.3275187e-11 -9.2881029e-12  8.1000093      12.150014      16.200019      1594.3285    
        30   0             -322.55984      0.17127233    -0.056806526    0.31390334     0.25672017    -315.96156     -8.5098553e-12 -1.4054183e-11  8.1000093      12.150014      16.200019      1594.3285    
Loop time of 0.008554 on 1 procs for 28 steps with 96 atoms

0.0% CPU use with 1 MPI tasks x 1 OpenMP threads

Minimization stats:
  Stopping criterion = force tolerance
  Energy initial, next-to-last, final = 
     -322.559841640255  -322.559841662776  -322.559841662777
  Force two-norm initial, final = 0.0005142843 6.8129609e-11
  Force max component initial, final = 7.9710851e-05 1.3583173e-11
  Final line search alpha, max atom move = 1 1.3583173e-11
  Iterations, force evaluations = 28 56

MPI task timing breakdown:
Section |  min time  |  avg time  |  max time  |%varavg| %total
---------------------------------------------------------------
Pair    | 0.007996   | 0.007996   | 0.007996   |   0.0 | 93.48
Neigh   | 0          | 0          | 0          |   0.0 |  0.00
Comm    | 0.000154   | 0.000154   | 0.000154   |   0.0 |  1.80
Output  | 0.000274   | 0.000274   | 0.000274   |   0.0 |  3.20
Modify  | 0          | 0          | 0          |   0.0 |  0.00
Other   |            | 0.00013    |            |       |  1.52

Nlocal:             96 ave          96 max          96 min
Histogram: 1 0 0 0 0 0 0 0 0 0
Nghost:            976 ave         976 max         976 min
Histogram: 1 0 0 0 0 0 0 0 0 0
Neighs:           4128 ave        4128 max        4128 min
Histogram: 1 0 0 0 0 0 0 0 0 0

Total # of neighbors = 4128
Ave neighs/atom = 43
Neighbor list builds = 0
Dangerous builds = 0
=========================================
Components of the Elastic Constant Tensor
=========================================
Elastic Constant C11all = 113.757718020425 GPa
Elastic Constant C22all = 113.75771802044 GPa
Elastic Constant C33all = 113.757718020423 GPa
Elastic Constant C12all = 61.5144012444219 GPa
Elastic Constant C13all = 61.5144012444169 GPa
Elastic Constant C23all = 61.5144012444217 GPa
Elastic Constant C44all = 31.5961562824994 GPa
Elastic Constant C55all = 31.5961562825 GPa
Elastic Constant C66all = 31.5961562824993 GPa
Elastic Constant C14all = -3.49588797527041e-13 GPa
Elastic Constant C15all = -2.43743969303598e-13 GPa
Elastic Constant C16all = -1.09018819471022e-12 GPa
Elastic Constant C24all = -2.85423210069845e-13 GPa
Elastic Constant C25all = 1.4332739394008e-14 GPa
Elastic Constant C26all = 2.24037869533108e-13 GPa
Elastic Constant C34all = -1.58110778996005e-12 GPa
Elastic Constant C35all = -1.39974588708298e-12 GPa
Elastic Constant C36all = 1.32300231953668e-13 GPa
Elastic Constant C45all = 8.1108340663143e-14 GPa
Elastic Constant C46all = 3.943099169715e-14 GPa
Elastic Constant C56all = 5.10902247648344e-13 GPa
=========================================
Average properties for a cubic crystal
=========================================
Bulk Modulus = 78.9288401697565 GPa
Shear Modulus 1 = 31.5961562824996 GPa
Shear Modulus 2 = 26.1216583880044 GPa
Poisson Ratio = 0.350965124986407
Total wall time: 0:00:00
