LAMMPS (2 Aug 2023 - Update 3)
OMP_NUM_THREADS environment is not set. Defaulting to 1 thread. (src/comm.cpp:98)
  using 1 OpenMP thread(s) per MPI task
Loaded 1 plugins from F:\Lammps\LAMMPS 64-bit 2Aug2023\plugins
Lattice spacing in x,y,z = 4.05 4.05 4.05
Created triclinic box = (0 0 0) to (8.1 12.15 16.2) with tilt (0 0 0)
  1 by 1 by 1 MPI processor grid
Created 96 atoms
  using lattice units in triclinic box = (0 0 0) to (8.1 12.15 16.2) with tilt (0 0 0)
  create_atoms CPU = 0.000 seconds
Neighbor list info ...
  update: every = 1 steps, delay = 0 steps, check = yes
  max neighbors/atom: 2000, page size: 100000
  master list distance cutoff = 7.28721
  ghost atom cutoff = 7.28721
  1 neighbor lists, perpetual/occasional/extra = 1 0 0
  (1) pair eam/alloy, perpetual
      attributes: half, newton on
      pair build: half/nsq/newton
      stencil: none
      bin: none
Setting up cg style minimization ...
  Unit style    : metal
  Current step  : 0
WARNING: Energy due to 3 extra global DOFs will be included in minimizer energies
 (src/min.cpp:228)
Per MPI rank memory allocation (min/avg/max) = 4.452 | 4.452 | 4.452 Mbytes
   Step          Temp          PotEng         Press           Pxx            Pyy            Pzz            Pxy            Pxz            Pyz             Lx             Ly             Lz           Volume    
         0   0             -322.56         2.726913       2.726913       2.726913       2.726913       2.2732222e-12  5.6691094e-12  8.2700661e-12  8.1            12.15          16.2           1594.323     
         1   0             -322.56        -0.00024358028 -0.00024358023 -0.00024358039 -0.00024358023  3.6538783e-12 -1.8548314e-12  3.8351776e-12  8.1000093      12.150014      16.200019      1594.3285    
         2   0             -322.56         4.4066656e-10  4.3579472e-10  4.388001e-10   4.4740485e-10 -2.2216138e-11 -2.0291576e-12 -5.2995182e-13  8.1000093      12.150014      16.200019      1594.3285    
Loop time of 0.001012 on 1 procs for 2 steps with 96 atoms

0.0% CPU use with 1 MPI tasks x 1 OpenMP threads

Minimization stats:
  Stopping criterion = force tolerance
  Energy initial, next-to-last, final = 
     -322.559998860994  -322.559998865621  -322.559998865637
  Force two-norm initial, final = 0.0047000001 7.6230766e-13
  Force max component initial, final = 0.0027135463 4.452128e-13
  Final line search alpha, max atom move = 1 4.452128e-13
  Iterations, force evaluations = 2 4

MPI task timing breakdown:
Section |  min time  |  avg time  |  max time  |%varavg| %total
---------------------------------------------------------------
Pair    | 0.000765   | 0.000765   | 0.000765   |   0.0 | 75.59
Neigh   | 0          | 0          | 0          |   0.0 |  0.00
Comm    | 3.9e-05    | 3.9e-05    | 3.9e-05    |   0.0 |  3.85
Output  | 1.2e-05    | 1.2e-05    | 1.2e-05    |   0.0 |  1.19
Modify  | 0          | 0          | 0          |   0.0 |  0.00
Other   |            | 0.000196   |            |       | 19.37

Nlocal:             96 ave          96 max          96 min
Histogram: 1 0 0 0 0 0 0 0 0 0
Nghost:            976 ave         976 max         976 min
Histogram: 1 0 0 0 0 0 0 0 0 0
Neighs:           4128 ave        4128 max        4128 min
Histogram: 1 0 0 0 0 0 0 0 0 0

Total # of neighbors = 4128
Ave neighs/atom = 43
Neighbor list builds = 0
Dangerous builds = 0
Displacing atoms ...
System init for write_restart ...
OMP_NUM_THREADS environment is not set. Defaulting to 1 thread. (src/comm.cpp:98)
  using 1 OpenMP thread(s) per MPI task
Loaded 1 plugins from F:\Lammps\LAMMPS 64-bit 2Aug2023\plugins

The 'box' command has been removed and will be ignored

Reading restart file ...
  restart file = 2 Aug 2023, LAMMPS = 2 Aug 2023
  restoring atom style atomic from restart
  triclinic box = (-4.6617854e-06 -6.9926781e-06 -9.3235709e-06) to (8.1000047 12.150007 16.200009) with tilt (0 0 0)
  1 by 1 by 1 MPI processor grid
  pair style eam/alloy stores no restart info
  96 atoms
  read_restart CPU = 0.000 seconds
Changing box ...
  triclinic box = (-4.6617854e-06 -6.9926781e-06 -9.3235709e-06) to (8.0991947 12.150007 16.200009) with tilt (0 0 0)
  triclinic box = (-4.6617854e-06 -6.9926781e-06 -9.3235709e-06) to (8.0991947 12.150007 16.200009) with tilt (0 0 0)
  triclinic box = (-4.6617854e-06 -6.9926781e-06 -9.3235709e-06) to (8.0991947 12.150007 16.200009) with tilt (0 0 0)
Neighbor list info ...
  update: every = 1 steps, delay = 0 steps, check = yes
  max neighbors/atom: 2000, page size: 100000
  master list distance cutoff = 7.28721
  ghost atom cutoff = 7.28721
  1 neighbor lists, perpetual/occasional/extra = 1 0 0
  (1) pair eam/alloy, perpetual
      attributes: half, newton on
      pair build: half/nsq/newton
      stencil: none
      bin: none
Setting up cg style minimization ...
  Unit style    : metal
  Current step  : 2
Per MPI rank memory allocation (min/avg/max) = 4.447 | 4.447 | 4.447 Mbytes
   Step          Temp          PotEng         Press           Pxx            Pyy            Pzz            Pxy            Pxz            Pyz             Lx             Ly             Lz           Volume    
         2   0             -322.55999      78.971125      113.80899      61.552192      61.552196      7.8861175e-07  3.2084032e-06  1.7165782e-06  8.0991993      12.150014      16.200019      1594.1691    
         3   0             -322.55999      78.971103      113.80897      61.552171      61.552172     -2.5435034e-07 -5.3821301e-07 -4.4799939e-07  8.0991993      12.150014      16.200019      1594.1691    
         4   0             -322.55999      78.9711        113.80896      61.552169      61.552169     -9.8090123e-08  9.5414243e-08  8.7750157e-08  8.0991993      12.150014      16.200019      1594.1691    
         5   0             -322.55999      78.971099      113.80896      61.552168      61.552168     -2.7663503e-08 -5.2057232e-09  1.059889e-08   8.0991993      12.150014      16.200019      1594.1691    
         6   0             -322.55999      78.971099      113.80896      61.552168      61.552168     -4.5123427e-08 -1.6263492e-09  2.0472412e-09  8.0991993      12.150014      16.200019      1594.1691    
         7   0             -322.55999      78.971099      113.80896      61.552168      61.552168     -3.0167632e-08  9.0072735e-10 -4.3095319e-10  8.0991993      12.150014      16.200019      1594.1691    
         8   0             -322.55999      78.971099      113.80896      61.552168      61.552168     -1.5275839e-08 -1.0569467e-09 -1.4677995e-10  8.0991993      12.150014      16.200019      1594.1691    
         9   0             -322.55999      78.971099      113.80896      61.552168      61.552168     -6.9277736e-09 -2.1590166e-10 -5.3654271e-10  8.0991993      12.150014      16.200019      1594.1691    
        10   0             -322.55999      78.971099      113.80896      61.552168      61.552168     -2.325095e-09   5.3764679e-10 -3.7921147e-10  8.0991993      12.150014      16.200019      1594.1691    
        11   0             -322.55999      78.971099      113.80896      61.552168      61.552168     -6.8481254e-10  3.2724786e-11 -1.1185891e-10  8.0991993      12.150014      16.200019      1594.1691    
        12   0             -322.55999      78.971099      113.80896      61.552168      61.552168     -2.9364198e-10 -6.4108863e-12  1.8368851e-11  8.0991993      12.150014      16.200019      1594.1691    
        13   0             -322.55999      78.971099      113.80896      61.552168      61.552168     -3.4365584e-11 -9.0566453e-12  9.2925187e-12  8.0991993      12.150014      16.200019      1594.1691    
        14   0             -322.55999      78.971099      113.80896      61.552168      61.552168     -1.5205069e-11 -1.837568e-11   6.7505877e-12  8.0991993      12.150014      16.200019      1594.1691    
        15   0             -322.55999      78.971099      113.80896      61.552168      61.552168      9.3682247e-13 -1.3049847e-11 -2.0743412e-11  8.0991993      12.150014      16.200019      1594.1691    
        16   0             -322.55999      78.971099      113.80896      61.552168      61.552168      3.898308e-12   8.9592207e-12  2.058999e-11   8.0991993      12.150014      16.200019      1594.1691    
        17   0             -322.55999      78.971099      113.80896      61.552168      61.552168     -1.465523e-11  -1.2555384e-11 -2.3742124e-11  8.0991993      12.150014      16.200019      1594.1691    
        18   0             -322.55999      78.971099      113.80896      61.552168      61.552168     -1.045687e-11  -1.2824836e-11  9.5191655e-13  8.0991993      12.150014      16.200019      1594.1691    
        19   0             -322.55999      78.971099      113.80896      61.552168      61.552168      4.3791812e-12  7.9399741e-12  7.2805925e-12  8.0991993      12.150014      16.200019      1594.1691    
        20   0             -322.55999      78.971099      113.80896      61.552168      61.552168     -4.1751639e-12  2.548676e-11   1.7713319e-11  8.0991993      12.150014      16.200019      1594.1691    
        21   0             -322.55999      78.971099      113.80896      61.552168      61.552168      8.8058561e-12 -1.6212176e-11  5.1884682e-12  8.0991993      12.150014      16.200019      1594.1691    
        22   0             -322.55999      78.971099      113.80896      61.552168      61.552168      8.9319507e-12 -1.0648445e-11 -2.2455467e-12  8.0991993      12.150014      16.200019      1594.1691    
        23   0             -322.55999      78.971099      113.80896      61.552168      61.552168     -5.1429039e-12 -1.3949653e-11 -4.5085278e-12  8.0991993      12.150014      16.200019      1594.1691    
        24   0             -322.55999      78.971099      113.80896      61.552168      61.552168     -1.3613988e-11 -7.0648725e-12  2.2601916e-11  8.0991993      12.150014      16.200019      1594.1691    
        25   0             -322.55999      78.971099      113.80896      61.552168      61.552168     -1.1413175e-11  1.0453646e-11  1.0858125e-11  8.0991993      12.150014      16.200019      1594.1691    
        26   0             -322.55999      78.971099      113.80896      61.552168      61.552168     -6.9269919e-12 -6.0137321e-12 -4.0364051e-11  8.0991993      12.150014      16.200019      1594.1691    
        27   0             -322.55999      78.971099      113.80896      61.552168      61.552168      6.3952819e-12  1.6857784e-11 -5.9311723e-12  8.0991993      12.150014      16.200019      1594.1691    
Loop time of 0.007362 on 1 procs for 25 steps with 96 atoms

0.0% CPU use with 1 MPI tasks x 1 OpenMP threads

Minimization stats:
  Stopping criterion = force tolerance
  Energy initial, next-to-last, final = 
     -322.559993180764  -322.559993203287  -322.559993203289
  Force two-norm initial, final = 0.00051433914 7.0791958e-11
  Force max component initial, final = 7.968742e-05 1.1702035e-11
  Final line search alpha, max atom move = 1 1.1702035e-11
  Iterations, force evaluations = 25 50

MPI task timing breakdown:
Section |  min time  |  avg time  |  max time  |%varavg| %total
---------------------------------------------------------------
Pair    | 0.006905   | 0.006905   | 0.006905   |   0.0 | 93.79
Neigh   | 0          | 0          | 0          |   0.0 |  0.00
Comm    | 0.000141   | 0.000141   | 0.000141   |   0.0 |  1.92
Output  | 0.000221   | 0.000221   | 0.000221   |   0.0 |  3.00
Modify  | 0          | 0          | 0          |   0.0 |  0.00
Other   |            | 9.5e-05    |            |       |  1.29

Nlocal:             96 ave          96 max          96 min
Histogram: 1 0 0 0 0 0 0 0 0 0
Nghost:            976 ave         976 max         976 min
Histogram: 1 0 0 0 0 0 0 0 0 0
Neighs:           4128 ave        4128 max        4128 min
Histogram: 1 0 0 0 0 0 0 0 0 0

Total # of neighbors = 4128
Ave neighs/atom = 43
Neighbor list builds = 0
Dangerous builds = 0
OMP_NUM_THREADS environment is not set. Defaulting to 1 thread. (src/comm.cpp:98)
  using 1 OpenMP thread(s) per MPI task
Loaded 1 plugins from F:\Lammps\LAMMPS 64-bit 2Aug2023\plugins

The 'box' command has been removed and will be ignored

Reading restart file ...
  restart file = 2 Aug 2023, LAMMPS = 2 Aug 2023
  restoring atom style atomic from restart
  triclinic box = (-4.6617854e-06 -6.9926781e-06 -9.3235709e-06) to (8.1000047 12.150007 16.200009) with tilt (0 0 0)
  1 by 1 by 1 MPI processor grid
  pair style eam/alloy stores no restart info
  96 atoms
  read_restart CPU = 0.000 seconds
Changing box ...
  triclinic box = (-4.6617854e-06 -6.9926781e-06 -9.3235709e-06) to (8.1008147 12.150007 16.200009) with tilt (0 0 0)
  triclinic box = (-4.6617854e-06 -6.9926781e-06 -9.3235709e-06) to (8.1008147 12.150007 16.200009) with tilt (0 0 0)
  triclinic box = (-4.6617854e-06 -6.9926781e-06 -9.3235709e-06) to (8.1008147 12.150007 16.200009) with tilt (0 0 0)
Neighbor list info ...
  update: every = 1 steps, delay = 0 steps, check = yes
  max neighbors/atom: 2000, page size: 100000
  master list distance cutoff = 7.28721
  ghost atom cutoff = 7.28721
  1 neighbor lists, perpetual/occasional/extra = 1 0 0
  (1) pair eam/alloy, perpetual
      attributes: half, newton on
      pair build: half/nsq/newton
      stencil: none
      bin: none
Setting up cg style minimization ...
  Unit style    : metal
  Current step  : 2
Per MPI rank memory allocation (min/avg/max) = 4.447 | 4.447 | 4.447 Mbytes
   Step          Temp          PotEng         Press           Pxx            Pyy            Pzz            Pxy            Pxz            Pyz             Lx             Ly             Lz           Volume    
         2   0             -322.55999     -78.956861     -113.77365     -61.548468     -61.548463      7.7976783e-07  3.1904694e-06  1.722448e-06   8.1008193      12.150014      16.200019      1594.4879    
         3   0             -322.55999     -78.956884     -113.77367     -61.54849      -61.548489     -2.6001629e-07 -5.4185251e-07 -4.4588723e-07  8.1008193      12.150014      16.200019      1594.4879    
         4   0             -322.55999     -78.956887     -113.77368     -61.548493     -61.548492     -9.8749075e-08  9.3894991e-08  8.8573171e-08  8.1008193      12.150014      16.200019      1594.4879    
         5   0             -322.55999     -78.956888     -113.77368     -61.548493     -61.548493     -2.7631546e-08 -5.6528198e-09  1.0756887e-08  8.1008193      12.150014      16.200019      1594.4879    
         6   0             -322.55999     -78.956888     -113.77368     -61.548493     -61.548493     -4.4799289e-08 -1.803467e-09   2.07933e-09    8.1008193      12.150014      16.200019      1594.4879    
         7   0             -322.55999     -78.956888     -113.77368     -61.548493     -61.548493     -2.9847595e-08  8.5459272e-10 -4.3927916e-10  8.1008193      12.150014      16.200019      1594.4879    
         8   0             -322.55999     -78.956888     -113.77368     -61.548493     -61.548493     -1.506383e-08  -1.0411545e-09 -1.7015679e-10  8.1008193      12.150014      16.200019      1594.4879    
         9   0             -322.55999     -78.956888     -113.77368     -61.548493     -61.548493     -6.8538274e-09 -1.9160996e-10 -5.5332942e-10  8.1008193      12.150014      16.200019      1594.4879    
        10   0             -322.55999     -78.956888     -113.77368     -61.548493     -61.548493     -2.2953389e-09  5.1632905e-10 -3.8770117e-10  8.1008193      12.150014      16.200019      1594.4879    
        11   0             -322.55999     -78.956888     -113.77368     -61.548493     -61.548493     -6.9567362e-10  5.0616432e-11 -7.9659133e-11  8.1008193      12.150014      16.200019      1594.4879    
        12   0             -322.55999     -78.956888     -113.77368     -61.548493     -61.548493     -2.8687411e-10  3.1438418e-11  3.5098825e-11  8.1008193      12.150014      16.200019      1594.4879    
        13   0             -322.55999     -78.956888     -113.77368     -61.548493     -61.548493     -1.0849196e-11  1.1446679e-11  1.0231928e-11  8.1008193      12.150014      16.200019      1594.4879    
        14   0             -322.55999     -78.956888     -113.77368     -61.548493     -61.548493     -7.908886e-12   6.9293853e-12  9.6427642e-12  8.1008193      12.150014      16.200019      1594.4879    
        15   0             -322.55999     -78.956888     -113.77368     -61.548493     -61.548493     -9.195699e-12  -7.4053254e-12  2.0951921e-12  8.1008193      12.150014      16.200019      1594.4879    
        16   0             -322.55999     -78.956888     -113.77368     -61.548493     -61.548493     -9.0285788e-12  6.3051197e-12 -1.5300829e-11  8.1008193      12.150014      16.200019      1594.4879    
        17   0             -322.55999     -78.956888     -113.77368     -61.548493     -61.548493     -5.8281485e-12 -3.4731666e-12 -2.9336175e-11  8.1008193      12.150014      16.200019      1594.4879    
        18   0             -322.55999     -78.956888     -113.77368     -61.548493     -61.548493     -1.6093166e-11  1.1080596e-11 -1.2184187e-11  8.1008193      12.150014      16.200019      1594.4879    
        19   0             -322.55999     -78.956888     -113.77368     -61.548493     -61.548493      9.4414484e-12 -2.1249071e-11  2.4159203e-12  8.1008193      12.150014      16.200019      1594.4879    
        20   0             -322.55999     -78.956888     -113.77368     -61.548493     -61.548493     -5.065258e-12   1.0327749e-12 -4.7342277e-12  8.1008193      12.150014      16.200019      1594.4879    
        21   0             -322.55999     -78.956888     -113.77368     -61.548493     -61.548493     -3.5934142e-12 -1.2388954e-11 -2.4514793e-11  8.1008193      12.150014      16.200019      1594.4879    
        22   0             -322.55999     -78.956888     -113.77368     -61.548493     -61.548493     -1.0749643e-11 -8.581221e-13  -9.5381789e-12  8.1008193      12.150014      16.200019      1594.4879    
        23   0             -322.55999     -78.956888     -113.77368     -61.548493     -61.548493     -1.4631523e-11  8.2334461e-12  3.43737e-12    8.1008193      12.150014      16.200019      1594.4879    
        24   0             -322.55999     -78.956888     -113.77368     -61.548493     -61.548493      1.7888571e-11 -4.4901227e-12 -1.0915219e-11  8.1008193      12.150014      16.200019      1594.4879    
        25   0             -322.55999     -78.956888     -113.77368     -61.548493     -61.548493     -1.8117897e-11  9.0908132e-12  5.4035736e-13  8.1008193      12.150014      16.200019      1594.4879    
        26   0             -322.55999     -78.956888     -113.77368     -61.548493     -61.548493     -2.6079976e-12 -9.2703441e-12  9.914686e-12   8.1008193      12.150014      16.200019      1594.4879    
        27   0             -322.55999     -78.956888     -113.77368     -61.548493     -61.548493     -4.4360316e-13  1.3549807e-11 -3.6360821e-12  8.1008193      12.150014      16.200019      1594.4879    
Loop time of 0.007504 on 1 procs for 25 steps with 96 atoms

208.2% CPU use with 1 MPI tasks x 1 OpenMP threads

Minimization stats:
  Stopping criterion = force tolerance
  Energy initial, next-to-last, final = 
     -322.559993181924  -322.559993204444  -322.559993204443
  Force two-norm initial, final = 0.00051418236 7.0690503e-11
  Force max component initial, final = 7.9668402e-05 1.3979214e-11
  Final line search alpha, max atom move = 1 1.3979214e-11
  Iterations, force evaluations = 25 50

MPI task timing breakdown:
Section |  min time  |  avg time  |  max time  |%varavg| %total
---------------------------------------------------------------
Pair    | 0.007026   | 0.007026   | 0.007026   |   0.0 | 93.63
Neigh   | 0          | 0          | 0          |   0.0 |  0.00
Comm    | 0.000142   | 0.000142   | 0.000142   |   0.0 |  1.89
Output  | 0.000223   | 0.000223   | 0.000223   |   0.0 |  2.97
Modify  | 0          | 0          | 0          |   0.0 |  0.00
Other   |            | 0.000113   |            |       |  1.51

Nlocal:             96 ave          96 max          96 min
Histogram: 1 0 0 0 0 0 0 0 0 0
Nghost:            976 ave         976 max         976 min
Histogram: 1 0 0 0 0 0 0 0 0 0
Neighs:           4128 ave        4128 max        4128 min
Histogram: 1 0 0 0 0 0 0 0 0 0

Total # of neighbors = 4128
Ave neighs/atom = 43
Neighbor list builds = 0
Dangerous builds = 0
OMP_NUM_THREADS environment is not set. Defaulting to 1 thread. (src/comm.cpp:98)
  using 1 OpenMP thread(s) per MPI task
Loaded 1 plugins from F:\Lammps\LAMMPS 64-bit 2Aug2023\plugins

The 'box' command has been removed and will be ignored

Reading restart file ...
  restart file = 2 Aug 2023, LAMMPS = 2 Aug 2023
  restoring atom style atomic from restart
  triclinic box = (-4.6617854e-06 -6.9926781e-06 -9.3235709e-06) to (8.1000047 12.150007 16.200009) with tilt (0 0 0)
  1 by 1 by 1 MPI processor grid
  pair style eam/alloy stores no restart info
  96 atoms
  read_restart CPU = 0.000 seconds
Changing box ...
  triclinic box = (-4.6617854e-06 -6.9926781e-06 -9.3235709e-06) to (8.1000047 12.148792 16.200009) with tilt (0 0 0)
  triclinic box = (-4.6617854e-06 -6.9926781e-06 -9.3235709e-06) to (8.1000047 12.148792 16.200009) with tilt (0 0 0)
Neighbor list info ...
  update: every = 1 steps, delay = 0 steps, check = yes
  max neighbors/atom: 2000, page size: 100000
  master list distance cutoff = 7.28721
  ghost atom cutoff = 7.28721
  1 neighbor lists, perpetual/occasional/extra = 1 0 0
  (1) pair eam/alloy, perpetual
      attributes: half, newton on
      pair build: half/nsq/newton
      stencil: none
      bin: none
Setting up cg style minimization ...
  Unit style    : metal
  Current step  : 2
Per MPI rank memory allocation (min/avg/max) = 4.447 | 4.447 | 4.447 Mbytes
   Step          Temp          PotEng         Press           Pxx            Pyy            Pzz            Pxy            Pxz            Pyz             Lx             Ly             Lz           Volume    
         2   0             -322.55999      78.971125      61.552192      113.80899      61.552196      7.8719846e-07  3.2010119e-06  1.734408e-06   8.1000093      12.148799      16.200019      1594.1691    
         3   0             -322.55999      78.971103      61.552172      113.80896      61.552172     -2.5739875e-07 -5.3563561e-07 -4.4559289e-07  8.1000093      12.148799      16.200019      1594.1691    
         4   0             -322.55999      78.9711        61.552169      113.80896      61.552169     -9.9445503e-08  9.55155e-08    8.8990121e-08  8.1000093      12.148799      16.200019      1594.1691    
         5   0             -322.55999      78.971099      61.552168      113.80896      61.552168     -2.8413823e-08 -5.0305925e-09  1.1142037e-08  8.1000093      12.148799      16.200019      1594.1691    
         6   0             -322.55999      78.971099      61.552168      113.80896      61.552168     -4.5300577e-08 -1.5646013e-09  2.3147193e-09  8.1000093      12.148799      16.200019      1594.1691    
         7   0             -322.55999      78.971099      61.552168      113.80896      61.552168     -3.0196101e-08  9.190896e-10  -3.4125337e-10  8.1000093      12.148799      16.200019      1594.1691    
         8   0             -322.55999      78.971099      61.552168      113.80896      61.552168     -1.5277052e-08 -1.0406167e-09 -1.4993557e-10  8.1000093      12.148799      16.200019      1594.1691    
         9   0             -322.55999      78.971099      61.552168      113.80896      61.552168     -6.9346121e-09 -1.9839506e-10 -5.6372986e-10  8.1000093      12.148799      16.200019      1594.1691    
        10   0             -322.55999      78.971099      61.552168      113.80896      61.552168     -2.3126041e-09  5.3734379e-10 -3.829773e-10   8.1000093      12.148799      16.200019      1594.1691    
        11   0             -322.55999      78.971099      61.552168      113.80896      61.552168     -7.0923313e-10  5.5153036e-11 -9.1502542e-11  8.1000093      12.148799      16.200019      1594.1691    
        12   0             -322.55999      78.971099      61.552168      113.80896      61.552168     -2.9846667e-10 -7.4264888e-12 -6.6808502e-12  8.1000093      12.148799      16.200019      1594.1691    
        13   0             -322.55999      78.971099      61.552168      113.80896      61.552168     -2.1167802e-11  2.174819e-11   1.2245901e-11  8.1000093      12.148799      16.200019      1594.1691    
        14   0             -322.55999      78.971099      61.552168      113.80896      61.552168      6.9531867e-13 -2.1636792e-12 -1.9237083e-11  8.1000093      12.148799      16.200019      1594.1691    
        15   0             -322.55999      78.971099      61.552168      113.80896      61.552168     -5.1671995e-12 -1.9813205e-11 -1.4721581e-11  8.1000093      12.148799      16.200019      1594.1691    
        16   0             -322.55999      78.971099      61.552168      113.80896      61.552168      9.3348505e-12 -9.6830669e-12  3.1381864e-13  8.1000093      12.148799      16.200019      1594.1691    
        17   0             -322.55999      78.971099      61.552168      113.80896      61.552168      2.4475583e-12  6.358571e-12   4.585239e-12   8.1000093      12.148799      16.200019      1594.1691    
        18   0             -322.55999      78.971099      61.552168      113.80896      61.552168     -1.4129265e-12  2.0183594e-11 -1.2796827e-12  8.1000093      12.148799      16.200019      1594.1691    
        19   0             -322.55999      78.971099      61.552168      113.80896      61.552168      1.2109984e-11  3.2389874e-12  1.73995e-12    8.1000093      12.148799      16.200019      1594.1691    
        20   0             -322.55999      78.971099      61.552168      113.80896      61.552168      2.0679206e-11  1.3603802e-11 -1.1300958e-11  8.1000093      12.148799      16.200019      1594.1691    
        21   0             -322.55999      78.971099      61.552168      113.80896      61.552168     -4.7819999e-12  2.7853731e-12 -7.5630293e-12  8.1000093      12.148799      16.200019      1594.1691    
        22   0             -322.55999      78.971099      61.552168      113.80896      61.552168      5.713799e-12   8.6272476e-12  8.8392251e-12  8.1000093      12.148799      16.200019      1594.1691    
        23   0             -322.55999      78.971099      61.552168      113.80896      61.552168     -8.8095435e-12 -2.0979536e-11  2.5384441e-12  8.1000093      12.148799      16.200019      1594.1691    
        24   0             -322.55999      78.971099      61.552168      113.80896      61.552168     -1.9559464e-13 -9.4876059e-12 -1.1712409e-11  8.1000093      12.148799      16.200019      1594.1691    
        25   0             -322.55999      78.971099      61.552168      113.80896      61.552168      5.2422823e-12 -9.5911354e-12 -1.1681027e-12  8.1000093      12.148799      16.200019      1594.1691    
        26   0             -322.55999      78.971099      61.552168      113.80896      61.552168      1.0763368e-11 -1.9852177e-11  1.5868763e-11  8.1000093      12.148799      16.200019      1594.1691    
        27   0             -322.55999      78.971099      61.552168      113.80896      61.552168      1.7881787e-12 -4.0610964e-12 -9.2576499e-12  8.1000093      12.148799      16.200019      1594.1691    
Loop time of 0.007084 on 1 procs for 25 steps with 96 atoms

0.0% CPU use with 1 MPI tasks x 1 OpenMP threads

Minimization stats:
  Stopping criterion = force tolerance
  Energy initial, next-to-last, final = 
     -322.559993180764  -322.559993203287  -322.559993203289
  Force two-norm initial, final = 0.00051433554 7.1650483e-11
  Force max component initial, final = 7.9695163e-05 1.322456e-11
  Final line search alpha, max atom move = 1 1.322456e-11
  Iterations, force evaluations = 25 50

MPI task timing breakdown:
Section |  min time  |  avg time  |  max time  |%varavg| %total
---------------------------------------------------------------
Pair    | 0.006597   | 0.006597   | 0.006597   |   0.0 | 93.13
Neigh   | 0          | 0          | 0          |   0.0 |  0.00
Comm    | 0.000134   | 0.000134   | 0.000134   |   0.0 |  1.89
Output  | 0.000223   | 0.000223   | 0.000223   |   0.0 |  3.15
Modify  | 0          | 0          | 0          |   0.0 |  0.00
Other   |            | 0.00013    |            |       |  1.84

Nlocal:             96 ave          96 max          96 min
Histogram: 1 0 0 0 0 0 0 0 0 0
Nghost:            976 ave         976 max         976 min
Histogram: 1 0 0 0 0 0 0 0 0 0
Neighs:           4128 ave        4128 max        4128 min
Histogram: 1 0 0 0 0 0 0 0 0 0

Total # of neighbors = 4128
Ave neighs/atom = 43
Neighbor list builds = 0
Dangerous builds = 0
OMP_NUM_THREADS environment is not set. Defaulting to 1 thread. (src/comm.cpp:98)
  using 1 OpenMP thread(s) per MPI task
Loaded 1 plugins from F:\Lammps\LAMMPS 64-bit 2Aug2023\plugins

The 'box' command has been removed and will be ignored

Reading restart file ...
  restart file = 2 Aug 2023, LAMMPS = 2 Aug 2023
  restoring atom style atomic from restart
  triclinic box = (-4.6617854e-06 -6.9926781e-06 -9.3235709e-06) to (8.1000047 12.150007 16.200009) with tilt (0 0 0)
  1 by 1 by 1 MPI processor grid
  pair style eam/alloy stores no restart info
  96 atoms
  read_restart CPU = 0.000 seconds
Changing box ...
  triclinic box = (-4.6617854e-06 -6.9926781e-06 -9.3235709e-06) to (8.1000047 12.151222 16.200009) with tilt (0 0 0)
  triclinic box = (-4.6617854e-06 -6.9926781e-06 -9.3235709e-06) to (8.1000047 12.151222 16.200009) with tilt (0 0 0)
Neighbor list info ...
  update: every = 1 steps, delay = 0 steps, check = yes
  max neighbors/atom: 2000, page size: 100000
  master list distance cutoff = 7.28721
  ghost atom cutoff = 7.28721
  1 neighbor lists, perpetual/occasional/extra = 1 0 0
  (1) pair eam/alloy, perpetual
      attributes: half, newton on
      pair build: half/nsq/newton
      stencil: none
      bin: none
Setting up cg style minimization ...
  Unit style    : metal
  Current step  : 2
Per MPI rank memory allocation (min/avg/max) = 4.447 | 4.447 | 4.447 Mbytes
   Step          Temp          PotEng         Press           Pxx            Pyy            Pzz            Pxy            Pxz            Pyz             Lx             Ly             Lz           Volume    
         2   0             -322.55999     -78.956861     -61.548467     -113.77365     -61.548463      7.7948539e-07  3.200051e-06   1.7206509e-06  8.1000093      12.151229      16.200019      1594.4879    
         3   0             -322.55999     -78.956884     -61.548489     -113.77367     -61.548489     -2.6000644e-07 -5.3987054e-07 -4.4664679e-07  8.1000093      12.151229      16.200019      1594.4879    
         4   0             -322.55999     -78.956887     -61.548492     -113.77368     -61.548492     -9.8715994e-08  9.483848e-08   8.8998091e-08  8.1000093      12.151229      16.200019      1594.4879    
         5   0             -322.55999     -78.956888     -61.548493     -113.77368     -61.548493     -2.7654997e-08 -5.1734959e-09  1.1023158e-08  8.1000093      12.151229      16.200019      1594.4879    
         6   0             -322.55999     -78.956888     -61.548493     -113.77368     -61.548493     -4.480486e-08  -1.6065372e-09  2.1567266e-09  8.1000093      12.151229      16.200019      1594.4879    
         7   0             -322.55999     -78.956888     -61.548493     -113.77368     -61.548493     -2.9844726e-08  9.170913e-10  -4.107448e-10   8.1000093      12.151229      16.200019      1594.4879    
         8   0             -322.55999     -78.956888     -61.548493     -113.77368     -61.548493     -1.506895e-08  -1.0632973e-09 -1.6607796e-10  8.1000093      12.151229      16.200019      1594.4879    
         9   0             -322.55999     -78.956888     -61.548493     -113.77368     -61.548493     -6.8384206e-09 -2.0029095e-10 -5.4067809e-10  8.1000093      12.151229      16.200019      1594.4879    
        10   0             -322.55999     -78.956888     -61.548493     -113.77368     -61.548493     -2.2795553e-09  5.165243e-10  -3.8976848e-10  8.1000093      12.151229      16.200019      1594.4879    
        11   0             -322.55999     -78.956888     -61.548493     -113.77368     -61.548493     -7.0039154e-10  4.6086858e-11 -1.0014391e-10  8.1000093      12.151229      16.200019      1594.4879    
        12   0             -322.55999     -78.956888     -61.548493     -113.77368     -61.548493     -2.7095059e-10  1.7246174e-11  1.806188e-11   8.1000093      12.151229      16.200019      1594.4879    
        13   0             -322.55999     -78.956888     -61.548493     -113.77368     -61.548493     -3.2721013e-11  1.5035946e-11  5.5221036e-12  8.1000093      12.151229      16.200019      1594.4879    
        14   0             -322.55999     -78.956888     -61.548493     -113.77368     -61.548493     -1.200362e-11   5.0662633e-13  3.4722318e-12  8.1000093      12.151229      16.200019      1594.4879    
        15   0             -322.55999     -78.956888     -61.548493     -113.77368     -61.548493     -8.6020725e-12 -2.0982843e-11  4.7063383e-13  8.1000093      12.151229      16.200019      1594.4879    
        16   0             -322.55999     -78.956888     -61.548493     -113.77368     -61.548493     -7.994064e-12  -1.1368037e-11 -8.098388e-12   8.1000093      12.151229      16.200019      1594.4879    
        17   0             -322.55999     -78.956888     -61.548493     -113.77368     -61.548493     -4.9450237e-12 -2.079014e-12   6.0101683e-12  8.1000093      12.151229      16.200019      1594.4879    
        18   0             -322.55999     -78.956888     -61.548493     -113.77368     -61.548493     -1.1933528e-11 -3.941839e-12   8.9246118e-12  8.1000093      12.151229      16.200019      1594.4879    
        19   0             -322.55999     -78.956888     -61.548493     -113.77368     -61.548493     -4.7918751e-13 -3.9836832e-14 -4.2531353e-12  8.1000093      12.151229      16.200019      1594.4879    
        20   0             -322.55999     -78.956888     -61.548493     -113.77368     -61.548493      1.0305533e-12  1.3008347e-11 -1.3484531e-11  8.1000093      12.151229      16.200019      1594.4879    
        21   0             -322.55999     -78.956888     -61.548493     -113.77368     -61.548493      5.648903e-12   1.2449329e-11 -1.5161382e-11  8.1000093      12.151229      16.200019      1594.4879    
        22   0             -322.55999     -78.956888     -61.548493     -113.77368     -61.548493     -1.6845376e-11 -1.3790943e-11 -6.8747401e-12  8.1000093      12.151229      16.200019      1594.4879    
        23   0             -322.55999     -78.956888     -61.548493     -113.77368     -61.548493     -1.9530088e-12 -1.8393155e-11  8.6770933e-12  8.1000093      12.151229      16.200019      1594.4879    
        24   0             -322.55999     -78.956888     -61.548493     -113.77368     -61.548493     -1.9338827e-11 -9.0124534e-12 -1.0339999e-11  8.1000093      12.151229      16.200019      1594.4879    
        25   0             -322.55999     -78.956888     -61.548493     -113.77368     -61.548493      1.2732844e-11 -1.9817785e-12  1.2700141e-11  8.1000093      12.151229      16.200019      1594.4879    
        26   0             -322.55999     -78.956888     -61.548493     -113.77368     -61.548493      1.3228976e-12  1.8891553e-11 -1.9899095e-11  8.1000093      12.151229      16.200019      1594.4879    
        27   0             -322.55999     -78.956888     -61.548493     -113.77368     -61.548493      2.2131831e-11 -3.2260878e-12  8.7886509e-12  8.1000093      12.151229      16.200019      1594.4879    
Loop time of 0.007078 on 1 procs for 25 steps with 96 atoms

0.0% CPU use with 1 MPI tasks x 1 OpenMP threads

Minimization stats:
  Stopping criterion = force tolerance
  Energy initial, next-to-last, final = 
     -322.559993181924  -322.559993204442  -322.559993204443
  Force two-norm initial, final = 0.00051418596 7.1382102e-11
  Force max component initial, final = 7.9660621e-05 1.349168e-11
  Final line search alpha, max atom move = 1 1.349168e-11
  Iterations, force evaluations = 25 50

MPI task timing breakdown:
Section |  min time  |  avg time  |  max time  |%varavg| %total
---------------------------------------------------------------
Pair    | 0.006603   | 0.006603   | 0.006603   |   0.0 | 93.29
Neigh   | 0          | 0          | 0          |   0.0 |  0.00
Comm    | 0.00014    | 0.00014    | 0.00014    |   0.0 |  1.98
Output  | 0.000228   | 0.000228   | 0.000228   |   0.0 |  3.22
Modify  | 0          | 0          | 0          |   0.0 |  0.00
Other   |            | 0.000107   |            |       |  1.51

Nlocal:             96 ave          96 max          96 min
Histogram: 1 0 0 0 0 0 0 0 0 0
Nghost:            976 ave         976 max         976 min
Histogram: 1 0 0 0 0 0 0 0 0 0
Neighs:           4128 ave        4128 max        4128 min
Histogram: 1 0 0 0 0 0 0 0 0 0

Total # of neighbors = 4128
Ave neighs/atom = 43
Neighbor list builds = 0
Dangerous builds = 0
OMP_NUM_THREADS environment is not set. Defaulting to 1 thread. (src/comm.cpp:98)
  using 1 OpenMP thread(s) per MPI task
Loaded 1 plugins from F:\Lammps\LAMMPS 64-bit 2Aug2023\plugins

The 'box' command has been removed and will be ignored

Reading restart file ...
  restart file = 2 Aug 2023, LAMMPS = 2 Aug 2023
  restoring atom style atomic from restart
  triclinic box = (-4.6617854e-06 -6.9926781e-06 -9.3235709e-06) to (8.1000047 12.150007 16.200009) with tilt (0 0 0)
  1 by 1 by 1 MPI processor grid
  pair style eam/alloy stores no restart info
  96 atoms
  read_restart CPU = 0.000 seconds
Changing box ...
  triclinic box = (-4.6617854e-06 -6.9926781e-06 -9.3235709e-06) to (8.1000047 12.150007 16.198389) with tilt (0 0 0)
Neighbor list info ...
  update: every = 1 steps, delay = 0 steps, check = yes
  max neighbors/atom: 2000, page size: 100000
  master list distance cutoff = 7.28721
  ghost atom cutoff = 7.28721
  1 neighbor lists, perpetual/occasional/extra = 1 0 0
  (1) pair eam/alloy, perpetual
      attributes: half, newton on
      pair build: half/nsq/newton
      stencil: none
      bin: none
Setting up cg style minimization ...
  Unit style    : metal
  Current step  : 2
Per MPI rank memory allocation (min/avg/max) = 4.447 | 4.447 | 4.447 Mbytes
   Step          Temp          PotEng         Press           Pxx            Pyy            Pzz            Pxy            Pxz            Pyz             Lx             Ly             Lz           Volume    
         2   0             -322.55999      78.971125      61.552192      61.552192      113.80899      8.0667328e-07  3.1989785e-06  1.7114374e-06  8.1000093      12.150014      16.198399      1594.1691    
         3   0             -322.55999      78.971103      61.552172      61.552171      113.80897     -2.5624896e-07 -5.398666e-07  -4.473003e-07   8.1000093      12.150014      16.198399      1594.1691    
         4   0             -322.55999      78.9711        61.552169      61.552169      113.80896     -9.8238461e-08  9.4428539e-08  8.8402276e-08  8.1000093      12.150014      16.198399      1594.1691    
         5   0             -322.55999      78.971099      61.552168      61.552168      113.80896     -2.775016e-08  -5.7602511e-09  1.0805777e-08  8.1000093      12.150014      16.198399      1594.1691    
         6   0             -322.55999      78.971099      61.552168      61.552168      113.80896     -4.5052875e-08 -1.8347452e-09  2.0967862e-09  8.1000093      12.150014      16.198399      1594.1691    
         7   0             -322.55999      78.971099      61.552168      61.552168      113.80896     -3.0094254e-08  8.9151243e-10 -4.449251e-10   8.1000093      12.150014      16.198399      1594.1691    
         8   0             -322.55999      78.971099      61.552168      61.552168      113.80896     -1.5245762e-08 -1.0476797e-09 -1.8893626e-10  8.1000093      12.150014      16.198399      1594.1691    
         9   0             -322.55999      78.971099      61.552168      61.552168      113.80896     -6.9083817e-09 -1.9757442e-10 -5.5297983e-10  8.1000093      12.150014      16.198399      1594.1691    
        10   0             -322.55999      78.971099      61.552168      61.552168      113.80896     -2.3134914e-09  5.2018957e-10 -4.1106755e-10  8.1000093      12.150014      16.198399      1594.1691    
        11   0             -322.55999      78.971099      61.552168      61.552168      113.80896     -6.9198658e-10  5.3587549e-11 -8.7520532e-11  8.1000093      12.150014      16.198399      1594.1691    
        12   0             -322.55999      78.971099      61.552168      61.552168      113.80896     -3.0220737e-10  2.5765238e-11  2.3013367e-11  8.1000093      12.150014      16.198399      1594.1691    
        13   0             -322.55999      78.971099      61.552168      61.552168      113.80896     -2.5459025e-11  2.2755815e-13  1.8490892e-11  8.1000093      12.150014      16.198399      1594.1691    
        14   0             -322.55999      78.971099      61.552168      61.552168      113.80896     -1.6484572e-11 -8.0293762e-12 -1.2186624e-11  8.1000093      12.150014      16.198399      1594.1691    
        15   0             -322.55999      78.971099      61.552168      61.552168      113.80896     -4.0062576e-12  4.4271656e-12  1.6360412e-11  8.1000093      12.150014      16.198399      1594.1691    
        16   0             -322.55999      78.971099      61.552168      61.552168      113.80896      3.9933161e-12 -1.3090267e-12 -2.7113931e-11  8.1000093      12.150014      16.198399      1594.1691    
        17   0             -322.55999      78.971099      61.552168      61.552168      113.80896      9.5795209e-12 -3.0766549e-12 -2.6134119e-11  8.1000093      12.150014      16.198399      1594.1691    
        18   0             -322.55999      78.971099      61.552168      61.552168      113.80896     -3.0199972e-12 -2.5431658e-13 -1.863734e-11   8.1000093      12.150014      16.198399      1594.1691    
        19   0             -322.55999      78.971099      61.552168      61.552168      113.80896      1.5224504e-11 -6.5852083e-12 -9.7318648e-12  8.1000093      12.150014      16.198399      1594.1691    
        20   0             -322.55999      78.971099      61.552168      61.552168      113.80896      8.648377e-12  -2.1790645e-12  6.3112416e-12  8.1000093      12.150014      16.198399      1594.1691    
        21   0             -322.55999      78.971099      61.552168      61.552168      113.80896     -1.5995073e-11  4.0824296e-12  4.5887259e-12  8.1000093      12.150014      16.198399      1594.1691    
        22   0             -322.55999      78.971099      61.552168      61.552168      113.80896     -4.7748696e-12 -1.1710695e-11 -4.6549765e-12  8.1000093      12.150014      16.198399      1594.1691    
        23   0             -322.55999      78.971099      61.552168      61.552168      113.80896     -1.3532137e-11  1.6365579e-11  5.6034062e-12  8.1000093      12.150014      16.198399      1594.1691    
        24   0             -322.55999      78.971099      61.552168      61.552168      113.80896     -9.1824326e-12 -2.1707844e-11 -4.6375422e-12  8.1000093      12.150014      16.198399      1594.1691    
        25   0             -322.55999      78.971099      61.552168      61.552168      113.80896     -7.4276536e-12 -2.4358246e-11 -6.520454e-12   8.1000093      12.150014      16.198399      1594.1691    
        26   0             -322.55999      78.971099      61.552168      61.552168      113.80896     -2.9714628e-12  8.5295552e-12  1.4348486e-11  8.1000093      12.150014      16.198399      1594.1691    
        27   0             -322.55999      78.971099      61.552168      61.552168      113.80896     -1.0116991e-11  9.2131325e-12 -1.531435e-11   8.1000093      12.150014      16.198399      1594.1691    
Loop time of 0.007109 on 1 procs for 25 steps with 96 atoms

0.0% CPU use with 1 MPI tasks x 1 OpenMP threads

Minimization stats:
  Stopping criterion = force tolerance
  Energy initial, next-to-last, final = 
     -322.559993180765  -322.559993203288  -322.559993203288
  Force two-norm initial, final = 0.00051434091 7.0656742e-11
  Force max component initial, final = 7.9690408e-05 1.4233927e-11
  Final line search alpha, max atom move = 1 1.4233927e-11
  Iterations, force evaluations = 25 50

MPI task timing breakdown:
Section |  min time  |  avg time  |  max time  |%varavg| %total
---------------------------------------------------------------
Pair    | 0.00663    | 0.00663    | 0.00663    |   0.0 | 93.26
Neigh   | 0          | 0          | 0          |   0.0 |  0.00
Comm    | 0.000145   | 0.000145   | 0.000145   |   0.0 |  2.04
Output  | 0.000219   | 0.000219   | 0.000219   |   0.0 |  3.08
Modify  | 0          | 0          | 0          |   0.0 |  0.00
Other   |            | 0.000115   |            |       |  1.62

Nlocal:             96 ave          96 max          96 min
Histogram: 1 0 0 0 0 0 0 0 0 0
Nghost:            976 ave         976 max         976 min
Histogram: 1 0 0 0 0 0 0 0 0 0
Neighs:           4128 ave        4128 max        4128 min
Histogram: 1 0 0 0 0 0 0 0 0 0

Total # of neighbors = 4128
Ave neighs/atom = 43
Neighbor list builds = 0
Dangerous builds = 0
OMP_NUM_THREADS environment is not set. Defaulting to 1 thread. (src/comm.cpp:98)
  using 1 OpenMP thread(s) per MPI task
Loaded 1 plugins from F:\Lammps\LAMMPS 64-bit 2Aug2023\plugins

The 'box' command has been removed and will be ignored

Reading restart file ...
  restart file = 2 Aug 2023, LAMMPS = 2 Aug 2023
  restoring atom style atomic from restart
  triclinic box = (-4.6617854e-06 -6.9926781e-06 -9.3235709e-06) to (8.1000047 12.150007 16.200009) with tilt (0 0 0)
  1 by 1 by 1 MPI processor grid
  pair style eam/alloy stores no restart info
  96 atoms
  read_restart CPU = 0.000 seconds
Changing box ...
  triclinic box = (-4.6617854e-06 -6.9926781e-06 -9.3235709e-06) to (8.1000047 12.150007 16.201629) with tilt (0 0 0)
Neighbor list info ...
  update: every = 1 steps, delay = 0 steps, check = yes
  max neighbors/atom: 2000, page size: 100000
  master list distance cutoff = 7.28721
  ghost atom cutoff = 7.28721
  1 neighbor lists, perpetual/occasional/extra = 1 0 0
  (1) pair eam/alloy, perpetual
      attributes: half, newton on
      pair build: half/nsq/newton
      stencil: none
      bin: none
Setting up cg style minimization ...
  Unit style    : metal
  Current step  : 2
Per MPI rank memory allocation (min/avg/max) = 4.447 | 4.447 | 4.447 Mbytes
   Step          Temp          PotEng         Press           Pxx            Pyy            Pzz            Pxy            Pxz            Pyz             Lx             Ly             Lz           Volume    
         2   0             -322.55999     -78.956861     -61.548467     -61.548468     -113.77365      7.9295098e-07  3.1905585e-06  1.7203088e-06  8.1000093      12.150014      16.201639      1594.4879    
         3   0             -322.55999     -78.956884     -61.548489     -61.54849      -113.77367     -2.5836972e-07 -5.4189718e-07 -4.4659899e-07  8.1000093      12.150014      16.201639      1594.4879    
         4   0             -322.55999     -78.956887     -61.548492     -61.548493     -113.77368     -9.8491153e-08  9.3958902e-08  8.8978516e-08  8.1000093      12.150014      16.201639      1594.4879    
         5   0             -322.55999     -78.956888     -61.548493     -61.548493     -113.77368     -2.7315031e-08 -5.6613003e-09  1.1057287e-08  8.1000093      12.150014      16.201639      1594.4879    
         6   0             -322.55999     -78.956888     -61.548493     -61.548493     -113.77368     -4.4651677e-08 -1.8193129e-09  2.1391772e-09  8.1000093      12.150014      16.201639      1594.4879    
         7   0             -322.55999     -78.956888     -61.548493     -61.548493     -113.77368     -2.980116e-08   8.6419142e-10 -4.4206461e-10  8.1000093      12.150014      16.201639      1594.4879    
         8   0             -322.55999     -78.956888     -61.548493     -61.548493     -113.77368     -1.5061377e-08 -1.0521022e-09 -1.6024908e-10  8.1000093      12.150014      16.201639      1594.4879    
         9   0             -322.55999     -78.956888     -61.548493     -61.548493     -113.77368     -6.8438769e-09 -1.758187e-10  -5.138659e-10   8.1000093      12.150014      16.201639      1594.4879    
        10   0             -322.55999     -78.956888     -61.548493     -61.548493     -113.77368     -2.2800664e-09  5.2599946e-10 -3.9997252e-10  8.1000093      12.150014      16.201639      1594.4879    
        11   0             -322.55999     -78.956888     -61.548493     -61.548493     -113.77368     -6.8433623e-10  4.1072371e-11 -7.5939383e-11  8.1000093      12.150014      16.201639      1594.4879    
        12   0             -322.55999     -78.956888     -61.548493     -61.548493     -113.77368     -2.6985235e-10  3.7297515e-11  2.221043e-11   8.1000093      12.150014      16.201639      1594.4879    
        13   0             -322.55999     -78.956888     -61.548493     -61.548493     -113.77368     -3.0121583e-11  1.0035664e-11  1.1246405e-11  8.1000093      12.150014      16.201639      1594.4879    
        14   0             -322.55999     -78.956888     -61.548493     -61.548493     -113.77368     -1.3060529e-11 -1.9286199e-11 -1.4293324e-13  8.1000093      12.150014      16.201639      1594.4879    
        15   0             -322.55999     -78.956888     -61.548493     -61.548493     -113.77368     -1.5968927e-11  2.0744426e-11  1.5496055e-11  8.1000093      12.150014      16.201639      1594.4879    
        16   0             -322.55999     -78.956888     -61.548493     -61.548493     -113.77368      1.1040221e-11 -1.08627e-11   -5.3687118e-12  8.1000093      12.150014      16.201639      1594.4879    
        17   0             -322.55999     -78.956888     -61.548493     -61.548493     -113.77368      3.4905279e-12  6.3930414e-12 -6.3448412e-12  8.1000093      12.150014      16.201639      1594.4879    
        18   0             -322.55999     -78.956888     -61.548493     -61.548493     -113.77368     -3.2457402e-12 -5.7024294e-13 -1.2612987e-11  8.1000093      12.150014      16.201639      1594.4879    
        19   0             -322.55999     -78.956888     -61.548493     -61.548493     -113.77368     -4.9472492e-12 -2.6006576e-12 -1.7291435e-11  8.1000093      12.150014      16.201639      1594.4879    
        20   0             -322.55999     -78.956888     -61.548493     -61.548493     -113.77368     -5.9622133e-12  1.4766359e-11  1.9051955e-11  8.1000093      12.150014      16.201639      1594.4879    
        21   0             -322.55999     -78.956888     -61.548493     -61.548493     -113.77368     -1.9454186e-12  1.0350309e-11  2.2450977e-12  8.1000093      12.150014      16.201639      1594.4879    
        22   0             -322.55999     -78.956888     -61.548493     -61.548493     -113.77368     -1.7704961e-11 -1.7123378e-11 -1.9766621e-12  8.1000093      12.150014      16.201639      1594.4879    
        23   0             -322.55999     -78.956888     -61.548493     -61.548493     -113.77368     -1.0197475e-11 -1.5352157e-12  7.3662909e-12  8.1000093      12.150014      16.201639      1594.4879    
        24   0             -322.55999     -78.956888     -61.548493     -61.548493     -113.77368      9.2326055e-12  7.5254886e-12 -1.249097e-11   8.1000093      12.150014      16.201639      1594.4879    
        25   0             -322.55999     -78.956888     -61.548493     -61.548493     -113.77368     -1.0826398e-11  1.1671362e-11 -1.5440276e-11  8.1000093      12.150014      16.201639      1594.4879    
        26   0             -322.55999     -78.956888     -61.548493     -61.548493     -113.77368      1.0752649e-11 -1.3283532e-12  3.3136108e-11  8.1000093      12.150014      16.201639      1594.4879    
        27   0             -322.55999     -78.956888     -61.548493     -61.548493     -113.77368      7.8018105e-12 -2.80186e-11    2.1935023e-11  8.1000093      12.150014      16.201639      1594.4879    
Loop time of 0.006936 on 1 procs for 25 steps with 96 atoms

0.0% CPU use with 1 MPI tasks x 1 OpenMP threads

Minimization stats:
  Stopping criterion = force tolerance
  Energy initial, next-to-last, final = 
     -322.559993181924  -322.559993204443  -322.559993204444
  Force two-norm initial, final = 0.00051418063 7.055863e-11
  Force max component initial, final = 7.9665402e-05 1.1166179e-11
  Final line search alpha, max atom move = 1 1.1166179e-11
  Iterations, force evaluations = 25 50

MPI task timing breakdown:
Section |  min time  |  avg time  |  max time  |%varavg| %total
---------------------------------------------------------------
Pair    | 0.006491   | 0.006491   | 0.006491   |   0.0 | 93.58
Neigh   | 0          | 0          | 0          |   0.0 |  0.00
Comm    | 0.000137   | 0.000137   | 0.000137   |   0.0 |  1.98
Output  | 0.000201   | 0.000201   | 0.000201   |   0.0 |  2.90
Modify  | 0          | 0          | 0          |   0.0 |  0.00
Other   |            | 0.000107   |            |       |  1.54

Nlocal:             96 ave          96 max          96 min
Histogram: 1 0 0 0 0 0 0 0 0 0
Nghost:            976 ave         976 max         976 min
Histogram: 1 0 0 0 0 0 0 0 0 0
Neighs:           4128 ave        4128 max        4128 min
Histogram: 1 0 0 0 0 0 0 0 0 0

Total # of neighbors = 4128
Ave neighs/atom = 43
Neighbor list builds = 0
Dangerous builds = 0
OMP_NUM_THREADS environment is not set. Defaulting to 1 thread. (src/comm.cpp:98)
  using 1 OpenMP thread(s) per MPI task
Loaded 1 plugins from F:\Lammps\LAMMPS 64-bit 2Aug2023\plugins

The 'box' command has been removed and will be ignored

Reading restart file ...
  restart file = 2 Aug 2023, LAMMPS = 2 Aug 2023
  restoring atom style atomic from restart
  triclinic box = (-4.6617854e-06 -6.9926781e-06 -9.3235709e-06) to (8.1000047 12.150007 16.200009) with tilt (0 0 0)
  1 by 1 by 1 MPI processor grid
  pair style eam/alloy stores no restart info
  96 atoms
  read_restart CPU = 0.000 seconds
Changing box ...
  triclinic box = (-4.6617854e-06 -6.9926781e-06 -9.3235709e-06) to (8.1000047 12.150007 16.200009) with tilt (0 0 -0.0016200019)
Neighbor list info ...
  update: every = 1 steps, delay = 0 steps, check = yes
  max neighbors/atom: 2000, page size: 100000
  master list distance cutoff = 7.28721
  ghost atom cutoff = 7.28721
  1 neighbor lists, perpetual/occasional/extra = 1 0 0
  (1) pair eam/alloy, perpetual
      attributes: half, newton on
      pair build: half/nsq/newton
      stencil: none
      bin: none
Setting up cg style minimization ...
  Unit style    : metal
  Current step  : 2
Per MPI rank memory allocation (min/avg/max) = 4.447 | 4.447 | 4.447 Mbytes
   Step          Temp          PotEng         Press           Pxx            Pyy            Pzz            Pxy            Pxz            Pyz             Lx             Ly             Lz           Volume    
         2   0             -322.56         0.0016802295   0.0025667009  -0.0006185051   0.0030924928   7.9809552e-07  3.1990656e-06  31.594579      8.1000093      12.150014      16.200019      1594.3285    
         3   0             -322.56         0.0016584407   0.0025458654  -0.00063926533  0.0030687221  -2.5780339e-07 -5.3843253e-07  31.594577      8.1000093      12.150014      16.200019      1594.3285    
         4   0             -322.56         0.0016554928   0.0025428861  -0.00064181376  0.0030654061  -9.8513087e-08  9.4871108e-08  31.594577      8.1000093      12.150014      16.200019      1594.3285    
         5   0             -322.56         0.0016548611   0.0025422521  -0.00064231079  0.0030646421  -2.731437e-08  -5.1440766e-09  31.594577      8.1000093      12.150014      16.200019      1594.3285    
         6   0             -322.56         0.001654733    0.0025421044  -0.00064239777  0.0030644924  -4.463129e-08  -1.6060789e-09  31.594577      8.1000093      12.150014      16.200019      1594.3285    
         7   0             -322.56         0.0016547039   0.0025420848  -0.00064242831  0.0030644553  -2.9800238e-08  9.36009e-10    31.594577      8.1000093      12.150014      16.200019      1594.3285    
         8   0             -322.56         0.0016546872   0.0025420729  -0.0006424458   0.0030644343  -1.507135e-08  -1.0502373e-09  31.594577      8.1000093      12.150014      16.200019      1594.3285    
         9   0             -322.56         0.0016546762   0.0025420637  -0.00064245321  0.0030644182  -6.8437278e-09 -2.1320231e-10  31.594577      8.1000093      12.150014      16.200019      1594.3285    
        10   0             -322.56         0.0016546704   0.002542058   -0.00064245581  0.0030644089  -2.2832269e-09  5.124148e-10   31.594577      8.1000093      12.150014      16.200019      1594.3285    
        11   0             -322.56         0.0016546682   0.0025420562  -0.00064245694  0.0030644053  -6.6144626e-10  4.5427177e-11  31.594577      8.1000093      12.150014      16.200019      1594.3285    
        12   0             -322.56         0.0016546674   0.0025420556  -0.00064245763  0.0030644044  -2.8314402e-10  2.0244521e-11  31.594577      8.1000093      12.150014      16.200019      1594.3285    
        13   0             -322.56         0.001654667    0.0025420553  -0.00064245811  0.0030644039  -3.008184e-11   8.3373222e-12  31.594577      8.1000093      12.150014      16.200019      1594.3285    
        14   0             -322.56         0.0016546669   0.0025420552  -0.00064245829  0.0030644037  -7.5556562e-12  3.5521496e-12  31.594577      8.1000093      12.150014      16.200019      1594.3285    
        15   0             -322.56         0.0016546669   0.0025420552  -0.00064245828  0.0030644037  -1.7348391e-11  7.1964917e-12  31.594577      8.1000093      12.150014      16.200019      1594.3285    
        16   0             -322.56         0.0016546668   0.0025420552  -0.00064245833  0.0030644036  -2.5765609e-12 -2.2590554e-12  31.594577      8.1000093      12.150014      16.200019      1594.3285    
        17   0             -322.56         0.0016546668   0.0025420552  -0.00064245835  0.0030644037  -7.1328648e-12 -1.2612963e-12  31.594577      8.1000093      12.150014      16.200019      1594.3285    
        18   0             -322.56         0.0016546668   0.0025420552  -0.00064245831  0.0030644037  -1.6154861e-12 -9.6736505e-12  31.594577      8.1000093      12.150014      16.200019      1594.3285    
        19   0             -322.56         0.0016546668   0.0025420552  -0.00064245833  0.0030644036  -8.2054744e-12  1.3233543e-11  31.594577      8.1000093      12.150014      16.200019      1594.3285    
        20   0             -322.56         0.0016546668   0.0025420551  -0.00064245833  0.0030644036  -6.2773733e-12  3.6944014e-12  31.594577      8.1000093      12.150014      16.200019      1594.3285    
        21   0             -322.56         0.0016546668   0.0025420552  -0.00064245831  0.0030644037  -1.4799648e-11  2.564902e-12   31.594577      8.1000093      12.150014      16.200019      1594.3285    
        22   0             -322.56         0.0016546668   0.0025420551  -0.00064245833  0.0030644036  -1.0108818e-11  1.2883521e-11  31.594577      8.1000093      12.150014      16.200019      1594.3285    
        23   0             -322.56         0.0016546668   0.0025420551  -0.00064245836  0.0030644036  -4.3981169e-12 -1.3740006e-11  31.594577      8.1000093      12.150014      16.200019      1594.3285    
        24   0             -322.56         0.0016546668   0.0025420552  -0.00064245833  0.0030644036   7.8662065e-13 -2.2014005e-11  31.594577      8.1000093      12.150014      16.200019      1594.3285    
        25   0             -322.56         0.0016546668   0.0025420552  -0.0006424583   0.0030644036  -1.7093769e-12 -9.4536062e-13  31.594577      8.1000093      12.150014      16.200019      1594.3285    
        26   0             -322.56         0.0016546668   0.0025420552  -0.00064245832  0.0030644037   1.0550362e-11 -1.9509146e-12  31.594577      8.1000093      12.150014      16.200019      1594.3285    
        27   0             -322.56         0.0016546668   0.0025420551  -0.00064245835  0.0030644037  -2.500098e-11  -8.567172e-12   31.594577      8.1000093      12.150014      16.200019      1594.3285    
Loop time of 0.007119 on 1 procs for 25 steps with 96 atoms

219.5% CPU use with 1 MPI tasks x 1 OpenMP threads

Minimization stats:
  Stopping criterion = force tolerance
  Energy initial, next-to-last, final = 
     -322.559997271132  -322.559997293653  -322.559997293654
  Force two-norm initial, final = 0.00051426911 8.2625409e-11
  Force max component initial, final = 7.9675807e-05 1.4933582e-11
  Final line search alpha, max atom move = 1 1.4933582e-11
  Iterations, force evaluations = 25 50

MPI task timing breakdown:
Section |  min time  |  avg time  |  max time  |%varavg| %total
---------------------------------------------------------------
Pair    | 0.006672   | 0.006672   | 0.006672   |   0.0 | 93.72
Neigh   | 0          | 0          | 0          |   0.0 |  0.00
Comm    | 0.000133   | 0.000133   | 0.000133   |   0.0 |  1.87
Output  | 0.000212   | 0.000212   | 0.000212   |   0.0 |  2.98
Modify  | 0          | 0          | 0          |   0.0 |  0.00
Other   |            | 0.000102   |            |       |  1.43

Nlocal:             96 ave          96 max          96 min
Histogram: 1 0 0 0 0 0 0 0 0 0
Nghost:            976 ave         976 max         976 min
Histogram: 1 0 0 0 0 0 0 0 0 0
Neighs:           4128 ave        4128 max        4128 min
Histogram: 1 0 0 0 0 0 0 0 0 0

Total # of neighbors = 4128
Ave neighs/atom = 43
Neighbor list builds = 0
Dangerous builds = 0
OMP_NUM_THREADS environment is not set. Defaulting to 1 thread. (src/comm.cpp:98)
  using 1 OpenMP thread(s) per MPI task
Loaded 1 plugins from F:\Lammps\LAMMPS 64-bit 2Aug2023\plugins

The 'box' command has been removed and will be ignored

Reading restart file ...
  restart file = 2 Aug 2023, LAMMPS = 2 Aug 2023
  restoring atom style atomic from restart
  triclinic box = (-4.6617854e-06 -6.9926781e-06 -9.3235709e-06) to (8.1000047 12.150007 16.200009) with tilt (0 0 0)
  1 by 1 by 1 MPI processor grid
  pair style eam/alloy stores no restart info
  96 atoms
  read_restart CPU = 0.000 seconds
Changing box ...
  triclinic box = (-4.6617854e-06 -6.9926781e-06 -9.3235709e-06) to (8.1000047 12.150007 16.200009) with tilt (0 0 0.0016200019)
Neighbor list info ...
  update: every = 1 steps, delay = 0 steps, check = yes
  max neighbors/atom: 2000, page size: 100000
  master list distance cutoff = 7.28721
  ghost atom cutoff = 7.28721
  1 neighbor lists, perpetual/occasional/extra = 1 0 0
  (1) pair eam/alloy, perpetual
      attributes: half, newton on
      pair build: half/nsq/newton
      stencil: none
      bin: none
Setting up cg style minimization ...
  Unit style    : metal
  Current step  : 2
Per MPI rank memory allocation (min/avg/max) = 4.447 | 4.447 | 4.447 Mbytes
   Step          Temp          PotEng         Press           Pxx            Pyy            Pzz            Pxy            Pxz            Pyz             Lx             Ly             Lz           Volume    
         2   0             -322.56         0.0016802317   0.0025667022  -0.00061850186  0.0030924947   7.9927216e-07  3.1975691e-06 -31.594576      8.1000093      12.150014      16.200019      1594.3285    
         3   0             -322.56         0.0016584394   0.0025458646  -0.00063926724  0.003068721   -2.5731667e-07 -5.3901227e-07 -31.594578      8.1000093      12.150014      16.200019      1594.3285    
         4   0             -322.56         0.0016554931   0.0025428858  -0.00064181331  0.0030654067  -9.8154682e-08  9.4922572e-08 -31.594577      8.1000093      12.150014      16.200019      1594.3285    
         5   0             -322.56         0.0016548613   0.002542252   -0.00064231045  0.0030646423  -2.7268541e-08 -5.035022e-09  -31.594577      8.1000093      12.150014      16.200019      1594.3285    
         6   0             -322.56         0.0016547331   0.0025421044  -0.00064239766  0.0030644925  -4.4642467e-08 -1.5581922e-09 -31.594577      8.1000093      12.150014      16.200019      1594.3285    
         7   0             -322.56         0.0016547039   0.0025420848  -0.00064242829  0.0030644553  -2.9821507e-08  9.181181e-10  -31.594577      8.1000093      12.150014      16.200019      1594.3285    
         8   0             -322.56         0.0016546871   0.0025420729  -0.0006424458   0.0030644343  -1.5080575e-08 -1.0311907e-09 -31.594577      8.1000093      12.150014      16.200019      1594.3285    
         9   0             -322.56         0.0016546762   0.0025420637  -0.00064245321  0.0030644182  -6.8448943e-09 -2.0750921e-10 -31.594577      8.1000093      12.150014      16.200019      1594.3285    
        10   0             -322.56         0.0016546704   0.002542058   -0.00064245583  0.0030644089  -2.2618702e-09  5.0185046e-10 -31.594577      8.1000093      12.150014      16.200019      1594.3285    
        11   0             -322.56         0.0016546681   0.0025420562  -0.00064245699  0.0030644052  -6.9950902e-10  6.9991318e-11 -31.594577      8.1000093      12.150014      16.200019      1594.3285    
        12   0             -322.56         0.0016546674   0.0025420556  -0.0006424576   0.0030644043  -2.8909027e-10  2.3316498e-11 -31.594577      8.1000093      12.150014      16.200019      1594.3285    
        13   0             -322.56         0.0016546671   0.0025420554  -0.0006424581   0.0030644039  -2.6813088e-11  2.8696239e-11 -31.594577      8.1000093      12.150014      16.200019      1594.3285    
        14   0             -322.56         0.0016546669   0.0025420552  -0.00064245824  0.0030644038  -1.0450881e-11 -1.8412001e-12 -31.594577      8.1000093      12.150014      16.200019      1594.3285    
        15   0             -322.56         0.0016546668   0.0025420552  -0.00064245829  0.0030644036  -2.2712392e-12 -6.6252691e-13 -31.594577      8.1000093      12.150014      16.200019      1594.3285    
        16   0             -322.56         0.0016546668   0.0025420552  -0.00064245831  0.0030644037   1.9599377e-11  9.8559258e-12 -31.594577      8.1000093      12.150014      16.200019      1594.3285    
        17   0             -322.56         0.0016546669   0.0025420552  -0.0006424583   0.0030644037  -3.7691814e-12 -1.410074e-11  -31.594577      8.1000093      12.150014      16.200019      1594.3285    
        18   0             -322.56         0.0016546668   0.0025420552  -0.00064245834  0.0030644037  -2.3216181e-11 -2.0964707e-12 -31.594577      8.1000093      12.150014      16.200019      1594.3285    
        19   0             -322.56         0.0016546669   0.0025420552  -0.00064245831  0.0030644037   7.0457983e-12 -5.9735374e-12 -31.594577      8.1000093      12.150014      16.200019      1594.3285    
        20   0             -322.56         0.0016546668   0.0025420551  -0.0006424583   0.0030644036  -3.0874783e-12  2.2000069e-12 -31.594577      8.1000093      12.150014      16.200019      1594.3285    
        21   0             -322.56         0.0016546668   0.0025420552  -0.00064245831  0.0030644036   6.7915851e-13 -6.7184186e-13 -31.594577      8.1000093      12.150014      16.200019      1594.3285    
        22   0             -322.56         0.0016546669   0.0025420552  -0.00064245827  0.0030644037  -2.4466512e-12 -8.2354229e-12 -31.594577      8.1000093      12.150014      16.200019      1594.3285    
        23   0             -322.56         0.0016546668   0.0025420552  -0.00064245831  0.0030644037   1.8759773e-12 -1.8398452e-11 -31.594577      8.1000093      12.150014      16.200019      1594.3285    
        24   0             -322.56         0.0016546668   0.0025420552  -0.00064245832  0.0030644037  -1.8374989e-11  3.1343484e-12 -31.594577      8.1000093      12.150014      16.200019      1594.3285    
        25   0             -322.56         0.0016546668   0.0025420552  -0.00064245834  0.0030644037   1.2301823e-11 -1.2088305e-14 -31.594577      8.1000093      12.150014      16.200019      1594.3285    
        26   0             -322.56         0.0016546668   0.0025420552  -0.00064245832  0.0030644037   1.1336688e-11 -1.5428325e-11 -31.594577      8.1000093      12.150014      16.200019      1594.3285    
        27   0             -322.56         0.0016546669   0.0025420552  -0.00064245827  0.0030644037   1.5400933e-11  9.168549e-12  -31.594577      8.1000093      12.150014      16.200019      1594.3285    
Loop time of 0.007609 on 1 procs for 25 steps with 96 atoms

205.3% CPU use with 1 MPI tasks x 1 OpenMP threads

Minimization stats:
  Stopping criterion = force tolerance
  Energy initial, next-to-last, final = 
     -322.559997271132  -322.559997293653  -322.559997293653
  Force two-norm initial, final = 0.00051425625 8.2589841e-11
  Force max component initial, final = 7.9680833e-05 1.6139277e-11
  Final line search alpha, max atom move = 1 1.6139277e-11
  Iterations, force evaluations = 25 50

MPI task timing breakdown:
Section |  min time  |  avg time  |  max time  |%varavg| %total
---------------------------------------------------------------
Pair    | 0.007072   | 0.007072   | 0.007072   |   0.0 | 92.94
Neigh   | 0          | 0          | 0          |   0.0 |  0.00
Comm    | 0.000166   | 0.000166   | 0.000166   |   0.0 |  2.18
Output  | 0.000257   | 0.000257   | 0.000257   |   0.0 |  3.38
Modify  | 0          | 0          | 0          |   0.0 |  0.00
Other   |            | 0.000114   |            |       |  1.50

Nlocal:             96 ave          96 max          96 min
Histogram: 1 0 0 0 0 0 0 0 0 0
Nghost:            976 ave         976 max         976 min
Histogram: 1 0 0 0 0 0 0 0 0 0
Neighs:           4128 ave        4128 max        4128 min
Histogram: 1 0 0 0 0 0 0 0 0 0

Total # of neighbors = 4128
Ave neighs/atom = 43
Neighbor list builds = 0
Dangerous builds = 0
OMP_NUM_THREADS environment is not set. Defaulting to 1 thread. (src/comm.cpp:98)
  using 1 OpenMP thread(s) per MPI task
Loaded 1 plugins from F:\Lammps\LAMMPS 64-bit 2Aug2023\plugins

The 'box' command has been removed and will be ignored

Reading restart file ...
  restart file = 2 Aug 2023, LAMMPS = 2 Aug 2023
  restoring atom style atomic from restart
  triclinic box = (-4.6617854e-06 -6.9926781e-06 -9.3235709e-06) to (8.1000047 12.150007 16.200009) with tilt (0 0 0)
  1 by 1 by 1 MPI processor grid
  pair style eam/alloy stores no restart info
  96 atoms
  read_restart CPU = 0.000 seconds
Changing box ...
  triclinic box = (-4.6617854e-06 -6.9926781e-06 -9.3235709e-06) to (8.1000047 12.150007 16.200009) with tilt (0 -0.0016200019 0)
Neighbor list info ...
  update: every = 1 steps, delay = 0 steps, check = yes
  max neighbors/atom: 2000, page size: 100000
  master list distance cutoff = 7.28721
  ghost atom cutoff = 7.28721
  1 neighbor lists, perpetual/occasional/extra = 1 0 0
  (1) pair eam/alloy, perpetual
      attributes: half, newton on
      pair build: half/nsq/newton
      stencil: none
      bin: none
Setting up cg style minimization ...
  Unit style    : metal
  Current step  : 2
Per MPI rank memory allocation (min/avg/max) = 4.447 | 4.447 | 4.447 Mbytes
   Step          Temp          PotEng         Press           Pxx            Pyy            Pzz            Pxy            Pxz            Pyz             Lx             Ly             Lz           Volume    
         2   0             -322.56         0.0016802334  -0.00061776001  0.0025659622   0.0030924979   7.9830044e-07  31.594581      1.720623e-06   8.1000093      12.150014      16.200019      1594.3285    
         3   0             -322.56         0.0016584413  -0.00063863703  0.0025452373   0.0030687235  -2.5745224e-07  31.594577     -4.4519599e-07  8.1000093      12.150014      16.200019      1594.3285    
         4   0             -322.56         0.001655493   -0.00064162475  0.0025426972   0.0030654065  -9.8248964e-08  31.594577      8.8328541e-08  8.1000093      12.150014      16.200019      1594.3285    
         5   0             -322.56         0.0016548612  -0.00064226039  0.0025422019   0.0030646422  -2.7269909e-08  31.594577      1.0714025e-08  8.1000093      12.150014      16.200019      1594.3285    
         6   0             -322.56         0.001654733   -0.00064240861  0.0025421152   0.0030644924  -4.4664875e-08  31.594577      2.0541525e-09  8.1000093      12.150014      16.200019      1594.3285    
         7   0             -322.56         0.0016547038  -0.00064242852  0.0025420849   0.0030644551  -2.9809621e-08  31.594577     -4.2584069e-10  8.1000093      12.150014      16.200019      1594.3285    
         8   0             -322.56         0.0016546871  -0.00064244048  0.0025420675   0.0030644342  -1.5064902e-08  31.594577     -1.350889e-10   8.1000093      12.150014      16.200019      1594.3285    
         9   0             -322.56         0.0016546762  -0.00064244974  0.0025420602   0.0030644182  -6.8404927e-09  31.594577     -5.6153625e-10  8.1000093      12.150014      16.200019      1594.3285    
        10   0             -322.56         0.0016546704  -0.00064245547  0.0025420577   0.0030644089  -2.2903707e-09  31.594577     -4.029656e-10   8.1000093      12.150014      16.200019      1594.3285    
        11   0             -322.56         0.0016546681  -0.00064245733  0.0025420565   0.0030644052  -7.0695801e-10  31.594577     -1.0989179e-10  8.1000093      12.150014      16.200019      1594.3285    
        12   0             -322.56         0.0016546674  -0.00064245791  0.0025420559   0.0030644043  -2.8739168e-10  31.594577      2.5040223e-11  8.1000093      12.150014      16.200019      1594.3285    
        13   0             -322.56         0.0016546671  -0.00064245813  0.0025420554   0.0030644039  -1.6564832e-11  31.594577      2.0500768e-12  8.1000093      12.150014      16.200019      1594.3285    
        14   0             -322.56         0.0016546669  -0.0006424583   0.0025420553   0.0030644037  -2.8234886e-11  31.594577     -4.2640202e-12  8.1000093      12.150014      16.200019      1594.3285    
        15   0             -322.56         0.0016546669  -0.00064245834  0.0025420552   0.0030644037  -1.4303414e-11  31.594577     -8.4408773e-12  8.1000093      12.150014      16.200019      1594.3285    
        16   0             -322.56         0.0016546668  -0.00064245833  0.0025420552   0.0030644037  -1.609067e-11   31.594577     -7.0532403e-12  8.1000093      12.150014      16.200019      1594.3285    
        17   0             -322.56         0.0016546668  -0.00064245837  0.0025420552   0.0030644037  -1.0689387e-11  31.594577     -2.1494427e-11  8.1000093      12.150014      16.200019      1594.3285    
        18   0             -322.56         0.0016546669  -0.00064245835  0.0025420552   0.0030644037   4.6705358e-12  31.594577      4.9717848e-12  8.1000093      12.150014      16.200019      1594.3285    
        19   0             -322.56         0.0016546668  -0.00064245839  0.0025420552   0.0030644037  -1.0236006e-11  31.594577     -1.1672886e-11  8.1000093      12.150014      16.200019      1594.3285    
        20   0             -322.56         0.0016546668  -0.00064245837  0.0025420552   0.0030644036  -7.6823564e-12  31.594577      1.6473831e-11  8.1000093      12.150014      16.200019      1594.3285    
        21   0             -322.56         0.0016546668  -0.00064245836  0.0025420552   0.0030644037   5.6787408e-12  31.594577      2.8763832e-12  8.1000093      12.150014      16.200019      1594.3285    
        22   0             -322.56         0.0016546668  -0.00064245838  0.0025420552   0.0030644036  -1.4051041e-12  31.594577     -1.1362585e-11  8.1000093      12.150014      16.200019      1594.3285    
        23   0             -322.56         0.0016546668  -0.00064245837  0.0025420552   0.0030644036   8.1521239e-12  31.594577      3.1891245e-11  8.1000093      12.150014      16.200019      1594.3285    
        24   0             -322.56         0.0016546668  -0.00064245835  0.0025420552   0.0030644037  -4.8616247e-12  31.594577      0              8.1000093      12.150014      16.200019      1594.3285    
        25   0             -322.56         0.0016546669  -0.00064245832  0.0025420553   0.0030644037  -3.01487e-12    31.594577      2.0734365e-11  8.1000093      12.150014      16.200019      1594.3285    
        26   0             -322.56         0.0016546669  -0.00064245833  0.0025420552   0.0030644037  -6.8322013e-12  31.594577     -1.2248163e-11  8.1000093      12.150014      16.200019      1594.3285    
        27   0             -322.56         0.0016546668  -0.00064245838  0.0025420552   0.0030644037   1.8170218e-12  31.594577     -1.0808228e-11  8.1000093      12.150014      16.200019      1594.3285    
Loop time of 0.00725 on 1 procs for 25 steps with 96 atoms

215.5% CPU use with 1 MPI tasks x 1 OpenMP threads

Minimization stats:
  Stopping criterion = force tolerance
  Energy initial, next-to-last, final = 
     -322.559997271133  -322.559997293651  -322.559997293652
  Force two-norm initial, final = 0.00051427336 7.474013e-11
  Force max component initial, final = 7.9675166e-05 1.4224379e-11
  Final line search alpha, max atom move = 1 1.4224379e-11
  Iterations, force evaluations = 25 50

MPI task timing breakdown:
Section |  min time  |  avg time  |  max time  |%varavg| %total
---------------------------------------------------------------
Pair    | 0.00678    | 0.00678    | 0.00678    |   0.0 | 93.52
Neigh   | 0          | 0          | 0          |   0.0 |  0.00
Comm    | 0.000131   | 0.000131   | 0.000131   |   0.0 |  1.81
Output  | 0.000229   | 0.000229   | 0.000229   |   0.0 |  3.16
Modify  | 0          | 0          | 0          |   0.0 |  0.00
Other   |            | 0.00011    |            |       |  1.52

Nlocal:             96 ave          96 max          96 min
Histogram: 1 0 0 0 0 0 0 0 0 0
Nghost:            976 ave         976 max         976 min
Histogram: 1 0 0 0 0 0 0 0 0 0
Neighs:           4128 ave        4128 max        4128 min
Histogram: 1 0 0 0 0 0 0 0 0 0

Total # of neighbors = 4128
Ave neighs/atom = 43
Neighbor list builds = 0
Dangerous builds = 0
OMP_NUM_THREADS environment is not set. Defaulting to 1 thread. (src/comm.cpp:98)
  using 1 OpenMP thread(s) per MPI task
Loaded 1 plugins from F:\Lammps\LAMMPS 64-bit 2Aug2023\plugins

The 'box' command has been removed and will be ignored

Reading restart file ...
  restart file = 2 Aug 2023, LAMMPS = 2 Aug 2023
  restoring atom style atomic from restart
  triclinic box = (-4.6617854e-06 -6.9926781e-06 -9.3235709e-06) to (8.1000047 12.150007 16.200009) with tilt (0 0 0)
  1 by 1 by 1 MPI processor grid
  pair style eam/alloy stores no restart info
  96 atoms
  read_restart CPU = 0.000 seconds
Changing box ...
  triclinic box = (-4.6617854e-06 -6.9926781e-06 -9.3235709e-06) to (8.1000047 12.150007 16.200009) with tilt (0 0.0016200019 0)
Neighbor list info ...
  update: every = 1 steps, delay = 0 steps, check = yes
  max neighbors/atom: 2000, page size: 100000
  master list distance cutoff = 7.28721
  ghost atom cutoff = 7.28721
  1 neighbor lists, perpetual/occasional/extra = 1 0 0
  (1) pair eam/alloy, perpetual
      attributes: half, newton on
      pair build: half/nsq/newton
      stencil: none
      bin: none
Setting up cg style minimization ...
  Unit style    : metal
  Current step  : 2
Per MPI rank memory allocation (min/avg/max) = 4.447 | 4.447 | 4.447 Mbytes
[...]
        26   0             -322.56         0.0016546668  -0.00064245838  0.0025420552   0.0030644036   4.1474306e-12 -31.594577      2.9778411e-11  8.1000093      12.150014      16.200019      1594.3285    
        27   0             -322.56         0.0016546668  -0.00064245836  0.0025420552   0.0030644036   1.2572217e-13 -31.594577     -2.0424064e-11  8.1000093      12.150014      16.200019      1594.3285    
Loop time of 0.007145 on 1 procs for 25 steps with 96 atoms

0.0% CPU use with 1 MPI tasks x 1 OpenMP threads

Minimization stats:
  Stopping criterion = force tolerance
  Energy initial, next-to-last, final = 
     -322.559997271132  -322.559997293653  -322.559997293654
  Force two-norm initial, final = 0.00051425199 7.4832482e-11
  Force max component initial, final = 7.9681461e-05 1.2548358e-11
  Final line search alpha, max atom move = 1 1.2548358e-11
  Iterations, force evaluations = 25 50

MPI task timing breakdown:
Section |  min time  |  avg time  |  max time  |%varavg| %total
---------------------------------------------------------------
Pair    | 0.006652   | 0.006652   | 0.006652   |   0.0 | 93.10
Neigh   | 0          | 0          | 0          |   0.0 |  0.00
Comm    | 0.000147   | 0.000147   | 0.000147   |   0.0 |  2.06
Output  | 0.000248   | 0.000248   | 0.000248   |   0.0 |  3.47
Modify  | 0          | 0          | 0          |   0.0 |  0.00
Other   |            | 9.8e-05    |            |       |  1.37

Nlocal:             96 ave          96 max          96 min
Histogram: 1 0 0 0 0 0 0 0 0 0
Nghost:            976 ave         976 max         976 min
Histogram: 1 0 0 0 0 0 0 0 0 0
Neighs:           4128 ave        4128 max        4128 min
Histogram: 1 0 0 0 0 0 0 0 0 0

Total # of neighbors = 4128
Ave neighs/atom = 43
Neighbor list builds = 0
Dangerous builds = 0
OMP_NUM_THREADS environment is not set. Defaulting to 1 thread. (src/comm.cpp:98)
  using 1 OpenMP thread(s) per MPI task
Loaded 1 plugins from F:\Lammps\LAMMPS 64-bit 2Aug2023\plugins

The 'box' command has been removed and will be ignored

Reading restart file ...
  restart file = 2 Aug 2023, LAMMPS = 2 Aug 2023
  restoring atom style atomic from restart
  triclinic box = (-4.6617854e-06 -6.9926781e-06 -9.3235709e-06) to (8.1000047 12.150007 16.200009) with tilt (0 0 0)
  1 by 1 by 1 MPI processor grid
  pair style eam/alloy stores no restart info
  96 atoms
  read_restart CPU = 0.000 seconds
Changing box ...
  triclinic box = (-4.6617854e-06 -6.9926781e-06 -9.3235709e-06) to (8.1000047 12.150007 16.200009) with tilt (-0.0012150014 0 0)
Neighbor list info ...
  update: every = 1 steps, delay = 0 steps, check = yes
  max neighbors/atom: 2000, page size: 100000
  master list distance cutoff = 7.28721
  ghost atom cutoff = 7.28721
  1 neighbor lists, perpetual/occasional/extra = 1 0 0
  (1) pair eam/alloy, perpetual
      attributes: half, newton on
      pair build: half/nsq/newton
      stencil: none
      bin: none
Setting up cg style minimization ...
  Unit style    : metal
  Current step  : 2
Per MPI rank memory allocation (min/avg/max) = 4.447 | 4.447 | 4.447 Mbytes
   Step          Temp          PotEng         Press           Pxx            Pyy            Pzz            Pxy            Pxz            Pyz             Lx             Ly             Lz           Volume    
         2   0             -322.56         0.0016802422  -0.00061774668  0.0030883759   0.0025700975   31.594578      3.1979105e-06  1.7196047e-06  8.1000093      12.150014      16.200019      1594.3285    
         3   0             -322.56         0.0016584411  -0.00063863737  0.003067597    0.0025463636   31.594577     -5.3845686e-07 -4.4573148e-07  8.1000093      12.150014      16.200019      1594.3285    
         4   0             -322.56         0.001655493   -0.00064162481  0.0030650485   0.0025430552   31.594577      9.4834684e-08  8.8374866e-08  8.1000093      12.150014      16.200019      1594.3285    
         5   0             -322.56         0.0016548611  -0.00064226061  0.0030645512   0.0025422927   31.594577     -5.0562089e-09  1.0721197e-08  8.1000093      12.150014      16.200019      1594.3285    
         6   0             -322.56         0.0016547329  -0.00064240871  0.003064464    0.0025421434   31.594577     -1.5812503e-09  2.052608e-09   8.1000093      12.150014      16.200019      1594.3285    
         7   0             -322.56         0.0016547038  -0.0006424286   0.0030644335   0.0025421064   31.594577      9.0976249e-10 -4.3896048e-10  8.1000093      12.150014      16.200019      1594.3285    
         8   0             -322.56         0.0016546871  -0.0006424405   0.0030644161   0.0025420857   31.594577     -1.0376008e-09 -1.5829173e-10  8.1000093      12.150014      16.200019      1594.3285    
         9   0             -322.56         0.0016546762  -0.00064244977  0.0030644088   0.0025420697   31.594577     -2.1659895e-10 -5.4662438e-10  8.1000093      12.150014      16.200019      1594.3285    
        10   0             -322.56         0.0016546704  -0.00064245548  0.0030644062   0.0025420604   31.594577      5.3239683e-10 -4.216464e-10   8.1000093      12.150014      16.200019      1594.3285    
        11   0             -322.56         0.0016546682  -0.0006424573   0.003064405    0.0025420568   31.594577      4.5060043e-11 -7.6550145e-11  8.1000093      12.150014      16.200019      1594.3285    
        12   0             -322.56         0.0016546674  -0.00064245791  0.0030644044   0.0025420558   31.594577      1.4708602e-11  6.4849367e-12  8.1000093      12.150014      16.200019      1594.3285    
        13   0             -322.56         0.001654667   -0.00064245816  0.0030644039   0.0025420554   31.594577      1.7153633e-11  3.1786649e-11  8.1000093      12.150014      16.200019      1594.3285    
        14   0             -322.56         0.0016546669  -0.00064245829  0.0030644038   0.0025420552   31.594577     -1.146982e-11   3.3603129e-11  8.1000093      12.150014      16.200019      1594.3285    
        15   0             -322.56         0.0016546668  -0.00064245833  0.0030644037   0.0025420551   31.594577     -1.428327e-11  -5.2437338e-12  8.1000093      12.150014      16.200019      1594.3285    
        16   0             -322.56         0.0016546669  -0.00064245836  0.0030644037   0.0025420552   31.594577     -1.3189669e-11 -8.9638561e-12  8.1000093      12.150014      16.200019      1594.3285    
        17   0             -322.56         0.0016546668  -0.00064245833  0.0030644037   0.0025420551   31.594577      2.6154237e-12 -3.6821192e-11  8.1000093      12.150014      16.200019      1594.3285    
        18   0             -322.56         0.0016546668  -0.00064245836  0.0030644037   0.0025420552   31.594577      8.386108e-12   1.9674461e-11  8.1000093      12.150014      16.200019      1594.3285    
        19   0             -322.56         0.0016546668  -0.00064245836  0.0030644037   0.0025420552   31.594577     -2.3527023e-11  1.6498237e-11  8.1000093      12.150014      16.200019      1594.3285    
        20   0             -322.56         0.0016546669  -0.00064245834  0.0030644037   0.0025420552   31.594577      1.0587159e-11  2.5130873e-11  8.1000093      12.150014      16.200019      1594.3285    
        21   0             -322.56         0.0016546669  -0.00064245835  0.0030644037   0.0025420552   31.594577      2.094395e-12  -1.7097919e-11  8.1000093      12.150014      16.200019      1594.3285    
        22   0             -322.56         0.0016546668  -0.00064245837  0.0030644037   0.0025420552   31.594577      4.003165e-12  -2.1755917e-12  8.1000093      12.150014      16.200019      1594.3285    
        23   0             -322.56         0.0016546668  -0.00064245837  0.0030644037   0.0025420551   31.594577      2.3483032e-11 -5.3413565e-12  8.1000093      12.150014      16.200019      1594.3285    
        24   0             -322.56         0.0016546668  -0.00064245838  0.0030644037   0.0025420552   31.594577     -1.0458707e-11  4.8985678e-12  8.1000093      12.150014      16.200019      1594.3285    
        25   0             -322.56         0.0016546669  -0.00064245833  0.0030644037   0.0025420551   31.594577      1.9618368e-11 -8.7407185e-12  8.1000093      12.150014      16.200019      1594.3285    
        26   0             -322.56         0.0016546668  -0.00064245838  0.0030644037   0.0025420552   31.594577     -8.208917e-12   2.3384124e-11  8.1000093      12.150014      16.200019      1594.3285    
        27   0             -322.56         0.0016546668  -0.00064245837  0.0030644037   0.0025420551   31.594577     -3.6799892e-11  5.5296288e-12  8.1000093      12.150014      16.200019      1594.3285    
Loop time of 0.007794 on 1 procs for 25 steps with 96 atoms

0.0% CPU use with 1 MPI tasks x 1 OpenMP threads

Minimization stats:
  Stopping criterion = force tolerance
  Energy initial, next-to-last, final = 
     -322.559997271132  -322.559997293652  -322.559997293654
  Force two-norm initial, final = 0.00051426125 8.2655441e-11
  Force max component initial, final = 7.9675148e-05 1.5336531e-11
  Final line search alpha, max atom move = 1 1.5336531e-11
  Iterations, force evaluations = 25 50

MPI task timing breakdown:
Section |  min time  |  avg time  |  max time  |%varavg| %total
---------------------------------------------------------------
Pair    | 0.007314   | 0.007314   | 0.007314   |   0.0 | 93.84
Neigh   | 0          | 0          | 0          |   0.0 |  0.00
Comm    | 0.000135   | 0.000135   | 0.000135   |   0.0 |  1.73
Output  | 0.000229   | 0.000229   | 0.000229   |   0.0 |  2.94
Modify  | 0          | 0          | 0          |   0.0 |  0.00
Other   |            | 0.000116   |            |       |  1.49

Nlocal:             96 ave          96 max          96 min
Histogram: 1 0 0 0 0 0 0 0 0 0
Nghost:            976 ave         976 max         976 min
Histogram: 1 0 0 0 0 0 0 0 0 0
Neighs:           4128 ave        4128 max        4128 min
Histogram: 1 0 0 0 0 0 0 0 0 0

Total # of neighbors = 4128
Ave neighs/atom = 43
Neighbor list builds = 0
Dangerous builds = 0
OMP_NUM_THREADS environment is not set. Defaulting to 1 thread. (src/comm.cpp:98)
  using 1 OpenMP thread(s) per MPI task
Loaded 1 plugins from F:\Lammps\LAMMPS 64-bit 2Aug2023\plugins

The 'box' command has been removed and will be ignored

Reading restart file ...
  restart file = 2 Aug 2023, LAMMPS = 2 Aug 2023
  restoring atom style atomic from restart
  triclinic box = (-4.6617854e-06 -6.9926781e-06 -9.3235709e-06) to (8.1000047 12.150007 16.200009) with tilt (0 0 0)
  1 by 1 by 1 MPI processor grid
  pair style eam/alloy stores no restart info
  96 atoms
  read_restart CPU = 0.000 seconds
Changing box ...
  triclinic box = (-4.6617854e-06 -6.9926781e-06 -9.3235709e-06) to (8.1000047 12.150007 16.200009) with tilt (0.0012150014 0 0)
Neighbor list info ...
  update: every = 1 steps, delay = 0 steps, check = yes
  max neighbors/atom: 2000, page size: 100000
  master list distance cutoff = 7.28721
  ghost atom cutoff = 7.28721
  1 neighbor lists, perpetual/occasional/extra = 1 0 0
  (1) pair eam/alloy, perpetual
      attributes: half, newton on
      pair build: half/nsq/newton
      stencil: none
      bin: none
Setting up cg style minimization ...
  Unit style    : metal
  Current step  : 2
Per MPI rank memory allocation (min/avg/max) = 4.447 | 4.447 | 4.447 Mbytes
   Step          Temp          PotEng         Press           Pxx            Pyy            Pzz            Pxy            Pxz            Pyz             Lx             Ly             Lz           Volume    
         2   0             -322.56         0.0016802261  -0.00061776867  0.0030883529   0.0025700942  -31.594577      3.1987201e-06  1.7201663e-06  8.1000093      12.150014      16.200019      1594.3285    
         3   0             -322.56         0.0016584393  -0.00063863991  0.0030675953   0.0025463624  -31.594578     -5.3897611e-07 -4.4504294e-07  8.1000093      12.150014      16.200019      1594.3285    
         4   0             -322.56         0.0016554926  -0.00064162557  0.0030650479   0.0025430556  -31.594577      9.4923463e-08  8.8574386e-08  8.1000093      12.150014      16.200019      1594.3285    
         5   0             -322.56         0.0016548609  -0.000642261    0.0030645509   0.0025422928  -31.594577     -5.1281448e-09  1.0722449e-08  8.1000093      12.150014      16.200019      1594.3285    
         6   0             -322.56         0.0016547328  -0.00064240886  0.0030644639   0.0025421434  -31.594577     -1.5866056e-09  2.0829198e-09  8.1000093      12.150014      16.200019      1594.3285    
         7   0             -322.56         0.0016547038  -0.00064242864  0.0030644335   0.0025421065  -31.594577      9.090966e-10  -4.1330315e-10  8.1000093      12.150014      16.200019      1594.3285    
         8   0             -322.56         0.0016546871  -0.00064244053  0.0030644161   0.0025420857  -31.594577     -1.0661682e-09 -1.4335197e-10  8.1000093      12.150014      16.200019      1594.3285    
         9   0             -322.56         0.0016546762  -0.00064244978  0.0030644087   0.0025420696  -31.594577     -2.0243901e-10 -5.5053626e-10  8.1000093      12.150014      16.200019      1594.3285    
        10   0             -322.56         0.0016546704  -0.00064245546  0.0030644061   0.0025420604  -31.594577      5.4984507e-10 -3.9026419e-10  8.1000093      12.150014      16.200019      1594.3285    
        11   0             -322.56         0.0016546682  -0.00064245729  0.003064405    0.0025420568  -31.594577      4.619049e-11  -8.9303854e-11  8.1000093      12.150014      16.200019      1594.3285    
        12   0             -322.56         0.0016546674  -0.00064245796  0.0030644043   0.0025420558  -31.594577      1.0393349e-11  2.0626283e-11  8.1000093      12.150014      16.200019      1594.3285    
        13   0             -322.56         0.001654667   -0.00064245816  0.0030644039   0.0025420554  -31.594577     -8.5643646e-13  5.2751125e-12  8.1000093      12.150014      16.200019      1594.3285    
        14   0             -322.56         0.0016546669  -0.00064245829  0.0030644038   0.0025420552  -31.594577     -1.3930928e-11  2.2202192e-11  8.1000093      12.150014      16.200019      1594.3285    
        15   0             -322.56         0.0016546668  -0.00064245835  0.0030644037   0.0025420552  -31.594577      3.8822564e-12 -7.3217027e-12  8.1000093      12.150014      16.200019      1594.3285    
        16   0             -322.56         0.0016546669  -0.00064245835  0.0030644037   0.0025420552  -31.594577     -5.5413673e-12  1.6240234e-11  8.1000093      12.150014      16.200019      1594.3285    
        17   0             -322.56         0.0016546668  -0.00064245833  0.0030644037   0.0025420552  -31.594577      7.2863791e-12 -1.7439599e-11  8.1000093      12.150014      16.200019      1594.3285    
        18   0             -322.56         0.0016546669  -0.00064245832  0.0030644037   0.0025420552  -31.594577     -2.0835427e-11  2.4649733e-12  8.1000093      12.150014      16.200019      1594.3285    
        19   0             -322.56         0.0016546668  -0.00064245838  0.0030644037   0.0025420551  -31.594577      1.0515422e-11  9.3055355e-12  8.1000093      12.150014      16.200019      1594.3285    
        20   0             -322.56         0.0016546668  -0.00064245834  0.0030644037   0.0025420551  -31.594577     -1.9767683e-11 -7.7854106e-12  8.1000093      12.150014      16.200019      1594.3285    
        21   0             -322.56         0.0016546668  -0.00064245836  0.0030644037   0.0025420551  -31.594577     -7.5217204e-12  1.8900453e-11  8.1000093      12.150014      16.200019      1594.3285    
        22   0             -322.56         0.0016546668  -0.00064245836  0.0030644037   0.0025420552  -31.594577     -5.7254182e-12  3.5353365e-12  8.1000093      12.150014      16.200019      1594.3285    
        23   0             -322.56         0.0016546668  -0.00064245837  0.0030644037   0.0025420551  -31.594577     -1.8121553e-11 -1.2683978e-11  8.1000093      12.150014      16.200019      1594.3285    
        24   0             -322.56         0.0016546668  -0.00064245833  0.0030644037   0.0025420551  -31.594577     -1.1232429e-11 -9.926137e-12   8.1000093      12.150014      16.200019      1594.3285    
        25   0             -322.56         0.0016546668  -0.00064245835  0.0030644037   0.0025420551  -31.594577     -2.1506006e-11 -1.3520744e-11  8.1000093      12.150014      16.200019      1594.3285    
        26   0             -322.56         0.0016546668  -0.00064245835  0.0030644037   0.0025420551  -31.594577      1.0895897e-12 -1.2621221e-12  8.1000093      12.150014      16.200019      1594.3285    
        27   0             -322.56         0.0016546668  -0.00064245835  0.0030644037   0.0025420552  -31.594577      1.8579736e-12  1.4957193e-11  8.1000093      12.150014      16.200019      1594.3285    
Loop time of 0.008046 on 1 procs for 25 steps with 96 atoms

194.2% CPU use with 1 MPI tasks x 1 OpenMP threads

Minimization stats:
  Stopping criterion = force tolerance
  Energy initial, next-to-last, final = 
     -322.559997271131  -322.559997293652  -322.559997293653
  Force two-norm initial, final = 0.0005142641 8.2562499e-11
  Force max component initial, final = 7.9681489e-05 1.4722057e-11
  Final line search alpha, max atom move = 1 1.4722057e-11
  Iterations, force evaluations = 25 50

MPI task timing breakdown:
Section |  min time  |  avg time  |  max time  |%varavg| %total
---------------------------------------------------------------
Pair    | 0.007518   | 0.007518   | 0.007518   |   0.0 | 93.44
Neigh   | 0          | 0          | 0          |   0.0 |  0.00
Comm    | 0.000171   | 0.000171   | 0.000171   |   0.0 |  2.13
Output  | 0.000236   | 0.000236   | 0.000236   |   0.0 |  2.93
Modify  | 0          | 0          | 0          |   0.0 |  0.00
Other   |            | 0.000121   |            |       |  1.50

Nlocal:             96 ave          96 max          96 min
Histogram: 1 0 0 0 0 0 0 0 0 0
Nghost:            976 ave         976 max         976 min
Histogram: 1 0 0 0 0 0 0 0 0 0
Neighs:           4128 ave        4128 max        4128 min
Histogram: 1 0 0 0 0 0 0 0 0 0

Total # of neighbors = 4128
Ave neighs/atom = 43
Neighbor list builds = 0
Dangerous builds = 0
=========================================
Components of the Elastic Constant Tensor
=========================================
Elastic Constant C11all = 113.791319458987 GPa
Elastic Constant C22all = 113.7913194588 GPa
Elastic Constant C33all = 113.79131945898 GPa
Elastic Constant C12all = 61.5503305477536 GPa
Elastic Constant C13all = 61.5503305478161 GPa
Elastic Constant C23all = 61.5503305477419 GPa
Elastic Constant C44all = 31.5945773638062 GPa
Elastic Constant C55all = 31.5945773638263 GPa
Elastic Constant C66all = 31.5945773638191 GPa
Elastic Constant C14all = -1.30311274802046e-11 GPa
Elastic Constant C15all = -3.51127778905014e-12 GPa
Elastic Constant C16all = -3.82109400086347e-12 GPa
Elastic Constant C24all = -2.22928534627417e-11 GPa
Elastic Constant C25all = -2.68244211360729e-12 GPa
Elastic Constant C26all = -5.3822679313412e-12 GPa
Elastic Constant C34all = -1.38709730120427e-11 GPa
Elastic Constant C35all = 1.52193356227706e-11 GPa
Elastic Constant C36all = -1.00328628010436e-11 GPa
Elastic Constant C45all = -2.02997118634378e-12 GPa
Elastic Constant C46all = -1.24573691518383e-11 GPa
Elastic Constant C56all = -9.24164140292935e-12 GPa
=========================================
Average properties for a cubic crystal
=========================================
Bulk Modulus = 78.9639935181543 GPa
Shear Modulus 1 = 31.5945773638172 GPa
Shear Modulus 2 = 26.1204944555758 GPa
Poisson Ratio = 0.351030862008092
Total wall time: 0:00:00
