LAMMPS (2 Aug 2023 - Update 3)
OMP_NUM_THREADS environment is not set. Defaulting to 1 thread. (src/comm.cpp:98)
  using 1 OpenMP thread(s) per MPI task
Loaded 1 plugins from F:\Lammps\LAMMPS 64-bit 2Aug2023\plugins
Lattice spacing in x,y,z = 4.05 4.05 4.05
Created triclinic box = (0 0 0) to (8.1 12.15 16.2) with tilt (0 0 0)
  1 by 1 by 1 MPI processor grid
Created 96 atoms
  using lattice units in triclinic box = (0 0 0) to (8.1 12.15 16.2) with tilt (0 0 0)
  create_atoms CPU = 0.000 seconds
Neighbor list info ...
  update: every = 1 steps, delay = 0 steps, check = yes
  max neighbors/atom: 2000, page size: 100000
  master list distance cutoff = 7.28721
  ghost atom cutoff = 7.28721
  1 neighbor lists, perpetual/occasional/extra = 1 0 0
  (1) pair eam/alloy, perpetual
      attributes: half, newton on
      pair build: half/nsq/newton
      stencil: none
      bin: none
Setting up cg style minimization ...
  Unit style    : metal
  Current step  : 0
WARNING: Energy due to 3 extra global DOFs will be included in minimizer energies
 (src/min.cpp:228)
Per MPI rank memory allocation (min/avg/max) = 4.452 | 4.452 | 4.452 Mbytes
   Step          Temp          PotEng         Press           Pxx            Pyy            Pzz            Pxy            Pxz            Pyz             Lx             Ly             Lz           Volume    
         0   0             -322.56         2.726913       2.726913       2.726913       2.726913       2.2732222e-12  5.6691094e-12  8.2700661e-12  8.1            12.15          16.2           1594.323     
         1   0             -322.56        -0.00024358028 -0.00024358023 -0.00024358039 -0.00024358023  3.6538783e-12 -1.8548314e-12  3.8351776e-12  8.1000093      12.150014      16.200019      1594.3285    
         2   0             -322.56         4.4066656e-10  4.3579472e-10  4.388001e-10   4.4740485e-10 -2.2216138e-11 -2.0291576e-12 -5.2995182e-13  8.1000093      12.150014      16.200019      1594.3285    
Loop time of 0.000863 on 1 procs for 2 steps with 96 atoms

0.0% CPU use with 1 MPI tasks x 1 OpenMP threads

Minimization stats:
  Stopping criterion = force tolerance
  Energy initial, next-to-last, final = 
     -322.559998860994  -322.559998865621  -322.559998865637
  Force two-norm initial, final = 0.0047000001 7.6230766e-13
  Force max component initial, final = 0.0027135463 4.452128e-13
  Final line search alpha, max atom move = 1 4.452128e-13
  Iterations, force evaluations = 2 4

MPI task timing breakdown:
Section |  min time  |  avg time  |  max time  |%varavg| %total
---------------------------------------------------------------
Pair    | 0.000681   | 0.000681   | 0.000681   |   0.0 | 78.91
Neigh   | 0          | 0          | 0          |   0.0 |  0.00
Comm    | 1.4e-05    | 1.4e-05    | 1.4e-05    |   0.0 |  1.62
Output  | 1.1e-05    | 1.1e-05    | 1.1e-05    |   0.0 |  1.27
Modify  | 0          | 0          | 0          |   0.0 |  0.00
Other   |            | 0.000157   |            |       | 18.19

Nlocal:             96 ave          96 max          96 min
Histogram: 1 0 0 0 0 0 0 0 0 0
Nghost:            976 ave         976 max         976 min
Histogram: 1 0 0 0 0 0 0 0 0 0
Neighs:           4128 ave        4128 max        4128 min
Histogram: 1 0 0 0 0 0 0 0 0 0

Total # of neighbors = 4128
Ave neighs/atom = 43
Neighbor list builds = 0
Dangerous builds = 0
Displacing atoms ...
System init for write_restart ...
OMP_NUM_THREADS environment is not set. Defaulting to 1 thread. (src/comm.cpp:98)
  using 1 OpenMP thread(s) per MPI task
Loaded 1 plugins from F:\Lammps\LAMMPS 64-bit 2Aug2023\plugins

The 'box' command has been removed and will be ignored

Reading restart file ...
  restart file = 2 Aug 2023, LAMMPS = 2 Aug 2023
  restoring atom style atomic from restart
  triclinic box = (-4.6617854e-06 -6.9926781e-06 -9.3235709e-06) to (8.1000047 12.150007 16.200009) with tilt (0 0 0)
  1 by 1 by 1 MPI processor grid
  pair style eam/alloy stores no restart info
  96 atoms
  read_restart CPU = 0.000 seconds
Changing box ...
  triclinic box = (-4.6617854e-06 -6.9926781e-06 -9.3235709e-06) to (8.0999966 12.150007 16.200009) with tilt (0 0 0)
  triclinic box = (-4.6617854e-06 -6.9926781e-06 -9.3235709e-06) to (8.0999966 12.150007 16.200009) with tilt (0 0 0)
  triclinic box = (-4.6617854e-06 -6.9926781e-06 -9.3235709e-06) to (8.0999966 12.150007 16.200009) with tilt (0 0 0)
Neighbor list info ...
  update: every = 1 steps, delay = 0 steps, check = yes
  max neighbors/atom: 2000, page size: 100000
  master list distance cutoff = 7.28721
  ghost atom cutoff = 7.28721
  1 neighbor lists, perpetual/occasional/extra = 1 0 0
  (1) pair eam/alloy, perpetual
      attributes: half, newton on
      pair build: half/nsq/newton
      stencil: none
      bin: none
Setting up cg style minimization ...
  Unit style    : metal
  Current step  : 2
Per MPI rank memory allocation (min/avg/max) = 4.447 | 4.447 | 4.447 Mbytes
   Step          Temp          PotEng         Press           Pxx            Pyy            Pzz            Pxy            Pxz            Pyz             Lx             Ly             Lz           Volume    
         2   0             -322.56         0.78971018     1.1379841      0.61557114     0.61557527     7.9874146e-07  3.1983345e-06  1.7198631e-06  8.1000012      12.150014      16.200019      1594.3269    
         3   0             -322.56         0.78968839     1.1379633      0.61555039     0.61555151    -2.5755823e-07 -5.38721e-07   -4.454057e-07   8.1000012      12.150014      16.200019      1594.3269    
         4   0             -322.56         0.78968544     1.1379603      0.61554784     0.6155482     -9.8338693e-08  9.4882043e-08  8.8452014e-08  8.1000012      12.150014      16.200019      1594.3269    
         5   0             -322.56         0.78968481     1.1379597      0.61554735     0.61554744    -2.7306445e-08 -5.0977036e-09  1.0720776e-08  8.1000012      12.150014      16.200019      1594.3269    
         6   0             -322.56         0.78968468     1.1379595      0.61554726     0.61554729    -4.4655272e-08 -1.5789674e-09  2.0786405e-09  8.1000012      12.150014      16.200019      1594.3269    
         7   0             -322.56         0.78968466     1.1379595      0.61554723     0.61554725    -2.9794044e-08  9.3175121e-10 -4.5946171e-10  8.1000012      12.150014      16.200019      1594.3269    
         8   0             -322.56         0.78968464     1.1379595      0.61554721     0.61554723    -1.5078886e-08 -1.0441494e-09 -1.8705226e-10  8.1000012      12.150014      16.200019      1594.3269    
         9   0             -322.56         0.78968463     1.1379595      0.6155472      0.61554721    -6.8302615e-09 -2.0594697e-10 -5.6206328e-10  8.1000012      12.150014      16.200019      1594.3269    
        10   0             -322.56         0.78968462     1.1379595      0.6155472      0.61554721    -2.2943452e-09  5.3913246e-10 -4.1478533e-10  8.1000012      12.150014      16.200019      1594.3269    
        11   0             -322.56         0.78968462     1.1379595      0.6155472      0.6155472     -6.8726855e-10  2.0489026e-11 -9.0775259e-11  8.1000012      12.150014      16.200019      1594.3269    
        12   0             -322.56         0.78968462     1.1379595      0.6155472      0.6155472     -3.0054368e-10  1.996693e-11  -8.2072883e-12  8.1000012      12.150014      16.200019      1594.3269    
        13   0             -322.56         0.78968462     1.1379595      0.6155472      0.6155472     -2.8878808e-11  2.8196777e-11  4.403137e-11   8.1000012      12.150014      16.200019      1594.3269    
        14   0             -322.56         0.78968462     1.1379595      0.6155472      0.6155472      2.1274532e-12  5.4415131e-12 -2.5496984e-11  8.1000012      12.150014      16.200019      1594.3269    
        15   0             -322.56         0.78968462     1.1379595      0.6155472      0.6155472     -1.317328e-13  -7.9494845e-12 -2.3617745e-11  8.1000012      12.150014      16.200019      1594.3269    
        16   0             -322.56         0.78968462     1.1379595      0.6155472      0.6155472     -5.0434113e-12  1.7655086e-11  2.0263704e-11  8.1000012      12.150014      16.200019      1594.3269    
        17   0             -322.56         0.78968462     1.1379595      0.6155472      0.6155472     -3.0440205e-12  9.9421108e-12  3.5318535e-12  8.1000012      12.150014      16.200019      1594.3269    
        18   0             -322.56         0.78968462     1.1379595      0.6155472      0.6155472     -1.1309514e-11  3.9843119e-13  2.0567032e-11  8.1000012      12.150014      16.200019      1594.3269    
        19   0             -322.56         0.78968462     1.1379595      0.6155472      0.6155472      2.620041e-12   1.2297543e-11  9.7518205e-12  8.1000012      12.150014      16.200019      1594.3269    
        20   0             -322.56         0.78968462     1.1379595      0.6155472      0.6155472     -1.382826e-11   7.2319315e-12 -1.5724244e-12  8.1000012      12.150014      16.200019      1594.3269    
        21   0             -322.56         0.78968462     1.1379595      0.6155472      0.6155472      9.9137171e-12 -1.8292898e-11 -6.8684613e-13  8.1000012      12.150014      16.200019      1594.3269    
        22   0             -322.56         0.78968462     1.1379595      0.6155472      0.6155472     -1.9614537e-11 -1.9567788e-12 -7.2728987e-12  8.1000012      12.150014      16.200019      1594.3269    
        23   0             -322.56         0.78968462     1.1379595      0.6155472      0.6155472     -1.3847887e-12  7.0484919e-12  2.4370835e-12  8.1000012      12.150014      16.200019      1594.3269    
        24   0             -322.56         0.78968462     1.1379595      0.6155472      0.6155472      2.4485031e-11 -7.1815424e-12  6.4326453e-12  8.1000012      12.150014      16.200019      1594.3269    
        25   0             -322.56         0.78968462     1.1379595      0.6155472      0.6155472     -1.3382133e-11 -5.4956351e-12 -1.3838032e-11  8.1000012      12.150014      16.200019      1594.3269    
        26   0             -322.56         0.78968462     1.1379595      0.6155472      0.6155472      1.1914495e-11 -1.5395187e-11 -2.7613307e-12  8.1000012      12.150014      16.200019      1594.3269    
        27   0             -322.56         0.78968462     1.1379595      0.6155472      0.6155472      3.5481994e-12 -2.4603665e-11 -2.5322657e-11  8.1000012      12.150014      16.200019      1594.3269    
Loop time of 0.007517 on 1 procs for 25 steps with 96 atoms

0.0% CPU use with 1 MPI tasks x 1 OpenMP threads

Minimization stats:
  Stopping criterion = force tolerance
  Energy initial, next-to-last, final = 
     -322.559998842557  -322.559998865078  -322.559998865077
  Force two-norm initial, final = 0.00051426342 5.5532731e-11
  Force max component initial, final = 7.9678405e-05 8.3727122e-12
  Final line search alpha, max atom move = 1 8.3727122e-12
  Iterations, force evaluations = 25 50

MPI task timing breakdown:
Section |  min time  |  avg time  |  max time  |%varavg| %total
---------------------------------------------------------------
Pair    | 0.006998   | 0.006998   | 0.006998   |   0.0 | 93.10
Neigh   | 0          | 0          | 0          |   0.0 |  0.00
Comm    | 0.000141   | 0.000141   | 0.000141   |   0.0 |  1.88
Output  | 0.000234   | 0.000234   | 0.000234   |   0.0 |  3.11
Modify  | 0          | 0          | 0          |   0.0 |  0.00
Other   |            | 0.000144   |            |       |  1.92

Nlocal:             96 ave          96 max          96 min
Histogram: 1 0 0 0 0 0 0 0 0 0
Nghost:            976 ave         976 max         976 min
Histogram: 1 0 0 0 0 0 0 0 0 0
Neighs:           4128 ave        4128 max        4128 min
Histogram: 1 0 0 0 0 0 0 0 0 0

Total # of neighbors = 4128
Ave neighs/atom = 43
Neighbor list builds = 0
Dangerous builds = 0
OMP_NUM_THREADS environment is not set. Defaulting to 1 thread. (src/comm.cpp:98)
  using 1 OpenMP thread(s) per MPI task
Loaded 1 plugins from F:\Lammps\LAMMPS 64-bit 2Aug2023\plugins

The 'box' command has been removed and will be ignored

Reading restart file ...
  restart file = 2 Aug 2023, LAMMPS = 2 Aug 2023
  restoring atom style atomic from restart
  triclinic box = (-4.6617854e-06 -6.9926781e-06 -9.3235709e-06) to (8.1000047 12.150007 16.200009) with tilt (0 0 0)
  1 by 1 by 1 MPI processor grid
  pair style eam/alloy stores no restart info
  96 atoms
  read_restart CPU = 0.000 seconds
Changing box ...
  triclinic box = (-4.6617854e-06 -6.9926781e-06 -9.3235709e-06) to (8.1000128 12.150007 16.200009) with tilt (0 0 0)
  triclinic box = (-4.6617854e-06 -6.9926781e-06 -9.3235709e-06) to (8.1000128 12.150007 16.200009) with tilt (0 0 0)
  triclinic box = (-4.6617854e-06 -6.9926781e-06 -9.3235709e-06) to (8.1000128 12.150007 16.200009) with tilt (0 0 0)
Neighbor list info ...
  update: every = 1 steps, delay = 0 steps, check = yes
  max neighbors/atom: 2000, page size: 100000
  master list distance cutoff = 7.28721
  ghost atom cutoff = 7.28721
  1 neighbor lists, perpetual/occasional/extra = 1 0 0
  (1) pair eam/alloy, perpetual
      attributes: half, newton on
      pair build: half/nsq/newton
      stencil: none
      bin: none
Setting up cg style minimization ...
  Unit style    : metal
  Current step  : 2
Per MPI rank memory allocation (min/avg/max) = 4.447 | 4.447 | 4.447 Mbytes
   Step          Temp          PotEng         Press           Pxx            Pyy            Pzz            Pxy            Pxz            Pyz             Lx             Ly             Lz           Volume    
         2   0             -322.56        -0.78965851    -1.1379321     -0.61552377    -0.61551963     7.9863905e-07  3.1983491e-06  1.7199159e-06  8.1000174      12.150014      16.200019      1594.3301    
         3   0             -322.56        -0.78968031    -1.137953      -0.61554452    -0.6155434     -2.575794e-07  -5.386943e-07  -4.4539475e-07  8.1000174      12.150014      16.200019      1594.3301    
         4   0             -322.56        -0.78968325    -1.137956      -0.61554707    -0.61554671    -9.833025e-08   9.4862755e-08  8.8481668e-08  8.1000174      12.150014      16.200019      1594.3301    
         5   0             -322.56        -0.78968388    -1.1379566     -0.61554756    -0.61554747    -2.7331057e-08 -5.0962165e-09  1.0740983e-08  8.1000174      12.150014      16.200019      1594.3301    
         6   0             -322.56        -0.78968401    -1.1379568     -0.61554765    -0.61554762    -4.4649535e-08 -1.5800017e-09  2.073532e-09   8.1000174      12.150014      16.200019      1594.3301    
         7   0             -322.56        -0.78968404    -1.1379568     -0.61554768    -0.61554766    -2.981474e-08   9.2674033e-10 -4.2643995e-10  8.1000174      12.150014      16.200019      1594.3301    
         8   0             -322.56        -0.78968406    -1.1379568     -0.6155477     -0.61554768    -1.5090629e-08 -1.0546843e-09 -1.3260636e-10  8.1000174      12.150014      16.200019      1594.3301    
         9   0             -322.56        -0.78968407    -1.1379568     -0.6155477     -0.6155477     -6.8409371e-09 -1.9660402e-10 -5.5076931e-10  8.1000174      12.150014      16.200019      1594.3301    
        10   0             -322.56        -0.78968407    -1.1379568     -0.61554771    -0.6155477     -2.2884472e-09  5.1047838e-10 -4.1114109e-10  8.1000174      12.150014      16.200019      1594.3301    
        11   0             -322.56        -0.78968408    -1.1379568     -0.61554771    -0.61554771    -6.7335561e-10  3.3109008e-11 -9.6416269e-11  8.1000174      12.150014      16.200019      1594.3301    
        12   0             -322.56        -0.78968408    -1.1379568     -0.61554771    -0.61554771    -2.7699404e-10  1.5848482e-12  6.6139315e-12  8.1000174      12.150014      16.200019      1594.3301    
        13   0             -322.56        -0.78968408    -1.1379568     -0.61554771    -0.61554771    -5.3601187e-11  3.2020146e-11  2.0312475e-11  8.1000174      12.150014      16.200019      1594.3301    
        14   0             -322.56        -0.78968408    -1.1379568     -0.61554771    -0.61554771     7.7750478e-12  1.5053857e-11  1.8025317e-11  8.1000174      12.150014      16.200019      1594.3301    
        15   0             -322.56        -0.78968408    -1.1379568     -0.61554771    -0.61554771     5.6081865e-12  2.1950804e-11  1.90643e-11    8.1000174      12.150014      16.200019      1594.3301    
        16   0             -322.56        -0.78968408    -1.1379568     -0.61554771    -0.61554771     1.840787e-11   5.3833284e-13  1.2457342e-11  8.1000174      12.150014      16.200019      1594.3301    
        17   0             -322.56        -0.78968408    -1.1379568     -0.61554771    -0.61554771    -4.3288995e-12 -5.1704483e-12  1.9175869e-12  8.1000174      12.150014      16.200019      1594.3301    
        18   0             -322.56        -0.78968408    -1.1379568     -0.61554771    -0.61554771     2.6269709e-11 -1.1396389e-11  5.3413511e-12  8.1000174      12.150014      16.200019      1594.3301    
        19   0             -322.56        -0.78968408    -1.1379568     -0.61554771    -0.61554771     3.9643031e-12 -4.3178242e-12 -1.6236731e-11  8.1000174      12.150014      16.200019      1594.3301    
        20   0             -322.56        -0.78968408    -1.1379568     -0.61554771    -0.61554771    -1.2736934e-11 -1.7053939e-12 -5.9270868e-13  8.1000174      12.150014      16.200019      1594.3301    
        21   0             -322.56        -0.78968408    -1.1379568     -0.61554771    -0.61554771    -1.4756207e-11 -7.7446607e-12  1.3088402e-11  8.1000174      12.150014      16.200019      1594.3301    
        22   0             -322.56        -0.78968408    -1.1379568     -0.61554771    -0.61554771    -4.6346385e-12  9.6842445e-13 -1.1505521e-13  8.1000174      12.150014      16.200019      1594.3301    
        23   0             -322.56        -0.78968408    -1.1379568     -0.61554771    -0.61554771    -1.6703895e-11  1.6802764e-11  1.1871606e-11  8.1000174      12.150014      16.200019      1594.3301    
        24   0             -322.56        -0.78968408    -1.1379568     -0.61554771    -0.61554771    -8.7134092e-12  5.7337417e-12 -1.2283016e-11  8.1000174      12.150014      16.200019      1594.3301    
        25   0             -322.56        -0.78968408    -1.1379568     -0.61554771    -0.61554771    -1.1630184e-11 -1.7445666e-11 -3.3296282e-12  8.1000174      12.150014      16.200019      1594.3301    
        26   0             -322.56        -0.78968408    -1.1379568     -0.61554771    -0.61554771     4.752094e-12   2.4973228e-11  1.4399334e-11  8.1000174      12.150014      16.200019      1594.3301    
        27   0             -322.56        -0.78968408    -1.1379568     -0.61554771    -0.61554771    -8.2807791e-12 -1.3317106e-11  1.9280465e-12  8.1000174      12.150014      16.200019      1594.3301    
Loop time of 0.007595 on 1 procs for 25 steps with 96 atoms

205.7% CPU use with 1 MPI tasks x 1 OpenMP threads

Minimization stats:
  Stopping criterion = force tolerance
  Energy initial, next-to-last, final = 
     -322.559998842556  -322.559998865079   -322.55999886508
  Force two-norm initial, final = 0.00051426189 5.5537217e-11
  Force max component initial, final = 7.9678222e-05 8.3142937e-12
  Final line search alpha, max atom move = 1 8.3142937e-12
  Iterations, force evaluations = 25 50

MPI task timing breakdown:
Section |  min time  |  avg time  |  max time  |%varavg| %total
---------------------------------------------------------------
Pair    | 0.007105   | 0.007105   | 0.007105   |   0.0 | 93.55
Neigh   | 0          | 0          | 0          |   0.0 |  0.00
Comm    | 0.00014    | 0.00014    | 0.00014    |   0.0 |  1.84
Output  | 0.000237   | 0.000237   | 0.000237   |   0.0 |  3.12
Modify  | 0          | 0          | 0          |   0.0 |  0.00
Other   |            | 0.000113   |            |       |  1.49

Nlocal:             96 ave          96 max          96 min
Histogram: 1 0 0 0 0 0 0 0 0 0
Nghost:            976 ave         976 max         976 min
Histogram: 1 0 0 0 0 0 0 0 0 0
Neighs:           4128 ave        4128 max        4128 min
Histogram: 1 0 0 0 0 0 0 0 0 0

Total # of neighbors = 4128
Ave neighs/atom = 43
Neighbor list builds = 0
Dangerous builds = 0
OMP_NUM_THREADS environment is not set. Defaulting to 1 thread. (src/comm.cpp:98)
  using 1 OpenMP thread(s) per MPI task
Loaded 1 plugins from F:\Lammps\LAMMPS 64-bit 2Aug2023\plugins

The 'box' command has been removed and will be ignored

Reading restart file ...
  restart file = 2 Aug 2023, LAMMPS = 2 Aug 2023
  restoring atom style atomic from restart
  triclinic box = (-4.6617854e-06 -6.9926781e-06 -9.3235709e-06) to (8.1000047 12.150007 16.200009) with tilt (0 0 0)
  1 by 1 by 1 MPI processor grid
  pair style eam/alloy stores no restart info
  96 atoms
  read_restart CPU = 0.000 seconds
Changing box ...
  triclinic box = (-4.6617854e-06 -6.9926781e-06 -9.3235709e-06) to (8.1000047 12.149995 16.200009) with tilt (0 0 0)
  triclinic box = (-4.6617854e-06 -6.9926781e-06 -9.3235709e-06) to (8.1000047 12.149995 16.200009) with tilt (0 0 0)
Neighbor list info ...
  update: every = 1 steps, delay = 0 steps, check = yes
  max neighbors/atom: 2000, page size: 100000
  master list distance cutoff = 7.28721
  ghost atom cutoff = 7.28721
  1 neighbor lists, perpetual/occasional/extra = 1 0 0
  (1) pair eam/alloy, perpetual
      attributes: half, newton on
      pair build: half/nsq/newton
      stencil: none
      bin: none
Setting up cg style minimization ...
  Unit style    : metal
  Current step  : 2
Per MPI rank memory allocation (min/avg/max) = 4.447 | 4.447 | 4.447 Mbytes
   Step          Temp          PotEng         Press           Pxx            Pyy            Pzz            Pxy            Pxz            Pyz             Lx             Ly             Lz           Volume    
         2   0             -322.56         0.78971018     0.61557188     1.1379834      0.61557527     7.9876297e-07  3.1983004e-06  1.7198552e-06  8.1000093      12.150002      16.200019      1594.3269    
         3   0             -322.56         0.78968839     0.61555101     1.1379626      0.61555151    -2.5754013e-07 -5.3871767e-07 -4.4539243e-07  8.1000093      12.150002      16.200019      1594.3269    
         4   0             -322.56         0.78968544     0.61554803     1.1379601      0.6155482     -9.8336934e-08  9.4894561e-08  8.8491171e-08  8.1000093      12.150002      16.200019      1594.3269    
         5   0             -322.56         0.78968481     0.6155474      1.1379596      0.61554744    -2.7291399e-08 -5.0904107e-09  1.0718924e-08  8.1000093      12.150002      16.200019      1594.3269    
         6   0             -322.56         0.78968468     0.61554725     1.1379595      0.61554729    -4.465475e-08  -1.5879338e-09  2.0814157e-09  8.1000093      12.150002      16.200019      1594.3269    
         7   0             -322.56         0.78968466     0.61554723     1.1379595      0.61554725    -2.9799257e-08  9.1879098e-10 -4.1905633e-10  8.1000093      12.150002      16.200019      1594.3269    
         8   0             -322.56         0.78968464     0.61554722     1.1379595      0.61554723    -1.507884e-08  -1.0551771e-09 -1.3984466e-10  8.1000093      12.150002      16.200019      1594.3269    
         9   0             -322.56         0.78968463     0.61554721     1.1379595      0.61554721    -6.840944e-09  -1.968639e-10  -5.4558943e-10  8.1000093      12.150002      16.200019      1594.3269    
        10   0             -322.56         0.78968462     0.6155472      1.1379595      0.61554721    -2.2844126e-09  5.1606638e-10 -4.0337741e-10  8.1000093      12.150002      16.200019      1594.3269    
        11   0             -322.56         0.78968462     0.6155472      1.1379595      0.6155472     -6.8781383e-10  6.8421103e-11 -9.2473198e-11  8.1000093      12.150002      16.200019      1594.3269    
        12   0             -322.56         0.78968462     0.6155472      1.1379595      0.6155472     -2.8817875e-10  4.9775587e-13  1.726529e-11   8.1000093      12.150002      16.200019      1594.3269    
        13   0             -322.56         0.78968462     0.6155472      1.1379595      0.6155472     -3.4484634e-11 -1.6025788e-12  1.9290963e-11  8.1000093      12.150002      16.200019      1594.3269    
        14   0             -322.56         0.78968462     0.6155472      1.1379595      0.6155472     -5.3234683e-12 -7.0145259e-12 -2.7892229e-12  8.1000093      12.150002      16.200019      1594.3269    
        15   0             -322.56         0.78968462     0.6155472      1.1379595      0.6155472     -1.2579207e-11 -9.0535861e-13 -1.8785416e-11  8.1000093      12.150002      16.200019      1594.3269    
        16   0             -322.56         0.78968462     0.6155472      1.1379595      0.6155472      1.3530599e-11 -5.9560009e-12 -1.4782881e-12  8.1000093      12.150002      16.200019      1594.3269    
        17   0             -322.56         0.78968462     0.6155472      1.1379595      0.6155472     -7.4331074e-12 -6.7278833e-12 -1.0320125e-11  8.1000093      12.150002      16.200019      1594.3269    
        18   0             -322.56         0.78968462     0.6155472      1.1379595      0.6155472     -3.6746962e-12  1.0489427e-12 -4.6998406e-12  8.1000093      12.150002      16.200019      1594.3269    
        19   0             -322.56         0.78968462     0.6155472      1.1379595      0.6155472      6.4205891e-12  1.8469456e-11 -1.7565131e-11  8.1000093      12.150002      16.200019      1594.3269    
        20   0             -322.56         0.78968462     0.6155472      1.1379595      0.6155472     -5.8224382e-12 -3.0227722e-11 -8.5419951e-13  8.1000093      12.150002      16.200019      1594.3269    
        21   0             -322.56         0.78968462     0.6155472      1.1379595      0.6155472      2.8166738e-11 -1.3826242e-12  1.8593657e-11  8.1000093      12.150002      16.200019      1594.3269    
        22   0             -322.56         0.78968462     0.6155472      1.1379595      0.6155472     -2.8177576e-12 -1.4613035e-11 -2.499841e-12   8.1000093      12.150002      16.200019      1594.3269    
        23   0             -322.56         0.78968462     0.6155472      1.1379595      0.6155472      1.1272664e-11  1.1239099e-11 -7.2728987e-12  8.1000093      12.150002      16.200019      1594.3269    
        24   0             -322.56         0.78968462     0.6155472      1.1379595      0.6155472     -1.2742199e-11  1.9751718e-11  1.2195877e-11  8.1000093      12.150002      16.200019      1594.3269    
        25   0             -322.56         0.78968462     0.6155472      1.1379595      0.6155472     -5.1345893e-12 -6.0039462e-12  2.4116318e-11  8.1000093      12.150002      16.200019      1594.3269    
        26   0             -322.56         0.78968462     0.6155472      1.1379595      0.6155472     -1.4769666e-11 -2.2646491e-11  1.3231376e-11  8.1000093      12.150002      16.200019      1594.3269    
        27   0             -322.56         0.78968462     0.6155472      1.1379595      0.6155472     -1.8073015e-12 -4.6651653e-12  5.0206012e-13  8.1000093      12.150002      16.200019      1594.3269    
Loop time of 0.00719 on 1 procs for 25 steps with 96 atoms

217.3% CPU use with 1 MPI tasks x 1 OpenMP threads

Minimization stats:
  Stopping criterion = force tolerance
  Energy initial, next-to-last, final = 
     -322.559998842556  -322.559998865078  -322.559998865077
  Force two-norm initial, final = 0.00051426338 5.5560512e-11
  Force max component initial, final = 7.9678482e-05 8.2046869e-12
  Final line search alpha, max atom move = 1 8.2046869e-12
  Iterations, force evaluations = 25 50

MPI task timing breakdown:
Section |  min time  |  avg time  |  max time  |%varavg| %total
---------------------------------------------------------------
Pair    | 0.006721   | 0.006721   | 0.006721   |   0.0 | 93.48
Neigh   | 0          | 0          | 0          |   0.0 |  0.00
Comm    | 0.00015    | 0.00015    | 0.00015    |   0.0 |  2.09
Output  | 0.000217   | 0.000217   | 0.000217   |   0.0 |  3.02
Modify  | 0          | 0          | 0          |   0.0 |  0.00
Other   |            | 0.000102   |            |       |  1.42

Nlocal:             96 ave          96 max          96 min
Histogram: 1 0 0 0 0 0 0 0 0 0
Nghost:            976 ave         976 max         976 min
Histogram: 1 0 0 0 0 0 0 0 0 0
Neighs:           4128 ave        4128 max        4128 min
Histogram: 1 0 0 0 0 0 0 0 0 0

Total # of neighbors = 4128
Ave neighs/atom = 43
Neighbor list builds = 0
Dangerous builds = 0
OMP_NUM_THREADS environment is not set. Defaulting to 1 thread. (src/comm.cpp:98)
  using 1 OpenMP thread(s) per MPI task
Loaded 1 plugins from F:\Lammps\LAMMPS 64-bit 2Aug2023\plugins

The 'box' command has been removed and will be ignored

Reading restart file ...
  restart file = 2 Aug 2023, LAMMPS = 2 Aug 2023
  restoring atom style atomic from restart
  triclinic box = (-4.6617854e-06 -6.9926781e-06 -9.3235709e-06) to (8.1000047 12.150007 16.200009) with tilt (0 0 0)
  1 by 1 by 1 MPI processor grid
  pair style eam/alloy stores no restart info
  96 atoms
  read_restart CPU = 0.000 seconds
Changing box ...
  triclinic box = (-4.6617854e-06 -6.9926781e-06 -9.3235709e-06) to (8.1000047 12.150019 16.200009) with tilt (0 0 0)
  triclinic box = (-4.6617854e-06 -6.9926781e-06 -9.3235709e-06) to (8.1000047 12.150019 16.200009) with tilt (0 0 0)
Neighbor list info ...
  update: every = 1 steps, delay = 0 steps, check = yes
  max neighbors/atom: 2000, page size: 100000
  master list distance cutoff = 7.28721
  ghost atom cutoff = 7.28721
  1 neighbor lists, perpetual/occasional/extra = 1 0 0
  (1) pair eam/alloy, perpetual
      attributes: half, newton on
      pair build: half/nsq/newton
      stencil: none
      bin: none
Setting up cg style minimization ...
  Unit style    : metal
  Current step  : 2
Per MPI rank memory allocation (min/avg/max) = 4.447 | 4.447 | 4.447 Mbytes
   Step          Temp          PotEng         Press           Pxx            Pyy            Pzz            Pxy            Pxz            Pyz             Lx             Ly             Lz           Volume    
         2   0             -322.56        -0.78965851    -0.61552303    -1.1379329     -0.61551963     7.9861739e-07  3.1983479e-06  1.7198891e-06  8.1000093      12.150026      16.200019      1594.3301    
         3   0             -322.56        -0.78968031    -0.61554389    -1.1379536     -0.6155434     -2.5757204e-07 -5.3872095e-07 -4.4540465e-07  8.1000093      12.150026      16.200019      1594.3301    
         4   0             -322.56        -0.78968325    -0.61554688    -1.1379562     -0.61554671    -9.8333731e-08  9.492036e-08   8.8484031e-08  8.1000093      12.150026      16.200019      1594.3301    
         5   0             -322.56        -0.78968388    -0.61554751    -1.1379567     -0.61554747    -2.731031e-08  -5.0870994e-09  1.0731399e-08  8.1000093      12.150026      16.200019      1594.3301    
         6   0             -322.56        -0.78968401    -0.61554766    -1.1379568     -0.61554762    -4.4649117e-08 -1.5817115e-09  2.0482269e-09  8.1000093      12.150026      16.200019      1594.3301    
         7   0             -322.56        -0.78968404    -0.61554768    -1.1379568     -0.61554766    -2.9798326e-08  9.0484881e-10 -4.3199049e-10  8.1000093      12.150026      16.200019      1594.3301    
         8   0             -322.56        -0.78968406    -0.61554769    -1.1379568     -0.61554768    -1.5076131e-08 -1.0766396e-09 -1.4083804e-10  8.1000093      12.150026      16.200019      1594.3301    
         9   0             -322.56        -0.78968407    -0.6155477     -1.1379568     -0.6155477     -6.8468479e-09 -2.1343828e-10 -5.3252783e-10  8.1000093      12.150026      16.200019      1594.3301    
        10   0             -322.56        -0.78968407    -0.61554771    -1.1379568     -0.6155477     -2.2874873e-09  5.2055013e-10 -4.016961e-10   8.1000093      12.150026      16.200019      1594.3301    
        11   0             -322.56        -0.78968408    -0.61554771    -1.1379568     -0.61554771    -6.7611117e-10  4.7944019e-11 -9.0210261e-11  8.1000093      12.150026      16.200019      1594.3301    
        12   0             -322.56        -0.78968408    -0.61554771    -1.1379568     -0.61554771    -2.8842676e-10  2.131517e-12  -4.7068042e-13  8.1000093      12.150026      16.200019      1594.3301    
        13   0             -322.56        -0.78968408    -0.61554771    -1.1379568     -0.61554771    -2.3250704e-11  1.4052866e-11  3.5869335e-11  8.1000093      12.150026      16.200019      1594.3301    
        14   0             -322.56        -0.78968408    -0.61554771    -1.1379568     -0.61554771    -1.1444019e-11  2.5416013e-12 -1.5968269e-11  8.1000093      12.150026      16.200019      1594.3301    
        15   0             -322.56        -0.78968408    -0.61554771    -1.1379568     -0.61554771    -2.5723839e-11 -7.4013451e-12  3.4760621e-12  8.1000093      12.150026      16.200019      1594.3301    
        16   0             -322.56        -0.78968408    -0.61554771    -1.1379568     -0.61554771     7.058031e-13  -6.498334e-12  -4.5220186e-12  8.1000093      12.150026      16.200019      1594.3301    
        17   0             -322.56        -0.78968408    -0.61554771    -1.1379568     -0.61554771     7.7717636e-12 -9.567432e-12  -1.1861147e-11  8.1000093      12.150026      16.200019      1594.3301    
        18   0             -322.56        -0.78968408    -0.61554771    -1.1379568     -0.61554771    -8.5683351e-12 -3.9630367e-12 -5.7736798e-12  8.1000093      12.150026      16.200019      1594.3301    
        19   0             -322.56        -0.78968408    -0.61554771    -1.1379568     -0.61554771     1.3996226e-11  3.4927816e-11  2.6312779e-11  8.1000093      12.150026      16.200019      1594.3301    
        20   0             -322.56        -0.78968408    -0.61554771    -1.1379568     -0.61554771     1.2003835e-11  1.6217989e-11  4.6370738e-12  8.1000093      12.150026      16.200019      1594.3301    
        21   0             -322.56        -0.78968408    -0.61554771    -1.1379568     -0.61554771    -4.2493898e-12 -2.9041929e-12 -1.5769537e-11  8.1000093      12.150026      16.200019      1594.3301    
        22   0             -322.56        -0.78968408    -0.61554771    -1.1379568     -0.61554771    -2.3893195e-12  4.150878e-12  -2.9635434e-13  8.1000093      12.150026      16.200019      1594.3301    
        23   0             -322.56        -0.78968408    -0.61554771    -1.1379568     -0.61554771     1.4327622e-11  9.4865355e-12 -1.1453224e-11  8.1000093      12.150026      16.200019      1594.3301    
        24   0             -322.56        -0.78968408    -0.61554771    -1.1379568     -0.61554771     5.2556857e-12  8.609397e-12   8.9150358e-12  8.1000093      12.150026      16.200019      1594.3301    
        25   0             -322.56        -0.78968408    -0.61554771    -1.1379568     -0.61554771    -9.5419923e-12 -1.277616e-11  -1.401233e-11   8.1000093      12.150026      16.200019      1594.3301    
        26   0             -322.56        -0.78968408    -0.61554771    -1.1379568     -0.61554771     1.2343025e-11  7.734129e-12   1.1463683e-11  8.1000093      12.150026      16.200019      1594.3301    
        27   0             -322.56        -0.78968408    -0.61554771    -1.1379568     -0.61554771    -1.4175116e-11  8.90523e-12   -1.5710266e-11  8.1000093      12.150026      16.200019      1594.3301    
Loop time of 0.007007 on 1 procs for 25 steps with 96 atoms

0.0% CPU use with 1 MPI tasks x 1 OpenMP threads

Minimization stats:
  Stopping criterion = force tolerance
  Energy initial, next-to-last, final = 
     -322.559998842558  -322.559998865077  -322.559998865079
  Force two-norm initial, final = 0.00051426193 5.5478092e-11
  Force max component initial, final = 7.9678145e-05 8.4390828e-12
  Final line search alpha, max atom move = 1 8.4390828e-12
  Iterations, force evaluations = 25 50

MPI task timing breakdown:
Section |  min time  |  avg time  |  max time  |%varavg| %total
---------------------------------------------------------------
Pair    | 0.006555   | 0.006555   | 0.006555   |   0.0 | 93.55
Neigh   | 0          | 0          | 0          |   0.0 |  0.00
Comm    | 0.000139   | 0.000139   | 0.000139   |   0.0 |  1.98
Output  | 0.000218   | 0.000218   | 0.000218   |   0.0 |  3.11
Modify  | 0          | 0          | 0          |   0.0 |  0.00
Other   |            | 9.5e-05    |            |       |  1.36

Nlocal:             96 ave          96 max          96 min
Histogram: 1 0 0 0 0 0 0 0 0 0
Nghost:            976 ave         976 max         976 min
Histogram: 1 0 0 0 0 0 0 0 0 0
Neighs:           4128 ave        4128 max        4128 min
Histogram: 1 0 0 0 0 0 0 0 0 0

Total # of neighbors = 4128
Ave neighs/atom = 43
Neighbor list builds = 0
Dangerous builds = 0
OMP_NUM_THREADS environment is not set. Defaulting to 1 thread. (src/comm.cpp:98)
  using 1 OpenMP thread(s) per MPI task
Loaded 1 plugins from F:\Lammps\LAMMPS 64-bit 2Aug2023\plugins

The 'box' command has been removed and will be ignored

Reading restart file ...
  restart file = 2 Aug 2023, LAMMPS = 2 Aug 2023
  restoring atom style atomic from restart
  triclinic box = (-4.6617854e-06 -6.9926781e-06 -9.3235709e-06) to (8.1000047 12.150007 16.200009) with tilt (0 0 0)
  1 by 1 by 1 MPI processor grid
  pair style eam/alloy stores no restart info
  96 atoms
  read_restart CPU = 0.000 seconds
Changing box ...
  triclinic box = (-4.6617854e-06 -6.9926781e-06 -9.3235709e-06) to (8.1000047 12.150007 16.199993) with tilt (0 0 0)
Neighbor list info ...
  update: every = 1 steps, delay = 0 steps, check = yes
  max neighbors/atom: 2000, page size: 100000
  master list distance cutoff = 7.28721
  ghost atom cutoff = 7.28721
  1 neighbor lists, perpetual/occasional/extra = 1 0 0
  (1) pair eam/alloy, perpetual
      attributes: half, newton on
      pair build: half/nsq/newton
      stencil: none
      bin: none
Setting up cg style minimization ...
  Unit style    : metal
  Current step  : 2
Per MPI rank memory allocation (min/avg/max) = 4.447 | 4.447 | 4.447 Mbytes
   Step          Temp          PotEng         Press           Pxx            Pyy            Pzz            Pxy            Pxz            Pyz             Lx             Ly             Lz           Volume    
         2   0             -322.56         0.78971018     0.61557188     0.61557114     1.1379875      7.9874759e-07  3.1983053e-06  1.7198771e-06  8.1000093      12.150014      16.200002      1594.3269    
         3   0             -322.56         0.78968839     0.61555101     0.61555039     1.1379638     -2.5755412e-07 -5.3872632e-07 -4.4539468e-07  8.1000093      12.150014      16.200002      1594.3269    
         4   0             -322.56         0.78968544     0.61554803     0.61554784     1.1379605     -9.8333079e-08  9.4897051e-08  8.8489769e-08  8.1000093      12.150014      16.200002      1594.3269    
         5   0             -322.56         0.78968481     0.6155474      0.61554735     1.1379597     -2.7301407e-08 -5.0904993e-09  1.0717645e-08  8.1000093      12.150014      16.200002      1594.3269    
         6   0             -322.56         0.78968468     0.61554725     0.61554726     1.1379595     -4.4660825e-08 -1.5677831e-09  2.0509888e-09  8.1000093      12.150014      16.200002      1594.3269    
         7   0             -322.56         0.78968466     0.61554723     0.61554723     1.1379595     -2.981541e-08   9.2273092e-10 -4.3207503e-10  8.1000093      12.150014      16.200002      1594.3269    
         8   0             -322.56         0.78968464     0.61554722     0.61554721     1.1379595     -1.5077532e-08 -1.053896e-09  -1.2535814e-10  8.1000093      12.150014      16.200002      1594.3269    
         9   0             -322.56         0.78968463     0.61554721     0.6155472      1.1379595     -6.8442269e-09 -2.0223122e-10 -5.3790163e-10  8.1000093      12.150014      16.200002      1594.3269    
        10   0             -322.56         0.78968462     0.6155472      0.6155472      1.1379595     -2.2730057e-09  5.2117125e-10 -3.9649501e-10  8.1000093      12.150014      16.200002      1594.3269    
        11   0             -322.56         0.78968462     0.6155472      0.6155472      1.1379595     -6.9502803e-10  4.388586e-11  -1.1844086e-10  8.1000093      12.150014      16.200002      1594.3269    
        12   0             -322.56         0.78968462     0.6155472      0.6155472      1.1379595     -2.8423747e-10  2.9328455e-11  4.4348644e-11  8.1000093      12.150014      16.200002      1594.3269    
        13   0             -322.56         0.78968462     0.6155472      0.6155472      1.1379595     -2.0232579e-11  2.2168147e-11  4.8630101e-11  8.1000093      12.150014      16.200002      1594.3269    
        14   0             -322.56         0.78968462     0.6155472      0.6155472      1.1379595     -1.2992582e-11  4.5261779e-12 -4.9229784e-12  8.1000093      12.150014      16.200002      1594.3269    
        15   0             -322.56         0.78968462     0.6155472      0.6155472      1.1379595     -3.4748229e-12  1.1788673e-11  3.1242783e-11  8.1000093      12.150014      16.200002      1594.3269    
        16   0             -322.56         0.78968462     0.6155472      0.6155472      1.1379595     -4.0491218e-12 -1.6904591e-11 -1.6526146e-11  8.1000093      12.150014      16.200002      1594.3269    
        17   0             -322.56         0.78968462     0.6155472      0.6155472      1.1379595      5.1585921e-12  2.7292834e-11  4.4801893e-12  8.1000093      12.150014      16.200002      1594.3269    
        18   0             -322.56         0.78968462     0.6155472      0.6155472      1.1379595      2.8221371e-12 -3.5232545e-12 -1.6358792e-11  8.1000093      12.150014      16.200002      1594.3269    
        19   0             -322.56         0.78968462     0.6155472      0.6155472      1.1379595     -1.2605533e-11  8.1169297e-12 -1.9555939e-11  8.1000093      12.150014      16.200002      1594.3269    
        20   0             -322.56         0.78968462     0.6155472      0.6155472      1.1379595      5.9553475e-12 -4.5192426e-12 -1.9308395e-11  8.1000093      12.150014      16.200002      1594.3269    
        21   0             -322.56         0.78968462     0.6155472      0.6155472      1.1379595      8.8301864e-12  1.2039523e-11  1.084659e-11   8.1000093      12.150014      16.200002      1594.3269    
        22   0             -322.56         0.78968462     0.6155472      0.6155472      1.1379595      9.2591646e-12  1.4836591e-11  4.9264649e-12  8.1000093      12.150014      16.200002      1594.3269    
        23   0             -322.56         0.78968462     0.6155472      0.6155472      1.1379595     -6.4228391e-12 -5.2506389e-12  7.5378748e-12  8.1000093      12.150014      16.200002      1594.3269    
        24   0             -322.56         0.78968462     0.6155472      0.6155472      1.1379595      1.8638125e-12 -2.2832948e-12  2.7229788e-12  8.1000093      12.150014      16.200002      1594.3269    
        25   0             -322.56         0.78968462     0.6155472      0.6155472      1.1379595     -6.7914277e-12 -1.6669988e-11  1.6438982e-11  8.1000093      12.150014      16.200002      1594.3269    
        26   0             -322.56         0.78968462     0.6155472      0.6155472      1.1379595     -5.4808284e-12  2.0209191e-11 -1.4420282e-11  8.1000093      12.150014      16.200002      1594.3269    
        27   0             -322.56         0.78968462     0.6155472      0.6155472      1.1379595     -1.034206e-11  -6.6702429e-12 -1.5002533e-11  8.1000093      12.150014      16.200002      1594.3269    
Loop time of 0.007046 on 1 procs for 25 steps with 96 atoms

0.0% CPU use with 1 MPI tasks x 1 OpenMP threads

Minimization stats:
  Stopping criterion = force tolerance
  Energy initial, next-to-last, final = 
     -322.559998842556  -322.559998865078  -322.559998865079
  Force two-norm initial, final = 0.00051426344 5.5545021e-11
  Force max component initial, final = 7.9678435e-05 8.4671437e-12
  Final line search alpha, max atom move = 1 8.4671437e-12
  Iterations, force evaluations = 25 50

MPI task timing breakdown:
Section |  min time  |  avg time  |  max time  |%varavg| %total
---------------------------------------------------------------
Pair    | 0.006594   | 0.006594   | 0.006594   |   0.0 | 93.59
Neigh   | 0          | 0          | 0          |   0.0 |  0.00
Comm    | 0.000129   | 0.000129   | 0.000129   |   0.0 |  1.83
Output  | 0.000216   | 0.000216   | 0.000216   |   0.0 |  3.07
Modify  | 0          | 0          | 0          |   0.0 |  0.00
Other   |            | 0.000107   |            |       |  1.52

Nlocal:             96 ave          96 max          96 min
Histogram: 1 0 0 0 0 0 0 0 0 0
Nghost:            976 ave         976 max         976 min
Histogram: 1 0 0 0 0 0 0 0 0 0
Neighs:           4128 ave        4128 max        4128 min
Histogram: 1 0 0 0 0 0 0 0 0 0

Total # of neighbors = 4128
Ave neighs/atom = 43
Neighbor list builds = 0
Dangerous builds = 0
OMP_NUM_THREADS environment is not set. Defaulting to 1 thread. (src/comm.cpp:98)
  using 1 OpenMP thread(s) per MPI task
Loaded 1 plugins from F:\Lammps\LAMMPS 64-bit 2Aug2023\plugins

The 'box' command has been removed and will be ignored

Reading restart file ...
  restart file = 2 Aug 2023, LAMMPS = 2 Aug 2023
  restoring atom style atomic from restart
  triclinic box = (-4.6617854e-06 -6.9926781e-06 -9.3235709e-06) to (8.1000047 12.150007 16.200009) with tilt (0 0 0)
  1 by 1 by 1 MPI processor grid
  pair style eam/alloy stores no restart info
  96 atoms
  read_restart CPU = 0.000 seconds
Changing box ...
  triclinic box = (-4.6617854e-06 -6.9926781e-06 -9.3235709e-06) to (8.1000047 12.150007 16.200026) with tilt (0 0 0)
Neighbor list info ...
  update: every = 1 steps, delay = 0 steps, check = yes
  max neighbors/atom: 2000, page size: 100000
  master list distance cutoff = 7.28721
  ghost atom cutoff = 7.28721
  1 neighbor lists, perpetual/occasional/extra = 1 0 0
  (1) pair eam/alloy, perpetual
      attributes: half, newton on
      pair build: half/nsq/newton
      stencil: none
      bin: none
Setting up cg style minimization ...
  Unit style    : metal
  Current step  : 2
Per MPI rank memory allocation (min/avg/max) = 4.447 | 4.447 | 4.447 Mbytes
   Step          Temp          PotEng         Press           Pxx            Pyy            Pzz            Pxy            Pxz            Pyz             Lx             Ly             Lz           Volume    
         2   0             -322.56        -0.78965851    -0.61552303    -0.61552377    -1.1379287      7.9863017e-07  3.1983162e-06  1.7199023e-06  8.1000093      12.150014      16.200035      1594.3301    
         3   0             -322.56        -0.78968031    -0.6155439     -0.61554452    -1.1379525     -2.5757037e-07 -5.3875351e-07 -4.4539246e-07  8.1000093      12.150014      16.200035      1594.3301    
         4   0             -322.56        -0.78968325    -0.61554688    -0.61554707    -1.1379558     -9.8338346e-08  9.4896699e-08  8.8498507e-08  8.1000093      12.150014      16.200035      1594.3301    
         5   0             -322.56        -0.78968388    -0.61554751    -0.61554756    -1.1379566     -2.7315725e-08 -5.1150876e-09  1.0717498e-08  8.1000093      12.150014      16.200035      1594.3301    
         6   0             -322.56        -0.78968401    -0.61554766    -0.61554765    -1.1379567     -4.4662345e-08 -1.5648068e-09  2.0363169e-09  8.1000093      12.150014      16.200035      1594.3301    
         7   0             -322.56        -0.78968404    -0.61554768    -0.61554768    -1.1379568     -2.9812768e-08  9.2648272e-10 -4.4230711e-10  8.1000093      12.150014      16.200035      1594.3301    
         8   0             -322.56        -0.78968406    -0.61554769    -0.6155477     -1.1379568     -1.5071209e-08 -1.0699216e-09 -1.6315875e-10  8.1000093      12.150014      16.200035      1594.3301    
         9   0             -322.56        -0.78968407    -0.6155477     -0.6155477     -1.1379568     -6.8586268e-09 -1.9940234e-10 -5.533842e-10   8.1000093      12.150014      16.200035      1594.3301    
        10   0             -322.56        -0.78968407    -0.61554771    -0.61554771    -1.1379568     -2.2787036e-09  5.1608722e-10 -3.8390438e-10  8.1000093      12.150014      16.200035      1594.3301    
        11   0             -322.56        -0.78968408    -0.61554771    -0.61554771    -1.1379568     -6.8715165e-10  3.4592269e-11 -9.6907869e-11  8.1000093      12.150014      16.200035      1594.3301    
        12   0             -322.56        -0.78968408    -0.61554771    -0.61554771    -1.1379568     -2.9478394e-10  5.5797895e-12  4.270989e-12   8.1000093      12.150014      16.200035      1594.3301    
        13   0             -322.56        -0.78968408    -0.61554771    -0.61554771    -1.1379568     -1.318366e-11   2.1254e-11     4.3898794e-11  8.1000093      12.150014      16.200035      1594.3301    
        14   0             -322.56        -0.78968408    -0.61554771    -0.61554771    -1.1379568     -2.0697282e-11 -3.2279753e-12 -1.4852582e-12  8.1000093      12.150014      16.200035      1594.3301    
        15   0             -322.56        -0.78968408    -0.61554771    -0.61554771    -1.1379568     -7.2851106e-12  8.8958083e-12  1.3569542e-11  8.1000093      12.150014      16.200035      1594.3301    
        16   0             -322.56        -0.78968408    -0.61554771    -0.61554771    -1.1379568      1.3123659e-11  2.6207314e-12 -1.8795838e-11  8.1000093      12.150014      16.200035      1594.3301    
        17   0             -322.56        -0.78968408    -0.61554771    -0.61554771    -1.1379568      3.2932242e-12  1.1325415e-11  4.2256642e-12  8.1000093      12.150014      16.200035      1594.3301    
        18   0             -322.56        -0.78968408    -0.61554771    -0.61554771    -1.1379568     -2.0733964e-11  5.8712537e-12 -4.2326373e-12  8.1000093      12.150014      16.200035      1594.3301    
        19   0             -322.56        -0.78968408    -0.61554771    -0.61554771    -1.1379568     -1.1254364e-11  2.445855e-12   7.8098084e-12  8.1000093      12.150014      16.200035      1594.3301    
        20   0             -322.56        -0.78968408    -0.61554771    -0.61554771    -1.1379568     -7.3587506e-12  8.0233006e-12 -7.018368e-12   8.1000093      12.150014      16.200035      1594.3301    
        21   0             -322.56        -0.78968408    -0.61554771    -0.61554771    -1.1379568     -6.4345276e-12 -1.0534415e-11  1.0501403e-11  8.1000093      12.150014      16.200035      1594.3301    
        22   0             -322.56        -0.78968408    -0.61554771    -0.61554771    -1.1379568      6.6713985e-12 -1.8805839e-11 -2.4600897e-11  8.1000093      12.150014      16.200035      1594.3301    
        23   0             -322.56        -0.78968408    -0.61554771    -0.61554771    -1.1379568     -1.9530661e-11  2.2197482e-11 -1.9977769e-11  8.1000093      12.150014      16.200035      1594.3301    
        24   0             -322.56        -0.78968408    -0.61554771    -0.61554771    -1.1379568     -1.4499779e-11 -4.6555592e-12  1.0027236e-11  8.1000093      12.150014      16.200035      1594.3301    
        25   0             -322.56        -0.78968408    -0.61554771    -0.61554771    -1.1379568      5.4939764e-12  1.6372546e-11 -7.171775e-12   8.1000093      12.150014      16.200035      1594.3301    
        26   0             -322.56        -0.78968408    -0.61554771    -0.61554771    -1.1379568     -8.8962612e-12 -7.4162963e-12 -1.4737527e-11  8.1000093      12.150014      16.200035      1594.3301    
        27   0             -322.56        -0.78968408    -0.61554771    -0.61554771    -1.1379568     -9.7798456e-12  4.4713329e-12 -1.9594252e-12  8.1000093      12.150014      16.200035      1594.3301    
Loop time of 0.00701 on 1 procs for 25 steps with 96 atoms

0.0% CPU use with 1 MPI tasks x 1 OpenMP threads

Minimization stats:
  Stopping criterion = force tolerance
  Energy initial, next-to-last, final = 
     -322.559998842557  -322.559998865078  -322.559998865079
  Force two-norm initial, final = 0.00051426187 5.5582433e-11
  Force max component initial, final = 7.9678192e-05 8.2415273e-12
  Final line search alpha, max atom move = 1 8.2415273e-12
  Iterations, force evaluations = 25 50

MPI task timing breakdown:
Section |  min time  |  avg time  |  max time  |%varavg| %total
---------------------------------------------------------------
Pair    | 0.006569   | 0.006569   | 0.006569   |   0.0 | 93.71
Neigh   | 0          | 0          | 0          |   0.0 |  0.00
Comm    | 0.00013    | 0.00013    | 0.00013    |   0.0 |  1.85
Output  | 0.000207   | 0.000207   | 0.000207   |   0.0 |  2.95
Modify  | 0          | 0          | 0          |   0.0 |  0.00
Other   |            | 0.000104   |            |       |  1.48

Nlocal:             96 ave          96 max          96 min
Histogram: 1 0 0 0 0 0 0 0 0 0
Nghost:            976 ave         976 max         976 min
Histogram: 1 0 0 0 0 0 0 0 0 0
Neighs:           4128 ave        4128 max        4128 min
Histogram: 1 0 0 0 0 0 0 0 0 0

Total # of neighbors = 4128
Ave neighs/atom = 43
Neighbor list builds = 0
Dangerous builds = 0
OMP_NUM_THREADS environment is not set. Defaulting to 1 thread. (src/comm.cpp:98)
  using 1 OpenMP thread(s) per MPI task
Loaded 1 plugins from F:\Lammps\LAMMPS 64-bit 2Aug2023\plugins

The 'box' command has been removed and will be ignored

Reading restart file ...
  restart file = 2 Aug 2023, LAMMPS = 2 Aug 2023
  restoring atom style atomic from restart
  triclinic box = (-4.6617854e-06 -6.9926781e-06 -9.3235709e-06) to (8.1000047 12.150007 16.200009) with tilt (0 0 0)
  1 by 1 by 1 MPI processor grid
  pair style eam/alloy stores no restart info
  96 atoms
  read_restart CPU = 0.000 seconds
Changing box ...
  triclinic box = (-4.6617854e-06 -6.9926781e-06 -9.3235709e-06) to (8.1000047 12.150007 16.200009) with tilt (0 0 -1.6200019e-05)
Neighbor list info ...
  update: every = 1 steps, delay = 0 steps, check = yes
  max neighbors/atom: 2000, page size: 100000
  master list distance cutoff = 7.28721
  ghost atom cutoff = 7.28721
  1 neighbor lists, perpetual/occasional/extra = 1 0 0
  (1) pair eam/alloy, perpetual
      attributes: half, newton on
      pair build: half/nsq/newton
      stencil: none
      bin: none
Setting up cg style minimization ...
  Unit style    : metal
  Current step  : 2
Per MPI rank memory allocation (min/avg/max) = 4.447 | 4.447 | 4.447 Mbytes
   Step          Temp          PotEng         Press           Pxx            Pyy            Pzz            Pxy            Pxz            Pyz             Lx             Ly             Lz           Volume    
         2   0             -322.56         2.5730619e-05  2.4934032e-05  2.3875959e-05  2.8381866e-05  7.9868666e-07  3.198329e-06   0.31594747     8.1000093      12.150014      16.200019      1594.3285    
         3   0             -322.56         3.9377183e-06  4.0691829e-06  3.1237539e-06  4.6202182e-06 -2.5755463e-07 -5.3875772e-07  0.31594531     8.1000093      12.150014      16.200019      1594.3285    
         4   0             -322.56         9.9170016e-07  1.0867451e-06  5.7990216e-07  1.3084533e-06 -9.8331281e-08  9.4894551e-08  0.31594584     8.1000093      12.150014      16.200019      1594.3285    
         5   0             -322.56         3.6026299e-07  4.5201823e-07  8.3643488e-08  5.4512726e-07 -2.7293664e-08 -5.0747433e-09  0.31594576     8.1000093      12.150014      16.200019      1594.3285    
         6   0             -322.56         2.3228068e-07  3.0426709e-07 -3.137646e-09   3.9571258e-07 -4.4659469e-08 -1.5429671e-09  0.31594575     8.1000093      12.150014      16.200019      1594.3285    
         7   0             -322.56         2.031944e-07   2.8451248e-07 -3.3594252e-08  3.5866498e-07 -2.9801798e-08  9.2409967e-10  0.31594575     8.1000093      12.150014      16.200019      1594.3285    
         8   0             -322.56         1.8653811e-07  2.7265525e-07 -5.0957953e-08  3.3791703e-07 -1.5069276e-08 -1.0767545e-09  0.31594575     8.1000093      12.150014      16.200019      1594.3285    
         9   0             -322.56         1.7564768e-07  2.6342626e-07 -5.8281123e-08  3.2179791e-07 -6.8373634e-09 -2.1087482e-10  0.31594575     8.1000093      12.150014      16.200019      1594.3285    
        10   0             -322.56         1.6981584e-07  2.5769831e-07 -6.0840721e-08  3.1258994e-07 -2.3019589e-09  5.2978523e-10  0.31594575     8.1000093      12.150014      16.200019      1594.3285    
        11   0             -322.56         1.6760372e-07  2.5587199e-07 -6.1961335e-08  3.089005e-07  -6.7748607e-10  3.7675199e-11  0.31594575     8.1000093      12.150014      16.200019      1594.3285    
        12   0             -322.56         1.6687481e-07  2.5527012e-07 -6.2639642e-08  3.0799395e-07 -2.7949535e-10  1.0450934e-11  0.31594575     8.1000093      12.150014      16.200019      1594.3285    
        13   0             -322.56         1.6651763e-07  2.5503773e-07 -6.3095077e-08  3.0761024e-07 -3.3448447e-11  2.5042367e-11  0.31594575     8.1000093      12.150014      16.200019      1594.3285    
        14   0             -322.56         1.6636694e-07  2.5490412e-07 -6.32138e-08    3.0741049e-07 -1.0739207e-11 -4.7166172e-12  0.31594575     8.1000093      12.150014      16.200019      1594.3285    
        15   0             -322.56         1.6629324e-07  2.5484994e-07 -6.3288464e-08  3.0731824e-07 -1.4316863e-11 -1.6512099e-11  0.31594575     8.1000093      12.150014      16.200019      1594.3285    
        16   0             -322.56         1.6630408e-07  2.5483845e-07 -6.3291978e-08  3.0736575e-07 -5.1841208e-12  1.013849e-11   0.31594575     8.1000093      12.150014      16.200019      1594.3285    
        17   0             -322.56         1.6627334e-07  2.5480865e-07 -6.332615e-08   3.0733751e-07 -8.7540933e-12  9.3962399e-12  0.31594575     8.1000093      12.150014      16.200019      1594.3285    
        18   0             -322.56         1.6625249e-07  2.5479381e-07 -6.3352825e-08  3.0731648e-07 -8.8118719e-12 -1.0798425e-11  0.31594575     8.1000093      12.150014      16.200019      1594.3285    
        19   0             -322.56         1.6626539e-07  2.5481518e-07 -6.3340253e-08  3.0732123e-07  4.4201898e-12 -2.9600248e-11  0.31594575     8.1000093      12.150014      16.200019      1594.3285    
        20   0             -322.56         1.6626026e-07  2.5480754e-07 -6.3345437e-08  3.0731867e-07 -1.0142279e-12 -1.5836114e-11  0.31594575     8.1000093      12.150014      16.200019      1594.3285    
        21   0             -322.56         1.6630737e-07  2.5484045e-07 -6.3269664e-08  3.0735134e-07 -3.4558751e-12  1.2309702e-11  0.31594575     8.1000093      12.150014      16.200019      1594.3285    
        22   0             -322.56         1.6625966e-07  2.5481311e-07 -6.3350635e-08  3.0731652e-07 -8.0932484e-12  2.1595874e-11  0.31594575     8.1000093      12.150014      16.200019      1594.3285    
        23   0             -322.56         1.6625805e-07  2.5480066e-07 -6.3308428e-08  3.0728192e-07  7.9080494e-12 -1.7297581e-11  0.31594575     8.1000093      12.150014      16.200019      1594.3285    
        24   0             -322.56         1.6625993e-07  2.5481034e-07 -6.331955e-08   3.0728899e-07  2.5634674e-12 -1.7075853e-11  0.31594575     8.1000093      12.150014      16.200019      1594.3285    
        25   0             -322.56         1.6626209e-07  2.5482197e-07 -6.3332579e-08  3.0729689e-07  1.1091742e-11  3.6582755e-12  0.31594575     8.1000093      12.150014      16.200019      1594.3285    
        26   0             -322.56         1.6627909e-07  2.5481304e-07 -6.3287923e-08  3.0731215e-07  1.0702547e-11 -1.2454298e-11  0.31594575     8.1000093      12.150014      16.200019      1594.3285    
        27   0             -322.56         1.6628001e-07  2.5485062e-07 -6.3325724e-08  3.0731513e-07 -1.0524371e-11 -9.9265045e-12  0.31594575     8.1000093      12.150014      16.200019      1594.3285    
Loop time of 0.007199 on 1 procs for 25 steps with 96 atoms

0.0% CPU use with 1 MPI tasks x 1 OpenMP threads

Minimization stats:
  Stopping criterion = force tolerance
  Energy initial, next-to-last, final = 
     -322.559998842965  -322.559998865487  -322.559998865487
  Force two-norm initial, final = 0.00051426272 5.9398778e-11
  Force max component initial, final = 7.9678288e-05 8.9407488e-12
  Final line search alpha, max atom move = 1 8.9407488e-12
  Iterations, force evaluations = 25 50

MPI task timing breakdown:
Section |  min time  |  avg time  |  max time  |%varavg| %total
---------------------------------------------------------------
Pair    | 0.006707   | 0.006707   | 0.006707   |   0.0 | 93.17
Neigh   | 0          | 0          | 0          |   0.0 |  0.00
Comm    | 0.000126   | 0.000126   | 0.000126   |   0.0 |  1.75
Output  | 0.000225   | 0.000225   | 0.000225   |   0.0 |  3.13
Modify  | 0          | 0          | 0          |   0.0 |  0.00
Other   |            | 0.000141   |            |       |  1.96

Nlocal:             96 ave          96 max          96 min
Histogram: 1 0 0 0 0 0 0 0 0 0
Nghost:            976 ave         976 max         976 min
Histogram: 1 0 0 0 0 0 0 0 0 0
Neighs:           4128 ave        4128 max        4128 min
Histogram: 1 0 0 0 0 0 0 0 0 0

Total # of neighbors = 4128
Ave neighs/atom = 43
Neighbor list builds = 0
Dangerous builds = 0
OMP_NUM_THREADS environment is not set. Defaulting to 1 thread. (src/comm.cpp:98)
  using 1 OpenMP thread(s) per MPI task
Loaded 1 plugins from F:\Lammps\LAMMPS 64-bit 2Aug2023\plugins

The 'box' command has been removed and will be ignored

Reading restart file ...
  restart file = 2 Aug 2023, LAMMPS = 2 Aug 2023
  restoring atom style atomic from restart
  triclinic box = (-4.6617854e-06 -6.9926781e-06 -9.3235709e-06) to (8.1000047 12.150007 16.200009) with tilt (0 0 0)
  1 by 1 by 1 MPI processor grid
  pair style eam/alloy stores no restart info
  96 atoms
  read_restart CPU = 0.000 seconds
Changing box ...
  triclinic box = (-4.6617854e-06 -6.9926781e-06 -9.3235709e-06) to (8.1000047 12.150007 16.200009) with tilt (0 0 1.6200019e-05)
Neighbor list info ...
  update: every = 1 steps, delay = 0 steps, check = yes
  max neighbors/atom: 2000, page size: 100000
  master list distance cutoff = 7.28721
  ghost atom cutoff = 7.28721
  1 neighbor lists, perpetual/occasional/extra = 1 0 0
  (1) pair eam/alloy, perpetual
      attributes: half, newton on
      pair build: half/nsq/newton
      stencil: none
      bin: none
Setting up cg style minimization ...
  Unit style    : metal
  Current step  : 2
Per MPI rank memory allocation (min/avg/max) = 4.447 | 4.447 | 4.447 Mbytes
   Step          Temp          PotEng         Press           Pxx            Pyy            Pzz            Pxy            Pxz            Pyz             Lx             Ly             Lz           Volume    
         2   0             -322.56         2.5730718e-05  2.4934137e-05  2.387607e-05   2.8381947e-05  7.9870562e-07  3.1983152e-06 -0.31594403     8.1000093      12.150014      16.200019      1594.3285    
         3   0             -322.56         3.9377164e-06  4.0691678e-06  3.1237648e-06  4.6202167e-06 -2.5755575e-07 -5.3873795e-07 -0.3159462      8.1000093      12.150014      16.200019      1594.3285    
         4   0             -322.56         9.917139e-07   1.0867218e-06  5.7993751e-07  1.3084824e-06 -9.832212e-08   9.4902332e-08 -0.31594566     8.1000093      12.150014      16.200019      1594.3285    
         5   0             -322.56         3.602355e-07   4.5195835e-07  8.3619751e-08  5.4512841e-07 -2.7311283e-08 -5.092007e-09  -0.31594574     8.1000093      12.150014      16.200019      1594.3285    
         6   0             -322.56         2.3224723e-07  3.0423457e-07 -3.1664726e-09  3.9567359e-07 -4.4634337e-08 -1.5907316e-09 -0.31594575     8.1000093      12.150014      16.200019      1594.3285    
         7   0             -322.56         2.032292e-07   2.8456178e-07 -3.3581704e-08  3.5870752e-07 -2.9816553e-08  9.1437179e-10 -0.31594575     8.1000093      12.150014      16.200019      1594.3285    
         8   0             -322.56         1.8651076e-07  2.7266052e-07 -5.0973042e-08  3.3784481e-07 -1.5073674e-08 -1.0539705e-09 -0.31594575     8.1000093      12.150014      16.200019      1594.3285    
         9   0             -322.56         1.7564656e-07  2.6340493e-07 -5.829266e-08   3.218274e-07  -6.8336145e-09 -1.9642173e-10 -0.31594575     8.1000093      12.150014      16.200019      1594.3285    
        10   0             -322.56         1.6981246e-07  2.576979e-07  -6.0824069e-08  3.1256356e-07 -2.2881076e-09  5.0996244e-10 -0.31594575     8.1000093      12.150014      16.200019      1594.3285    
        11   0             -322.56         1.6758691e-07  2.5582399e-07 -6.1968096e-08  3.0890482e-07 -6.7822e-10     2.2083221e-11 -0.31594575     8.1000093      12.150014      16.200019      1594.3285    
        12   0             -322.56         1.6686144e-07  2.5522794e-07 -6.2651497e-08  3.0800786e-07 -2.9144572e-10  1.1410353e-11 -0.31594575     8.1000093      12.150014      16.200019      1594.3285    
        13   0             -322.56         1.6649585e-07  2.5499847e-07 -6.3098026e-08  3.075871e-07  -2.2672336e-11  3.2293764e-11 -0.31594575     8.1000093      12.150014      16.200019      1594.3285    
        14   0             -322.56         1.6636961e-07  2.549015e-07  -6.3201914e-08  3.0740925e-07 -1.4498797e-11  8.7546398e-12 -0.31594575     8.1000093      12.150014      16.200019      1594.3285    
        15   0             -322.56         1.6629938e-07  2.5482649e-07 -6.3282415e-08  3.0735407e-07 -1.0774513e-11  7.6442975e-12 -0.31594575     8.1000093      12.150014      16.200019      1594.3285    
        16   0             -322.56         1.6630356e-07  2.5482453e-07 -6.3300883e-08  3.0738703e-07  2.8590482e-12 -2.8279188e-11 -0.31594575     8.1000093      12.150014      16.200019      1594.3285    
        17   0             -322.56         1.66312e-07    2.5484263e-07 -6.3289053e-08  3.0738244e-07  7.8147584e-13  2.0195107e-11 -0.31594575     8.1000093      12.150014      16.200019      1594.3285    
        18   0             -322.56         1.6631786e-07  2.5483982e-07 -6.3243847e-08  3.0735761e-07 -7.2766549e-13 -1.4145256e-13 -0.31594575     8.1000093      12.150014      16.200019      1594.3285    
        19   0             -322.56         1.6625995e-07  2.548047e-07  -6.3336219e-08  3.0731137e-07  7.3603612e-12  1.1412427e-12 -0.31594575     8.1000093      12.150014      16.200019      1594.3285    
        20   0             -322.56         1.662945e-07   2.5485264e-07 -6.3308759e-08  3.0733963e-07 -6.8604752e-13  1.6780325e-11 -0.31594575     8.1000093      12.150014      16.200019      1594.3285    
        21   0             -322.56         1.662945e-07   2.5481729e-07 -6.3301807e-08  3.0736801e-07  2.8912941e-12  8.852583e-13  -0.31594575     8.1000093      12.150014      16.200019      1594.3285    
        22   0             -322.56         1.6624644e-07  2.5479583e-07 -6.335256e-08   3.0729606e-07  1.684754e-12  -9.7232933e-12 -0.31594575     8.1000093      12.150014      16.200019      1594.3285    
        23   0             -322.56         1.6628539e-07  2.5483816e-07 -6.3306018e-08  3.0732402e-07 -2.6107618e-12  5.504577e-12  -0.31594575     8.1000093      12.150014      16.200019      1594.3285    
        24   0             -322.56         1.6628162e-07  2.5481053e-07 -6.331014e-08   3.0734447e-07 -8.5884972e-12 -1.1628881e-11 -0.31594575     8.1000093      12.150014      16.200019      1594.3285    
        25   0             -322.56         1.6628882e-07  2.548482e-07  -6.3321443e-08  3.073397e-07   1.3990225e-12 -3.2150605e-11 -0.31594575     8.1000093      12.150014      16.200019      1594.3285    
        26   0             -322.56         1.6628842e-07  2.5482147e-07 -6.3304237e-08  3.0734804e-07 -4.9615918e-12 -2.0576792e-12 -0.31594575     8.1000093      12.150014      16.200019      1594.3285    
        27   0             -322.56         1.6625398e-07  2.5479181e-07 -6.3335305e-08  3.0730543e-07  4.5644402e-12  9.9172874e-13 -0.31594575     8.1000093      12.150014      16.200019      1594.3285    
Loop time of 0.007524 on 1 procs for 25 steps with 96 atoms

207.7% CPU use with 1 MPI tasks x 1 OpenMP threads

Minimization stats:
  Stopping criterion = force tolerance
  Energy initial, next-to-last, final = 
     -322.559998842967  -322.559998865486  -322.559998865487
  Force two-norm initial, final = 0.00051426259 5.6263281e-11
  Force max component initial, final = 7.9678339e-05 9.0003421e-12
  Final line search alpha, max atom move = 1 9.0003421e-12
  Iterations, force evaluations = 25 50

MPI task timing breakdown:
Section |  min time  |  avg time  |  max time  |%varavg| %total
---------------------------------------------------------------
Pair    | 0.007001   | 0.007001   | 0.007001   |   0.0 | 93.05
Neigh   | 0          | 0          | 0          |   0.0 |  0.00
Comm    | 0.00014    | 0.00014    | 0.00014    |   0.0 |  1.86
Output  | 0.000262   | 0.000262   | 0.000262   |   0.0 |  3.48
Modify  | 0          | 0          | 0          |   0.0 |  0.00
Other   |            | 0.000121   |            |       |  1.61

Nlocal:             96 ave          96 max          96 min
Histogram: 1 0 0 0 0 0 0 0 0 0
Nghost:            976 ave         976 max         976 min
Histogram: 1 0 0 0 0 0 0 0 0 0
Neighs:           4128 ave        4128 max        4128 min
Histogram: 1 0 0 0 0 0 0 0 0 0

Total # of neighbors = 4128
Ave neighs/atom = 43
Neighbor list builds = 0
Dangerous builds = 0
OMP_NUM_THREADS environment is not set. Defaulting to 1 thread. (src/comm.cpp:98)
  using 1 OpenMP thread(s) per MPI task
Loaded 1 plugins from F:\Lammps\LAMMPS 64-bit 2Aug2023\plugins

The 'box' command has been removed and will be ignored

Reading restart file ...
  restart file = 2 Aug 2023, LAMMPS = 2 Aug 2023
  restoring atom style atomic from restart
  triclinic box = (-4.6617854e-06 -6.9926781e-06 -9.3235709e-06) to (8.1000047 12.150007 16.200009) with tilt (0 0 0)
  1 by 1 by 1 MPI processor grid
  pair style eam/alloy stores no restart info
  96 atoms
  read_restart CPU = 0.000 seconds
Changing box ...
  triclinic box = (-4.6617854e-06 -6.9926781e-06 -9.3235709e-06) to (8.1000047 12.150007 16.200009) with tilt (0 -1.6200019e-05 0)
Neighbor list info ...
  update: every = 1 steps, delay = 0 steps, check = yes
  max neighbors/atom: 2000, page size: 100000
  master list distance cutoff = 7.28721
  ghost atom cutoff = 7.28721
  1 neighbor lists, perpetual/occasional/extra = 1 0 0
  (1) pair eam/alloy, perpetual
      attributes: half, newton on
      pair build: half/nsq/newton
      stencil: none
      bin: none
Setting up cg style minimization ...
  Unit style    : metal
  Current step  : 2
Per MPI rank memory allocation (min/avg/max) = 4.447 | 4.447 | 4.447 Mbytes
   Step          Temp          PotEng         Press           Pxx            Pyy            Pzz            Pxy            Pxz            Pyz             Lx             Ly             Lz           Volume    
         2   0             -322.56         2.5730631e-05  2.4615865e-05  2.4194134e-05  2.8381893e-05  7.9868686e-07  0.31594895     1.7198679e-06  8.1000093      12.150014      16.200019      1594.3285    
         3   0             -322.56         3.937748e-06   3.751053e-06   3.4419669e-06  4.6202242e-06 -2.5755256e-07  0.31594521    -4.4543468e-07  8.1000093      12.150014      16.200019      1594.3285    
         4   0             -322.56         9.9174364e-07  7.68592e-07    8.981466e-07   1.3084923e-06 -9.8324175e-08  0.31594585     8.8468734e-08  8.1000093      12.150014      16.200019      1594.3285    
         5   0             -322.56         3.6018595e-07  1.3374501e-07  4.017429e-07   5.4506994e-07 -2.7290788e-08  0.31594575     1.072065e-08   8.1000093      12.150014      16.200019      1594.3285    
         6   0             -322.56         2.3228795e-07 -1.3889287e-08  3.1503725e-07  3.957159e-07  -4.4651474e-08  0.31594575     2.072394e-09   8.1000093      12.150014      16.200019      1594.3285    
         7   0             -322.56         2.031947e-07  -3.3677384e-08  2.8458716e-07  3.5867433e-07 -2.9813448e-08  0.31594575    -4.49047e-10    8.1000093      12.150014      16.200019      1594.3285    
         8   0             -322.56         1.8652817e-07 -4.550638e-08   2.6720749e-07  3.3788341e-07 -1.505584e-08   0.31594575    -1.3434279e-10  8.1000093      12.150014      16.200019      1594.3285    
         9   0             -322.56         1.7564432e-07 -5.4759923e-08  2.5990441e-07  3.2178849e-07 -6.8507822e-09  0.31594575    -5.4969252e-10  8.1000093      12.150014      16.200019      1594.3285    
        10   0             -322.56         1.6983086e-07 -6.0459891e-08  2.5736917e-07  3.1258331e-07 -2.2858983e-09  0.31594575    -3.9178083e-10  8.1000093      12.150014      16.200019      1594.3285    
        11   0             -322.56         1.6762383e-07 -6.229771e-08   2.5621593e-07  3.0895328e-07 -6.9462369e-10  0.31594575    -7.7875025e-11  8.1000093      12.150014      16.200019      1594.3285    
        12   0             -322.56         1.6686816e-07 -6.2913138e-08  2.5551921e-07  3.0799842e-07 -2.9362089e-10  0.31594575     2.3893157e-11  8.1000093      12.150014      16.200019      1594.3285    
        13   0             -322.56         1.6646224e-07 -6.3189881e-08  2.550602e-07   3.0751641e-07 -2.9893285e-11  0.31594575    -7.4053793e-12  8.1000093      12.150014      16.200019      1594.3285    
        14   0             -322.56         1.6635251e-07 -6.3291272e-08  2.5490328e-07  3.0744552e-07 -3.2397663e-11  0.31594575     5.484304e-12   8.1000093      12.150014      16.200019      1594.3285    
        15   0             -322.56         1.6630348e-07 -6.3317489e-08  2.5488199e-07  3.0734593e-07 -7.0630558e-12  0.31594575    -1.2293488e-11  8.1000093      12.150014      16.200019      1594.3285    
        16   0             -322.56         1.6627524e-07 -6.3382939e-08  2.5486581e-07  3.0734286e-07 -4.9277234e-12  0.31594575    -6.6174247e-12  8.1000093      12.150014      16.200019      1594.3285    
        17   0             -322.56         1.6626658e-07 -6.3353663e-08  2.5482733e-07  3.0732608e-07 -8.6949946e-12  0.31594575     1.9392053e-11  8.1000093      12.150014      16.200019      1594.3285    
        18   0             -322.56         1.6626977e-07 -6.3365604e-08  2.5484334e-07  3.0733158e-07 -5.0110609e-14  0.31594575    -5.0415153e-12  8.1000093      12.150014      16.200019      1594.3285    
        19   0             -322.56         1.6628173e-07 -6.3360006e-08  2.548771e-07   3.073281e-07  -7.9774455e-12  0.31594575     1.7537221e-12  8.1000093      12.150014      16.200019      1594.3285    
        20   0             -322.56         1.6627348e-07 -6.3389235e-08  2.5487639e-07  3.0733328e-07 -8.5974177e-12  0.31594575     1.5532469e-11  8.1000093      12.150014      16.200019      1594.3285    
        21   0             -322.56         1.6628359e-07 -6.3367036e-08  2.5487106e-07  3.0734675e-07  1.8262404e-11  0.31594575    -1.4102994e-11  8.1000093      12.150014      16.200019      1594.3285    
        22   0             -322.56         1.6631614e-07 -6.3359644e-08  2.5490065e-07  3.0740741e-07  1.3545916e-11  0.31594575    -1.9444351e-11  8.1000093      12.150014      16.200019      1594.3285    
        23   0             -322.56         1.6628347e-07 -6.3356234e-08  2.5489931e-07  3.0730732e-07 -1.6796705e-12  0.31594575     1.5706796e-11  8.1000093      12.150014      16.200019      1594.3285    
        24   0             -322.56         1.6628362e-07 -6.3344641e-08  2.5486993e-07  3.0732558e-07  6.1312708e-12  0.31594575     3.6305186e-11  8.1000093      12.150014      16.200019      1594.3285    
        25   0             -322.56         1.6628799e-07 -6.333656e-08   2.5485919e-07  3.0734133e-07  1.0683584e-11  0.31594575     1.1686832e-11  8.1000093      12.150014      16.200019      1594.3285    
        26   0             -322.56         1.6628521e-07 -6.3337626e-08  2.5485203e-07  3.0734121e-07  1.8886485e-12  0.31594575     1.6641184e-11  8.1000093      12.150014      16.200019      1594.3285    
        27   0             -322.56         1.6627704e-07 -6.3357046e-08  2.5485989e-07  3.0732827e-07  2.7378888e-12  0.31594575     6.0665537e-13  8.1000093      12.150014      16.200019      1594.3285    
Loop time of 0.007497 on 1 procs for 25 steps with 96 atoms

208.4% CPU use with 1 MPI tasks x 1 OpenMP threads

Minimization stats:
  Stopping criterion = force tolerance
  Energy initial, next-to-last, final = 
     -322.559998842965  -322.559998865486  -322.559998865488
  Force two-norm initial, final = 0.00051426276 6.1318928e-11
  Force max component initial, final = 7.9678282e-05 9.5486154e-12
  Final line search alpha, max atom move = 1 9.5486154e-12
  Iterations, force evaluations = 25 50

MPI task timing breakdown:
Section |  min time  |  avg time  |  max time  |%varavg| %total
---------------------------------------------------------------
Pair    | 0.006947   | 0.006947   | 0.006947   |   0.0 | 92.66
Neigh   | 0          | 0          | 0          |   0.0 |  0.00
Comm    | 0.000178   | 0.000178   | 0.000178   |   0.0 |  2.37
Output  | 0.000258   | 0.000258   | 0.000258   |   0.0 |  3.44
Modify  | 0          | 0          | 0          |   0.0 |  0.00
Other   |            | 0.000114   |            |       |  1.52

Nlocal:             96 ave          96 max          96 min
Histogram: 1 0 0 0 0 0 0 0 0 0
Nghost:            976 ave         976 max         976 min
Histogram: 1 0 0 0 0 0 0 0 0 0
Neighs:           4128 ave        4128 max        4128 min
Histogram: 1 0 0 0 0 0 0 0 0 0

Total # of neighbors = 4128
Ave neighs/atom = 43
Neighbor list builds = 0
Dangerous builds = 0
OMP_NUM_THREADS environment is not set. Defaulting to 1 thread. (src/comm.cpp:98)
  using 1 OpenMP thread(s) per MPI task
Loaded 1 plugins from F:\Lammps\LAMMPS 64-bit 2Aug2023\plugins

The 'box' command has been removed and will be ignored

Reading restart file ...
  restart file = 2 Aug 2023, LAMMPS = 2 Aug 2023
  restoring atom style atomic from restart
  triclinic box = (-4.6617854e-06 -6.9926781e-06 -9.3235709e-06) to (8.1000047 12.150007 16.200009) with tilt (0 0 0)
  1 by 1 by 1 MPI processor grid
  pair style eam/alloy stores no restart info
  96 atoms
  read_restart CPU = 0.000 seconds
Changing box ...
  triclinic box = (-4.6617854e-06 -6.9926781e-06 -9.3235709e-06) to (8.1000047 12.150007 16.200009) with tilt (0 1.6200019e-05 0)
Neighbor list info ...
  update: every = 1 steps, delay = 0 steps, check = yes
  max neighbors/atom: 2000, page size: 100000
  master list distance cutoff = 7.28721
  ghost atom cutoff = 7.28721
  1 neighbor lists, perpetual/occasional/extra = 1 0 0
  (1) pair eam/alloy, perpetual
      attributes: half, newton on
      pair build: half/nsq/newton
      stencil: none
      bin: none
Setting up cg style minimization ...
  Unit style    : metal
  Current step  : 2
Per MPI rank memory allocation (min/avg/max) = 4.447 | 4.447 | 4.447 Mbytes
[...]
        26   0             -322.56         1.6628934e-07 -6.3329746e-08  2.5486647e-07  3.0733131e-07  5.8160277e-12 -0.31594575    -1.4078588e-11  8.1000093      12.150014      16.200019      1594.3285    
        27   0             -322.56         1.6624505e-07 -6.3373108e-08  2.5482128e-07  3.0728696e-07  9.0055432e-13 -0.31594575     7.9597368e-12  8.1000093      12.150014      16.200019      1594.3285    
Loop time of 0.007019 on 1 procs for 25 steps with 96 atoms

0.0% CPU use with 1 MPI tasks x 1 OpenMP threads

Minimization stats:
  Stopping criterion = force tolerance
  Energy initial, next-to-last, final = 
     -322.559998842965  -322.559998865487  -322.559998865488
  Force two-norm initial, final = 0.00051426255 5.6905868e-11
  Force max component initial, final = 7.9678345e-05 8.3351104e-12
  Final line search alpha, max atom move = 1 8.3351104e-12
  Iterations, force evaluations = 25 50

MPI task timing breakdown:
Section |  min time  |  avg time  |  max time  |%varavg| %total
---------------------------------------------------------------
Pair    | 0.006559   | 0.006559   | 0.006559   |   0.0 | 93.45
Neigh   | 0          | 0          | 0          |   0.0 |  0.00
Comm    | 0.000133   | 0.000133   | 0.000133   |   0.0 |  1.89
Output  | 0.00022    | 0.00022    | 0.00022    |   0.0 |  3.13
Modify  | 0          | 0          | 0          |   0.0 |  0.00
Other   |            | 0.000107   |            |       |  1.52

Nlocal:             96 ave          96 max          96 min
Histogram: 1 0 0 0 0 0 0 0 0 0
Nghost:            976 ave         976 max         976 min
Histogram: 1 0 0 0 0 0 0 0 0 0
Neighs:           4128 ave        4128 max        4128 min
Histogram: 1 0 0 0 0 0 0 0 0 0

Total # of neighbors = 4128
Ave neighs/atom = 43
Neighbor list builds = 0
Dangerous builds = 0
OMP_NUM_THREADS environment is not set. Defaulting to 1 thread. (src/comm.cpp:98)
  using 1 OpenMP thread(s) per MPI task
Loaded 1 plugins from F:\Lammps\LAMMPS 64-bit 2Aug2023\plugins

The 'box' command has been removed and will be ignored

Reading restart file ...
  restart file = 2 Aug 2023, LAMMPS = 2 Aug 2023
  restoring atom style atomic from restart
  triclinic box = (-4.6617854e-06 -6.9926781e-06 -9.3235709e-06) to (8.1000047 12.150007 16.200009) with tilt (0 0 0)
  1 by 1 by 1 MPI processor grid
  pair style eam/alloy stores no restart info
  96 atoms
  read_restart CPU = 0.000 seconds
Changing box ...
  triclinic box = (-4.6617854e-06 -6.9926781e-06 -9.3235709e-06) to (8.1000047 12.150007 16.200009) with tilt (-1.2150014e-05 0 0)
Neighbor list info ...
  update: every = 1 steps, delay = 0 steps, check = yes
  max neighbors/atom: 2000, page size: 100000
  master list distance cutoff = 7.28721
  ghost atom cutoff = 7.28721
  1 neighbor lists, perpetual/occasional/extra = 1 0 0
  (1) pair eam/alloy, perpetual
      attributes: half, newton on
      pair build: half/nsq/newton
      stencil: none
      bin: none
Setting up cg style minimization ...
  Unit style    : metal
  Current step  : 2
Per MPI rank memory allocation (min/avg/max) = 4.447 | 4.447 | 4.447 Mbytes
   Step          Temp          PotEng         Press           Pxx            Pyy            Pzz            Pxy            Pxz            Pyz             Lx             Ly             Lz           Volume    
         2   0             -322.56         2.5730715e-05  2.4615966e-05  2.4246711e-05  2.8329469e-05  0.31594655     3.1983219e-06  1.7198884e-06  8.1000093      12.150014      16.200019      1594.3285    
         3   0             -322.56         3.9377414e-06  3.7510281e-06  3.4945086e-06  4.5676877e-06  0.31594549    -5.3872441e-07 -4.453919e-07   8.1000093      12.150014      16.200019      1594.3285    
         4   0             -322.56         9.9175021e-07  7.6859526e-07  9.5068165e-07  1.2559737e-06  0.31594565     9.4891126e-08  8.8444611e-08  8.1000093      12.150014      16.200019      1594.3285    
         5   0             -322.56         3.6023311e-07  1.3378861e-07  4.54336e-07    4.9257471e-07  0.31594572    -5.1206926e-09  1.0709015e-08  8.1000093      12.150014      16.200019      1594.3285    
         6   0             -322.56         2.3224896e-07 -1.3931248e-08  3.6747974e-07  3.4319838e-07  0.31594571    -1.5740924e-09  2.0528799e-09  8.1000093      12.150014      16.200019      1594.3285    
         7   0             -322.56         2.0321978e-07 -3.3646249e-08  3.3714569e-07  3.0615991e-07  0.31594572     9.2775588e-10 -4.4261088e-10  8.1000093      12.150014      16.200019      1594.3285    
         8   0             -322.56         1.8655086e-07 -4.5493002e-08  3.1976683e-07  2.8537877e-07  0.31594574    -1.0768768e-09 -1.317767e-10   8.1000093      12.150014      16.200019      1594.3285    
         9   0             -322.56         1.7567085e-07 -5.473618e-08   3.1242825e-07  2.6932047e-07  0.31594574    -1.9412238e-10 -5.2686276e-10  8.1000093      12.150014      16.200019      1594.3285    
        10   0             -322.56         1.6981453e-07 -6.0452678e-08  3.098433e-07   2.6005298e-07  0.31594575     5.167861e-10  -3.9928034e-10  8.1000093      12.150014      16.200019      1594.3285    
        11   0             -322.56         1.6759744e-07 -6.2314588e-08  3.0871373e-07  2.5639319e-07  0.31594575     6.4094989e-11 -9.5032215e-11  8.1000093      12.150014      16.200019      1594.3285    
        12   0             -322.56         1.6684703e-07 -6.2913198e-08  3.079815e-07   2.5547279e-07  0.31594575     1.3202883e-11  2.9115971e-11  8.1000093      12.150014      16.200019      1594.3285    
        13   0             -322.56         1.6650764e-07 -6.3133455e-08  3.0761565e-07  2.5504073e-07  0.31594575     6.1813829e-12  3.4258596e-11  8.1000093      12.150014      16.200019      1594.3285    
        14   0             -322.56         1.6638371e-07 -6.3243213e-08  3.0750202e-07  2.5489234e-07  0.31594575     4.3464887e-12 -2.3589829e-11  8.1000093      12.150014      16.200019      1594.3285    
        15   0             -322.56         1.6630421e-07 -6.3325232e-08  3.0739108e-07  2.5484678e-07  0.31594575    -1.1208177e-11 -3.161581e-11   8.1000093      12.150014      16.200019      1594.3285    
        16   0             -322.56         1.6630339e-07 -6.3355594e-08  3.0741194e-07  2.5485382e-07  0.31594575    -1.4828419e-11 -3.957206e-12   8.1000093      12.150014      16.200019      1594.3285    
        17   0             -322.56         1.6624022e-07 -6.3370754e-08  3.0732037e-07  2.5477104e-07  0.31594575     1.1860665e-11 -5.5923863e-12  8.1000093      12.150014      16.200019      1594.3285    
        18   0             -322.56         1.6624705e-07 -6.3376116e-08  3.0732974e-07  2.5478752e-07  0.31594575     1.1178155e-12 -3.1661135e-11  8.1000093      12.150014      16.200019      1594.3285    
        19   0             -322.56         1.6626666e-07 -6.3379385e-08  3.0737213e-07  2.5480725e-07  0.31594575    -1.1441444e-12 -4.5708344e-12  8.1000093      12.150014      16.200019      1594.3285    
        20   0             -322.56         1.6628864e-07 -6.3356001e-08  3.0740155e-07  2.5482037e-07  0.31594575    -2.0208671e-11 -4.3790755e-12  8.1000093      12.150014      16.200019      1594.3285    
        21   0             -322.56         1.6629496e-07 -6.3355617e-08  3.0740255e-07  2.5483794e-07  0.31594575    -5.5566037e-12 -1.1366072e-11  8.1000093      12.150014      16.200019      1594.3285    
        22   0             -322.56         1.6627891e-07 -6.3338962e-08  3.0736047e-07  2.5481522e-07  0.31594575    -6.0910573e-12 -1.6072881e-11  8.1000093      12.150014      16.200019      1594.3285    
        23   0             -322.56         1.6627285e-07 -6.3371982e-08  3.0735207e-07  2.5483847e-07  0.31594575     3.2655395e-11  1.7369868e-11  8.1000093      12.150014      16.200019      1594.3285    
        24   0             -322.56         1.6625943e-07 -6.3371878e-08  3.0734183e-07  2.5480834e-07  0.31594575    -4.141832e-12  -1.6107746e-12  8.1000093      12.150014      16.200019      1594.3285    
        25   0             -322.56         1.6627873e-07 -6.3352423e-08  3.0736658e-07  2.5482204e-07  0.31594575     1.1676487e-11  2.8240853e-12  8.1000093      12.150014      16.200019      1594.3285    
        26   0             -322.56         1.6627707e-07 -6.335478e-08   3.073767e-07   2.5480929e-07  0.31594575    -2.0772364e-11 -9.0405596e-12  8.1000093      12.150014      16.200019      1594.3285    
        27   0             -322.56         1.6630584e-07 -6.3318503e-08  3.0739272e-07  2.548433e-07   0.31594575    -1.0902722e-11  2.0469389e-11  8.1000093      12.150014      16.200019      1594.3285    
Loop time of 0.00718 on 1 procs for 25 steps with 96 atoms

0.0% CPU use with 1 MPI tasks x 1 OpenMP threads

Minimization stats:
  Stopping criterion = force tolerance
  Energy initial, next-to-last, final = 
     -322.559998842967  -322.559998865486  -322.559998865486
  Force two-norm initial, final = 0.00051426264 5.4038014e-11
  Force max component initial, final = 7.9678282e-05 8.7551182e-12
  Final line search alpha, max atom move = 1 8.7551182e-12
  Iterations, force evaluations = 25 50

MPI task timing breakdown:
Section |  min time  |  avg time  |  max time  |%varavg| %total
---------------------------------------------------------------
Pair    | 0.006715   | 0.006715   | 0.006715   |   0.0 | 93.52
Neigh   | 0          | 0          | 0          |   0.0 |  0.00
Comm    | 0.000137   | 0.000137   | 0.000137   |   0.0 |  1.91
Output  | 0.000219   | 0.000219   | 0.000219   |   0.0 |  3.05
Modify  | 0          | 0          | 0          |   0.0 |  0.00
Other   |            | 0.000109   |            |       |  1.52

Nlocal:             96 ave          96 max          96 min
Histogram: 1 0 0 0 0 0 0 0 0 0
Nghost:            976 ave         976 max         976 min
Histogram: 1 0 0 0 0 0 0 0 0 0
Neighs:           4128 ave        4128 max        4128 min
Histogram: 1 0 0 0 0 0 0 0 0 0

Total # of neighbors = 4128
Ave neighs/atom = 43
Neighbor list builds = 0
Dangerous builds = 0
OMP_NUM_THREADS environment is not set. Defaulting to 1 thread. (src/comm.cpp:98)
  using 1 OpenMP thread(s) per MPI task
Loaded 1 plugins from F:\Lammps\LAMMPS 64-bit 2Aug2023\plugins

The 'box' command has been removed and will be ignored

Reading restart file ...
  restart file = 2 Aug 2023, LAMMPS = 2 Aug 2023
  restoring atom style atomic from restart
  triclinic box = (-4.6617854e-06 -6.9926781e-06 -9.3235709e-06) to (8.1000047 12.150007 16.200009) with tilt (0 0 0)
  1 by 1 by 1 MPI processor grid
  pair style eam/alloy stores no restart info
  96 atoms
  read_restart CPU = 0.000 seconds
Changing box ...
  triclinic box = (-4.6617854e-06 -6.9926781e-06 -9.3235709e-06) to (8.1000047 12.150007 16.200009) with tilt (1.2150014e-05 0 0)
Neighbor list info ...
  update: every = 1 steps, delay = 0 steps, check = yes
  max neighbors/atom: 2000, page size: 100000
  master list distance cutoff = 7.28721
  ghost atom cutoff = 7.28721
  1 neighbor lists, perpetual/occasional/extra = 1 0 0
  (1) pair eam/alloy, perpetual
      attributes: half, newton on
      pair build: half/nsq/newton
      stencil: none
      bin: none
Setting up cg style minimization ...
  Unit style    : metal
  Current step  : 2
Per MPI rank memory allocation (min/avg/max) = 4.447 | 4.447 | 4.447 Mbytes
   Step          Temp          PotEng         Press           Pxx            Pyy            Pzz            Pxy            Pxz            Pyz             Lx             Ly             Lz           Volume    
         2   0             -322.56         2.5730608e-05  2.4615866e-05  2.4246625e-05  2.8329334e-05 -0.31594495     3.1983229e-06  1.7198597e-06  8.1000093      12.150014      16.200019      1594.3285    
         3   0             -322.56         3.9377382e-06  3.7510293e-06  3.4944581e-06  4.5677272e-06 -0.31594601    -5.3873507e-07 -4.4536112e-07  8.1000093      12.150014      16.200019      1594.3285    
         4   0             -322.56         9.9174774e-07  7.6858765e-07  9.5064978e-07  1.2560058e-06 -0.31594585     9.4909201e-08  8.8448303e-08  8.1000093      12.150014      16.200019      1594.3285    
         5   0             -322.56         3.6021609e-07  1.3380872e-07  4.5429052e-07  4.9254901e-07 -0.31594578    -5.1028284e-09  1.0714325e-08  8.1000093      12.150014      16.200019      1594.3285    
         6   0             -322.56         2.3225528e-07 -1.3913259e-08  3.6751445e-07  3.4316465e-07 -0.3159458     -1.5667455e-09  2.0787709e-09  8.1000093      12.150014      16.200019      1594.3285    
         7   0             -322.56         2.0323059e-07 -3.36362e-08    3.3712138e-07  3.0620658e-07 -0.31594578     8.9689279e-10 -4.3614686e-10  8.1000093      12.150014      16.200019      1594.3285    
         8   0             -322.56         1.8655456e-07 -4.5495154e-08  3.1976295e-07  2.8539588e-07 -0.31594577    -1.0556567e-09 -1.6486034e-10  8.1000093      12.150014      16.200019      1594.3285    
         9   0             -322.56         1.7564962e-07 -5.4757745e-08  3.124288e-07   2.6927781e-07 -0.31594576    -1.9099893e-10 -5.2701616e-10  8.1000093      12.150014      16.200019      1594.3285    
        10   0             -322.56         1.6981182e-07 -6.0465183e-08  3.0984595e-07  2.6005471e-07 -0.31594575     5.116479e-10  -4.0678334e-10  8.1000093      12.150014      16.200019      1594.3285    
        11   0             -322.56         1.6763359e-07 -6.2297481e-08  3.0874685e-07  2.5645139e-07 -0.31594575     3.6362468e-11 -1.0219702e-10  8.1000093      12.150014      16.200019      1594.3285    
        12   0             -322.56         1.668963e-07  -6.2905917e-08  3.0808018e-07  2.5551464e-07 -0.31594575     1.3060104e-11  1.3189525e-11  8.1000093      12.150014      16.200019      1594.3285    
        13   0             -322.56         1.6650552e-07 -6.3144559e-08  3.07616e-07    2.5504513e-07 -0.31594575     1.5332747e-11  4.1590758e-11  8.1000093      12.150014      16.200019      1594.3285    
        14   0             -322.56         1.6636793e-07 -6.329012e-08   3.0748582e-07  2.549081e-07  -0.31594575    -2.6584318e-11 -1.4957193e-11  8.1000093      12.150014      16.200019      1594.3285    
        15   0             -322.56         1.6628735e-07 -6.3336204e-08  3.0735691e-07  2.5484135e-07 -0.31594575    -1.2478669e-11  3.8107719e-12  8.1000093      12.150014      16.200019      1594.3285    
        16   0             -322.56         1.6627496e-07 -6.3354317e-08  3.0737863e-07  2.5480058e-07 -0.31594575     9.6876081e-12  1.0686199e-11  8.1000093      12.150014      16.200019      1594.3285    
        17   0             -322.56         1.6627517e-07 -6.3356909e-08  3.0737723e-07  2.548052e-07  -0.31594575    -1.2969827e-11 -7.084619e-12   8.1000093      12.150014      16.200019      1594.3285    
        18   0             -322.56         1.6627833e-07 -6.3347701e-08  3.0737635e-07  2.5480636e-07 -0.31594575    -8.1574654e-12 -2.1107423e-11  8.1000093      12.150014      16.200019      1594.3285    
        19   0             -322.56         1.6627434e-07 -6.335655e-08   3.0736892e-07  2.5481065e-07 -0.31594575    -1.3767566e-11 -1.1522966e-11  8.1000093      12.150014      16.200019      1594.3285    
        20   0             -322.56         1.6625604e-07 -6.3400266e-08  3.073418e-07   2.5482659e-07 -0.31594575     1.1737912e-11 -1.6794591e-11  8.1000093      12.150014      16.200019      1594.3285    
        21   0             -322.56         1.662622e-07  -6.3369312e-08  3.0733469e-07  2.5482124e-07 -0.31594575    -5.1152e-12     9.0196405e-12  8.1000093      12.150014      16.200019      1594.3285    
        22   0             -322.56         1.6631929e-07 -6.3313694e-08  3.0739083e-07  2.5488072e-07 -0.31594575     2.3021227e-11  2.2139434e-12  8.1000093      12.150014      16.200019      1594.3285    
        23   0             -322.56         1.6631945e-07 -6.3318526e-08  3.0741081e-07  2.5486608e-07 -0.31594575    -1.8967205e-11 -1.9137536e-11  8.1000093      12.150014      16.200019      1594.3285    
        24   0             -322.56         1.6629692e-07 -6.3314657e-08  3.073766e-07   2.5482882e-07 -0.31594575    -3.174441e-12   3.4760655e-12  8.1000093      12.150014      16.200019      1594.3285    
        25   0             -322.56         1.6630125e-07 -6.3334972e-08  3.07396e-07    2.5484271e-07 -0.31594575     2.2196314e-11 -8.9150447e-12  8.1000093      12.150014      16.200019      1594.3285    
        26   0             -322.56         1.6624258e-07 -6.3379394e-08  3.0733679e-07  2.5477034e-07 -0.31594575    -8.2750152e-12 -2.6002504e-11  8.1000093      12.150014      16.200019      1594.3285    
        27   0             -322.56         1.6627189e-07 -6.3356358e-08  3.0737575e-07  2.5479628e-07 -0.31594575    -3.7183286e-12  5.6446842e-12  8.1000093      12.150014      16.200019      1594.3285    
Loop time of 0.007375 on 1 procs for 25 steps with 96 atoms

211.9% CPU use with 1 MPI tasks x 1 OpenMP threads

Minimization stats:
  Stopping criterion = force tolerance
  Energy initial, next-to-last, final = 
     -322.559998842965  -322.559998865486  -322.559998865486
  Force two-norm initial, final = 0.00051426267 6.0865706e-11
  Force max component initial, final = 7.9678345e-05 8.9618729e-12
  Final line search alpha, max atom move = 1 8.9618729e-12
  Iterations, force evaluations = 25 50

MPI task timing breakdown:
Section |  min time  |  avg time  |  max time  |%varavg| %total
---------------------------------------------------------------
Pair    | 0.006903   | 0.006903   | 0.006903   |   0.0 | 93.60
Neigh   | 0          | 0          | 0          |   0.0 |  0.00
Comm    | 0.000133   | 0.000133   | 0.000133   |   0.0 |  1.80
Output  | 0.000228   | 0.000228   | 0.000228   |   0.0 |  3.09
Modify  | 0          | 0          | 0          |   0.0 |  0.00
Other   |            | 0.000111   |            |       |  1.51

Nlocal:             96 ave          96 max          96 min
Histogram: 1 0 0 0 0 0 0 0 0 0
Nghost:            976 ave         976 max         976 min
Histogram: 1 0 0 0 0 0 0 0 0 0
Neighs:           4128 ave        4128 max        4128 min
Histogram: 1 0 0 0 0 0 0 0 0 0

Total # of neighbors = 4128
Ave neighs/atom = 43
Neighbor list builds = 0
Dangerous builds = 0
=========================================
Components of the Elastic Constant Tensor
=========================================
Elastic Constant C11all = 113.795813438243 GPa
Elastic Constant C22all = 113.795813444578 GPa
Elastic Constant C33all = 113.795813436064 GPa
Elastic Constant C12all = 61.5547454725643 GPa
Elastic Constant C13all = 61.5547454715434 GPa
Elastic Constant C23all = 61.5547454734216 GPa
Elastic Constant C44all = 31.5945751541003 GPa
Elastic Constant C55all = 31.5945751525151 GPa
Elastic Constant C66all = 31.5945751512742 GPa
Elastic Constant C14all = 7.89000030598465e-10 GPa
Elastic Constant C15all = 1.19364334486548e-10 GPa
Elastic Constant C16all = 1.24210948712369e-09 GPa
Elastic Constant C24all = 6.44832439638885e-10 GPa
Elastic Constant C25all = 6.25984595537813e-10 GPa
Elastic Constant C26all = 7.33418302387607e-10 GPa
Elastic Constant C34all = -8.3502700516037e-11 GPa
Elastic Constant C35all = 7.54256505352232e-10 GPa
Elastic Constant C36all = 1.16160090854191e-09 GPa
Elastic Constant C45all = -4.56782866917999e-10 GPa
Elastic Constant C46all = -6.6026603011435e-12 GPa
Elastic Constant C56all = -1.33676484616243e-10 GPa
=========================================
Average properties for a cubic crystal
=========================================
Bulk Modulus = 78.9684347948825 GPa
Shear Modulus 1 = 31.5945751526299 GPa
Shear Modulus 2 = 26.1205339835591 GPa
Poisson Ratio = 0.351038205149678
Total wall time: 0:00:00
