LAMMPS (2 Aug 2023 - Update 3)
OMP_NUM_THREADS environment is not set. Defaulting to 1 thread. (src/comm.cpp:98)
  using 1 OpenMP thread(s) per MPI task
Loaded 1 plugins from F:\Lammps\LAMMPS 64-bit 2Aug2023\plugins
Lattice spacing in x,y,z = 4.05 4.05 4.05
Created triclinic box = (0 0 0) to (8.1 12.15 16.2) with tilt (0 0 0)
  1 by 1 by 1 MPI processor grid
Created 96 atoms
  using lattice units in triclinic box = (0 0 0) to (8.1 12.15 16.2) with tilt (0 0 0)
  create_atoms CPU = 0.000 seconds
Neighbor list info ...
  update: every = 1 steps, delay = 0 steps, check = yes
  max neighbors/atom: 2000, page size: 100000
  master list distance cutoff = 7.28721
  ghost atom cutoff = 7.28721
  1 neighbor lists, perpetual/occasional/extra = 1 0 0
  (1) pair eam/alloy, perpetual
      attributes: half, newton on
      pair build: half/nsq/newton
      stencil: none
      bin: none
Setting up cg style minimization ...
  Unit style    : metal
  Current step  : 0
WARNING: Energy due to 3 extra global DOFs will be included in minimizer energies
 (src/min.cpp:228)
Per MPI rank memory allocation (min/avg/max) = 4.452 | 4.452 | 4.452 Mbytes
   Step          Temp          PotEng         Press           Pxx            Pyy            Pzz            Pxy            Pxz            Pyz             Lx             Ly             Lz           Volume    
         0   0             -322.56         2.726913       2.726913       2.726913       2.726913       2.2732222e-12  5.6691094e-12  8.2700661e-12  8.1            12.15          16.2           1594.323     
         1   0             -322.56        -0.00024358028 -0.00024358023 -0.00024358039 -0.00024358023  3.6538783e-12 -1.8548314e-12  3.8351776e-12  8.1000093      12.150014      16.200019      1594.3285    
         2   0             -322.56         4.4066656e-10  4.3579472e-10  4.388001e-10   4.4740485e-10 -2.2216138e-11 -2.0291576e-12 -5.2995182e-13  8.1000093      12.150014      16.200019      1594.3285    
Loop time of 0.000878 on 1 procs for 2 steps with 96 atoms

0.0% CPU use with 1 MPI tasks x 1 OpenMP threads

Minimization stats:
  Stopping criterion = force tolerance
  Energy initial, next-to-last, final = 
     -322.559998860994  -322.559998865621  -322.559998865637
  Force two-norm initial, final = 0.0047000001 7.6230766e-13
  Force max component initial, final = 0.0027135463 4.452128e-13
  Final line search alpha, max atom move = 1 4.452128e-13
  Iterations, force evaluations = 2 4

MPI task timing breakdown:
Section |  min time  |  avg time  |  max time  |%varavg| %total
---------------------------------------------------------------
Pair    | 0.000688   | 0.000688   | 0.000688   |   0.0 | 78.36
Neigh   | 0          | 0          | 0          |   0.0 |  0.00
Comm    | 1.4e-05    | 1.4e-05    | 1.4e-05    |   0.0 |  1.59
Output  | 1.1e-05    | 1.1e-05    | 1.1e-05    |   0.0 |  1.25
Modify  | 0          | 0          | 0          |   0.0 |  0.00
Other   |            | 0.000165   |            |       | 18.79

Nlocal:             96 ave          96 max          96 min
Histogram: 1 0 0 0 0 0 0 0 0 0
Nghost:            976 ave         976 max         976 min
Histogram: 1 0 0 0 0 0 0 0 0 0
Neighs:           4128 ave        4128 max        4128 min
Histogram: 1 0 0 0 0 0 0 0 0 0

Total # of neighbors = 4128
Ave neighs/atom = 43
Neighbor list builds = 0
Dangerous builds = 0
Displacing atoms ...
System init for write_restart ...
OMP_NUM_THREADS environment is not set. Defaulting to 1 thread. (src/comm.cpp:98)
  using 1 OpenMP thread(s) per MPI task
Loaded 1 plugins from F:\Lammps\LAMMPS 64-bit 2Aug2023\plugins

The 'box' command has been removed and will be ignored

Reading restart file ...
  restart file = 2 Aug 2023, LAMMPS = 2 Aug 2023
  restoring atom style atomic from restart
  triclinic box = (-4.6617854e-06 -6.9926781e-06 -9.3235709e-06) to (8.1000047 12.150007 16.200009) with tilt (0 0 0)
  1 by 1 by 1 MPI processor grid
  pair style eam/alloy stores no restart info
  96 atoms
  read_restart CPU = 0.000 seconds
Changing box ...
  triclinic box = (-4.6617854e-06 -6.9926781e-06 -9.3235709e-06) to (8.1000046 12.150007 16.200009) with tilt (0 0 0)
  triclinic box = (-4.6617854e-06 -6.9926781e-06 -9.3235709e-06) to (8.1000046 12.150007 16.200009) with tilt (0 0 0)
  triclinic box = (-4.6617854e-06 -6.9926781e-06 -9.3235709e-06) to (8.1000046 12.150007 16.200009) with tilt (0 0 0)
Neighbor list info ...
  update: every = 1 steps, delay = 0 steps, check = yes
  max neighbors/atom: 2000, page size: 100000
  master list distance cutoff = 7.28721
  ghost atom cutoff = 7.28721
  1 neighbor lists, perpetual/occasional/extra = 1 0 0
  (1) pair eam/alloy, perpetual
      attributes: half, newton on
      pair build: half/nsq/newton
      stencil: none
      bin: none
Setting up cg style minimization ...
  Unit style    : metal
  Current step  : 2
Per MPI rank memory allocation (min/avg/max) = 4.447 | 4.447 | 4.447 Mbytes
   Step          Temp          PotEng         Press           Pxx            Pyy            Pzz            Pxy            Pxz            Pyz             Lx             Ly             Lz           Volume    
         2   0             -322.56         0.0079224082   0.011404261    0.0061794141   0.0061835495   7.9869998e-07  3.198321e-06   1.7198937e-06  8.1000092      12.150014      16.200019      1594.3285    
         3   0             -322.56         0.0079006153   0.011383396    0.0061586619   0.0061597877  -2.5755999e-07 -5.3871699e-07 -4.4538682e-07  8.1000092      12.150014      16.200019      1594.3285    
         4   0             -322.56         0.0078976693   0.011380414    0.0061561181   0.0061564759  -9.8334453e-08  9.4892287e-08  8.8485983e-08  8.1000092      12.150014      16.200019      1594.3285    
         5   0             -322.56         0.0078970377   0.011379779    0.0061556218   0.0061557126  -2.7301843e-08 -5.0957014e-09  1.0720786e-08  8.1000092      12.150014      16.200019      1594.3285    
         6   0             -322.56         0.0078969098   0.011379631    0.006155535    0.0061555632  -4.4640285e-08 -1.5868718e-09  2.0778609e-09  8.1000092      12.150014      16.200019      1594.3285    
         7   0             -322.56         0.0078968808   0.011379612    0.0061555046   0.0061555262  -2.9807664e-08  8.9988352e-10 -4.4002388e-10  8.1000092      12.150014      16.200019      1594.3285    
         8   0             -322.56         0.0078968641   0.0113796      0.0061554873   0.0061555054  -1.5063798e-08 -1.0720144e-09 -1.539266e-10   8.1000092      12.150014      16.200019      1594.3285    
         9   0             -322.56         0.0078968532   0.01137959     0.0061554799   0.0061554893  -6.8493645e-09 -2.1548878e-10 -5.419106e-10   8.1000092      12.150014      16.200019      1594.3285    
        10   0             -322.56         0.0078968474   0.011379585    0.0061554774   0.0061554801  -2.2746412e-09  5.4104161e-10 -3.7255264e-10  8.1000092      12.150014      16.200019      1594.3285    
        11   0             -322.56         0.0078968452   0.011379583    0.0061554762   0.0061554764  -7.0642033e-10  5.2890681e-11 -8.6905126e-11  8.1000092      12.150014      16.200019      1594.3285    
        12   0             -322.56         0.0078968444   0.011379582    0.0061554755   0.0061554755  -2.8728211e-10  1.2922763e-11  1.5706796e-11  8.1000092      12.150014      16.200019      1594.3285    
        13   0             -322.56         0.007896844    0.011379582    0.0061554751   0.006155475   -2.1140675e-11  2.1106199e-11  1.0738497e-11  8.1000092      12.150014      16.200019      1594.3285    
        14   0             -322.56         0.0078968439   0.011379582    0.0061554749   0.0061554749  -4.4915509e-12  4.8279759e-13 -7.6494362e-12  8.1000092      12.150014      16.200019      1594.3285    
        15   0             -322.56         0.0078968439   0.011379582    0.0061554749   0.0061554748   1.1400463e-11 -2.5680208e-11 -1.6313451e-11  8.1000092      12.150014      16.200019      1594.3285    
        16   0             -322.56         0.0078968439   0.011379582    0.0061554749   0.0061554748   5.8565133e-12 -1.0540349e-11 -4.2186954e-12  8.1000092      12.150014      16.200019      1594.3285    
        17   0             -322.56         0.0078968438   0.011379582    0.0061554749   0.0061554748  -7.752055e-12  -4.5901991e-12  1.600315e-12   8.1000092      12.150014      16.200019      1594.3285    
        18   0             -322.56         0.0078968439   0.011379582    0.0061554749   0.0061554749   1.6798217e-11  2.049723e-12  -3.0193308e-12  8.1000092      12.150014      16.200019      1594.3285    
        19   0             -322.56         0.0078968438   0.011379582    0.0061554749   0.0061554748  -7.8620615e-12  4.8723552e-12  1.3199984e-11  8.1000092      12.150014      16.200019      1594.3285    
        20   0             -322.56         0.0078968439   0.011379582    0.0061554749   0.0061554749  -6.307139e-12   4.5803557e-12 -3.1692514e-12  8.1000092      12.150014      16.200019      1594.3285    
        21   0             -322.56         0.0078968439   0.011379582    0.0061554749   0.0061554749  -8.6647862e-12  3.6994196e-12  1.7049108e-12  8.1000092      12.150014      16.200019      1594.3285    
        22   0             -322.56         0.0078968438   0.011379582    0.0061554748   0.0061554748  -1.6505616e-12 -1.8229414e-11  1.4312186e-11  8.1000092      12.150014      16.200019      1594.3285    
        23   0             -322.56         0.0078968439   0.011379582    0.0061554749   0.0061554748   5.2242185e-13  1.3836423e-11  9.4484832e-12  8.1000092      12.150014      16.200019      1594.3285    
        24   0             -322.56         0.0078968439   0.011379582    0.0061554749   0.0061554748   1.4566193e-11  1.9538797e-11 -7.8446816e-12  8.1000092      12.150014      16.200019      1594.3285    
        25   0             -322.56         0.0078968438   0.011379582    0.0061554749   0.0061554748   6.3497512e-12 -8.3830782e-13 -1.0323601e-11  8.1000092      12.150014      16.200019      1594.3285    
        26   0             -322.56         0.0078968438   0.011379582    0.0061554748   0.0061554748  -2.6901552e-12 -6.6094001e-12 -3.0650043e-11  8.1000092      12.150014      16.200019      1594.3285    
        27   0             -322.56         0.0078968438   0.011379582    0.0061554749   0.0061554748   1.0122395e-11  1.4409504e-11  7.5657596e-13  8.1000092      12.150014      16.200019      1594.3285    
Loop time of 0.007362 on 1 procs for 25 steps with 96 atoms

0.0% CPU use with 1 MPI tasks x 1 OpenMP threads

Minimization stats:
  Stopping criterion = force tolerance
  Energy initial, next-to-last, final = 
     -322.559998843123  -322.559998865645  -322.559998865644
  Force two-norm initial, final = 0.00051426266 5.5533915e-11
  Force max component initial, final = 7.9678314e-05 8.3049123e-12
  Final line search alpha, max atom move = 1 8.3049123e-12
  Iterations, force evaluations = 25 50

MPI task timing breakdown:
Section |  min time  |  avg time  |  max time  |%varavg| %total
---------------------------------------------------------------
Pair    | 0.006888   | 0.006888   | 0.006888   |   0.0 | 93.56
Neigh   | 0          | 0          | 0          |   0.0 |  0.00
Comm    | 0.00014    | 0.00014    | 0.00014    |   0.0 |  1.90
Output  | 0.000227   | 0.000227   | 0.000227   |   0.0 |  3.08
Modify  | 0          | 0          | 0          |   0.0 |  0.00
Other   |            | 0.000107   |            |       |  1.45

Nlocal:             96 ave          96 max          96 min
Histogram: 1 0 0 0 0 0 0 0 0 0
Nghost:            976 ave         976 max         976 min
Histogram: 1 0 0 0 0 0 0 0 0 0
Neighs:           4128 ave        4128 max        4128 min
Histogram: 1 0 0 0 0 0 0 0 0 0

Total # of neighbors = 4128
Ave neighs/atom = 43
Neighbor list builds = 0
Dangerous builds = 0
OMP_NUM_THREADS environment is not set. Defaulting to 1 thread. (src/comm.cpp:98)
  using 1 OpenMP thread(s) per MPI task
Loaded 1 plugins from F:\Lammps\LAMMPS 64-bit 2Aug2023\plugins

The 'box' command has been removed and will be ignored

Reading restart file ...
  restart file = 2 Aug 2023, LAMMPS = 2 Aug 2023
  restoring atom style atomic from restart
  triclinic box = (-4.6617854e-06 -6.9926781e-06 -9.3235709e-06) to (8.1000047 12.150007 16.200009) with tilt (0 0 0)
  1 by 1 by 1 MPI processor grid
  pair style eam/alloy stores no restart info
  96 atoms
  read_restart CPU = 0.000 seconds
Changing box ...
  triclinic box = (-4.6617854e-06 -6.9926781e-06 -9.3235709e-06) to (8.1000047 12.150007 16.200009) with tilt (0 0 0)
  triclinic box = (-4.6617854e-06 -6.9926781e-06 -9.3235709e-06) to (8.1000047 12.150007 16.200009) with tilt (0 0 0)
  triclinic box = (-4.6617854e-06 -6.9926781e-06 -9.3235709e-06) to (8.1000047 12.150007 16.200009) with tilt (0 0 0)
Neighbor list info ...
  update: every = 1 steps, delay = 0 steps, check = yes
  max neighbors/atom: 2000, page size: 100000
  master list distance cutoff = 7.28721
  ghost atom cutoff = 7.28721
  1 neighbor lists, perpetual/occasional/extra = 1 0 0
  (1) pair eam/alloy, perpetual
      attributes: half, newton on
      pair build: half/nsq/newton
      stencil: none
      bin: none
Setting up cg style minimization ...
  Unit style    : metal
  Current step  : 2
Per MPI rank memory allocation (min/avg/max) = 4.447 | 4.447 | 4.447 Mbytes
   Step          Temp          PotEng         Press           Pxx            Pyy            Pzz            Pxy            Pxz            Pyz             Lx             Ly             Lz           Volume    
         2   0             -322.56        -0.0078712788  -0.011354902   -0.006131535   -0.0061273998   7.986817e-07   3.1983297e-06  1.7199028e-06  8.1000094      12.150014      16.200019      1594.3285    
         3   0             -322.56        -0.0078930717  -0.011375767   -0.0061522872  -0.0061511614  -2.5757503e-07 -5.3873045e-07 -4.4539955e-07  8.1000094      12.150014      16.200019      1594.3285    
         4   0             -322.56        -0.0078960178  -0.011378749   -0.006154831   -0.0061544732  -9.8335344e-08  9.4876548e-08  8.8478175e-08  8.1000094      12.150014      16.200019      1594.3285    
         5   0             -322.56        -0.0078966493  -0.011379384   -0.0061553273  -0.0061552366  -2.7300143e-08 -5.0831921e-09  1.0720242e-08  8.1000094      12.150014      16.200019      1594.3285    
         6   0             -322.56        -0.0078967772  -0.011379532   -0.0061554141  -0.006155386   -4.4655519e-08 -1.5655981e-09  2.0760374e-09  8.1000094      12.150014      16.200019      1594.3285    
         7   0             -322.56        -0.0078968063  -0.011379551   -0.0061554446  -0.006155423   -2.9807196e-08  9.1115323e-10 -4.2232627e-10  8.1000094      12.150014      16.200019      1594.3285    
         8   0             -322.56        -0.007896823   -0.011379563   -0.0061554619  -0.0061554438  -1.5073764e-08 -1.045548e-09  -1.468106e-10   8.1000094      12.150014      16.200019      1594.3285    
         9   0             -322.56        -0.0078968338  -0.011379572   -0.0061554692  -0.0061554598  -6.8473958e-09 -1.9150039e-10 -5.7895492e-10  8.1000094      12.150014      16.200019      1594.3285    
        10   0             -322.56        -0.0078968397  -0.011379578   -0.0061554718  -0.0061554691  -2.2793629e-09  5.2372228e-10 -3.8857671e-10  8.1000094      12.150014      16.200019      1594.3285    
        11   0             -322.56        -0.0078968419  -0.01137958    -0.0061554729  -0.0061554728  -6.8011296e-10  4.3930305e-11 -9.2309238e-11  8.1000094      12.150014      16.200019      1594.3285    
        12   0             -322.56        -0.0078968426  -0.011379581   -0.0061554736  -0.0061554737  -2.8020164e-10  9.006056e-12   1.9036427e-11  8.1000094      12.150014      16.200019      1594.3285    
        13   0             -322.56        -0.007896843   -0.011379581   -0.0061554741  -0.0061554741  -3.6590785e-11  2.3059289e-11  3.2323574e-11  8.1000094      12.150014      16.200019      1594.3285    
        14   0             -322.56        -0.0078968432  -0.011379581   -0.0061554743  -0.0061554743  -2.6777252e-11  5.8891813e-12  1.0539765e-11  8.1000094      12.150014      16.200019      1594.3285    
        15   0             -322.56        -0.0078968432  -0.011379581   -0.0061554743  -0.0061554743   1.2791792e-11  1.22569e-11    5.1217053e-12  8.1000094      12.150014      16.200019      1594.3285    
        16   0             -322.56        -0.0078968432  -0.011379581   -0.0061554743  -0.0061554743   2.2703325e-11 -8.9406692e-13 -1.7432625e-11  8.1000094      12.150014      16.200019      1594.3285    
        17   0             -322.56        -0.0078968432  -0.011379581   -0.0061554743  -0.0061554744   1.1557955e-11  1.0889461e-11 -6.6313707e-12  8.1000094      12.150014      16.200019      1594.3285    
        18   0             -322.56        -0.0078968432  -0.011379581   -0.0061554743  -0.0061554743   3.2810384e-12 -1.1903435e-11  2.8938158e-11  8.1000094      12.150014      16.200019      1594.3285    
        19   0             -322.56        -0.0078968432  -0.011379581   -0.0061554743  -0.0061554743   1.4616242e-11  2.8149971e-12 -9.1416688e-12  8.1000094      12.150014      16.200019      1594.3285    
        20   0             -322.56        -0.0078968432  -0.011379581   -0.0061554743  -0.0061554743   4.9657553e-12  6.8531858e-12  1.6780645e-11  8.1000094      12.150014      16.200019      1594.3285    
        21   0             -322.56        -0.0078968432  -0.011379581   -0.0061554743  -0.0061554743   3.0259075e-12 -5.0732514e-12 -2.1198072e-12  8.1000094      12.150014      16.200019      1594.3285    
        22   0             -322.56        -0.0078968432  -0.011379581   -0.0061554744  -0.0061554743  -8.8588338e-12 -2.2371522e-12  3.9153677e-12  8.1000094      12.150014      16.200019      1594.3285    
        23   0             -322.56        -0.0078968432  -0.011379581   -0.0061554743  -0.0061554743  -8.487913e-12  -7.1982542e-12 -2.2969227e-11  8.1000094      12.150014      16.200019      1594.3285    
        24   0             -322.56        -0.0078968432  -0.011379581   -0.0061554743  -0.0061554743  -2.1251503e-11  2.2268409e-11 -3.678284e-12   8.1000094      12.150014      16.200019      1594.3285    
        25   0             -322.56        -0.0078968432  -0.011379581   -0.0061554743  -0.0061554743  -1.2361589e-11 -4.3497418e-12 -2.9663355e-11  8.1000094      12.150014      16.200019      1594.3285    
        26   0             -322.56        -0.0078968432  -0.011379581   -0.0061554743  -0.0061554743  -6.9248562e-12  2.1366134e-11 -1.3039604e-12  8.1000094      12.150014      16.200019      1594.3285    
        27   0             -322.56        -0.0078968432  -0.011379581   -0.0061554743  -0.0061554743   9.7039311e-12  2.159124e-11  -1.4012344e-11  8.1000094      12.150014      16.200019      1594.3285    
Loop time of 0.007231 on 1 procs for 25 steps with 96 atoms

0.0% CPU use with 1 MPI tasks x 1 OpenMP threads

Minimization stats:
  Stopping criterion = force tolerance
  Energy initial, next-to-last, final = 
     -322.559998843123  -322.559998865644  -322.559998865645
  Force two-norm initial, final = 0.00051426265 5.5524176e-11
  Force max component initial, final = 7.9678313e-05 8.3098251e-12
  Final line search alpha, max atom move = 1 8.3098251e-12
  Iterations, force evaluations = 25 50

MPI task timing breakdown:
Section |  min time  |  avg time  |  max time  |%varavg| %total
---------------------------------------------------------------
Pair    | 0.006759   | 0.006759   | 0.006759   |   0.0 | 93.47
Neigh   | 0          | 0          | 0          |   0.0 |  0.00
Comm    | 0.000142   | 0.000142   | 0.000142   |   0.0 |  1.96
Output  | 0.000218   | 0.000218   | 0.000218   |   0.0 |  3.01
Modify  | 0          | 0          | 0          |   0.0 |  0.00
Other   |            | 0.000112   |            |       |  1.55

Nlocal:             96 ave          96 max          96 min
Histogram: 1 0 0 0 0 0 0 0 0 0
Nghost:            976 ave         976 max         976 min
Histogram: 1 0 0 0 0 0 0 0 0 0
Neighs:           4128 ave        4128 max        4128 min
Histogram: 1 0 0 0 0 0 0 0 0 0

Total # of neighbors = 4128
Ave neighs/atom = 43
Neighbor list builds = 0
Dangerous builds = 0
OMP_NUM_THREADS environment is not set. Defaulting to 1 thread. (src/comm.cpp:98)
  using 1 OpenMP thread(s) per MPI task
Loaded 1 plugins from F:\Lammps\LAMMPS 64-bit 2Aug2023\plugins

The 'box' command has been removed and will be ignored

Reading restart file ...
  restart file = 2 Aug 2023, LAMMPS = 2 Aug 2023
  restoring atom style atomic from restart
  triclinic box = (-4.6617854e-06 -6.9926781e-06 -9.3235709e-06) to (8.1000047 12.150007 16.200009) with tilt (0 0 0)
  1 by 1 by 1 MPI processor grid
  pair style eam/alloy stores no restart info
  96 atoms
  read_restart CPU = 0.000 seconds
Changing box ...
  triclinic box = (-4.6617854e-06 -6.9926781e-06 -9.3235709e-06) to (8.1000047 12.150007 16.200009) with tilt (0 0 0)
  triclinic box = (-4.6617854e-06 -6.9926781e-06 -9.3235709e-06) to (8.1000047 12.150007 16.200009) with tilt (0 0 0)
Neighbor list info ...
  update: every = 1 steps, delay = 0 steps, check = yes
  max neighbors/atom: 2000, page size: 100000
  master list distance cutoff = 7.28721
  ghost atom cutoff = 7.28721
  1 neighbor lists, perpetual/occasional/extra = 1 0 0
  (1) pair eam/alloy, perpetual
      attributes: half, newton on
      pair build: half/nsq/newton
      stencil: none
      bin: none
Setting up cg style minimization ...
  Unit style    : metal
  Current step  : 2
Per MPI rank memory allocation (min/avg/max) = 4.447 | 4.447 | 4.447 Mbytes
   Step          Temp          PotEng         Press           Pxx            Pyy            Pzz            Pxy            Pxz            Pyz             Lx             Ly             Lz           Volume    
         2   0             -322.56         0.0079224082   0.006180154    0.011403521    0.0061835494   7.9869516e-07  3.1983199e-06  1.7198324e-06  8.1000093      12.150014      16.200019      1594.3285    
         3   0             -322.56         0.0079006152   0.0061592892   0.011382769    0.0061597877  -2.5755669e-07 -5.3870388e-07 -4.4537962e-07  8.1000093      12.150014      16.200019      1594.3285    
         4   0             -322.56         0.0078976692   0.0061563067   0.011380225    0.0061564759  -9.8320755e-08  9.488937e-08   8.8485376e-08  8.1000093      12.150014      16.200019      1594.3285    
         5   0             -322.56         0.0078970377   0.0061556719   0.011379729    0.0061557126  -2.7305805e-08 -5.1184017e-09  1.07211e-08    8.1000093      12.150014      16.200019      1594.3285    
         6   0             -322.56         0.0078969098   0.0061555242   0.011379642    0.0061555631  -4.4640435e-08 -1.5674198e-09  2.0404017e-09  8.1000093      12.150014      16.200019      1594.3285    
         7   0             -322.56         0.0078968807   0.0061555045   0.011379612    0.0061555261  -2.9814628e-08  9.2705225e-10 -4.34041e-10    8.1000093      12.150014      16.200019      1594.3285    
         8   0             -322.56         0.0078968641   0.0061554927   0.011379594    0.0061555054  -1.5078876e-08 -1.065426e-09  -1.1478687e-10  8.1000093      12.150014      16.200019      1594.3285    
         9   0             -322.56         0.0078968531   0.0061554833   0.011379587    0.0061554893  -6.8569811e-09 -2.0373989e-10 -5.2550302e-10  8.1000093      12.150014      16.200019      1594.3285    
        10   0             -322.56         0.0078968473   0.0061554776   0.011379584    0.00615548    -2.2815495e-09  5.1735345e-10 -4.0434975e-10  8.1000093      12.150014      16.200019      1594.3285    
        11   0             -322.56         0.0078968451   0.0061554758   0.011379583    0.0061554763  -6.933451e-10   3.2054674e-11 -1.0238878e-10  8.1000093      12.150014      16.200019      1594.3285    
        12   0             -322.56         0.0078968444   0.0061554752   0.011379582    0.0061554755  -2.7334319e-10  2.5647056e-11  2.4112808e-11  8.1000093      12.150014      16.200019      1594.3285    
        13   0             -322.56         0.007896844    0.006155475    0.011379582    0.006155475   -1.3884675e-11 -3.7953198e-12  1.0881445e-11  8.1000093      12.150014      16.200019      1594.3285    
        14   0             -322.56         0.0078968439   0.0061554749   0.011379582    0.0061554749  -1.3425058e-11  6.8298053e-12  1.8314717e-11  8.1000093      12.150014      16.200019      1594.3285    
        15   0             -322.56         0.0078968438   0.0061554748   0.011379582    0.0061554748  -1.6722294e-11 -7.2574363e-12 -9.7622704e-12  8.1000093      12.150014      16.200019      1594.3285    
        16   0             -322.56         0.0078968438   0.0061554748   0.011379582    0.0061554748  -2.3840438e-13  5.964903e-12  -1.5863689e-12  8.1000093      12.150014      16.200019      1594.3285    
        17   0             -322.56         0.0078968438   0.0061554748   0.011379582    0.0061554748   2.2201591e-12 -1.1516319e-11  2.9461138e-12  8.1000093      12.150014      16.200019      1594.3285    
        18   0             -322.56         0.0078968438   0.0061554748   0.011379582    0.0061554748   2.1789704e-11  1.5754804e-11  1.2056404e-11  8.1000093      12.150014      16.200019      1594.3285    
        19   0             -322.56         0.0078968438   0.0061554748   0.011379582    0.0061554748   3.5045835e-12 -1.2112186e-11  3.4063351e-12  8.1000093      12.150014      16.200019      1594.3285    
        20   0             -322.56         0.0078968438   0.0061554748   0.011379582    0.0061554748  -6.4085436e-12  2.7457058e-11  1.9594271e-12  8.1000093      12.150014      16.200019      1594.3285    
        21   0             -322.56         0.0078968438   0.0061554748   0.011379582    0.0061554748   3.4559433e-12  5.5972368e-12 -1.8757505e-12  8.1000093      12.150014      16.200019      1594.3285    
        22   0             -322.56         0.0078968438   0.0061554748   0.011379582    0.0061554748   9.5233266e-14 -8.0367485e-12  2.1965108e-12  8.1000093      12.150014      16.200019      1594.3285    
        23   0             -322.56         0.0078968438   0.0061554748   0.011379582    0.0061554748  -3.1392633e-12 -1.4978673e-11 -8.0259809e-12  8.1000093      12.150014      16.200019      1594.3285    
        24   0             -322.56         0.0078968438   0.0061554748   0.011379582    0.0061554748   3.878854e-12  -3.3388751e-11  6.6941283e-13  8.1000093      12.150014      16.200019      1594.3285    
        25   0             -322.56         0.0078968438   0.0061554748   0.011379582    0.0061554748  -4.3603118e-13  2.8757184e-12 -1.8792371e-12  8.1000093      12.150014      16.200019      1594.3285    
        26   0             -322.56         0.0078968438   0.0061554748   0.011379582    0.0061554748   7.2695773e-13 -8.5711177e-12 -1.3206957e-11  8.1000093      12.150014      16.200019      1594.3285    
        27   0             -322.56         0.0078968438   0.0061554748   0.011379582    0.0061554748   1.4207275e-11  1.1296906e-11 -3.194703e-11   8.1000093      12.150014      16.200019      1594.3285    
Loop time of 0.007068 on 1 procs for 25 steps with 96 atoms

221.1% CPU use with 1 MPI tasks x 1 OpenMP threads

Minimization stats:
  Stopping criterion = force tolerance
  Energy initial, next-to-last, final = 
     -322.559998843123  -322.559998865644  -322.559998865642
  Force two-norm initial, final = 0.00051426266 5.5501535e-11
  Force max component initial, final = 7.9678315e-05 8.3213991e-12
  Final line search alpha, max atom move = 1 8.3213991e-12
  Iterations, force evaluations = 25 50

MPI task timing breakdown:
Section |  min time  |  avg time  |  max time  |%varavg| %total
---------------------------------------------------------------
Pair    | 0.006606   | 0.006606   | 0.006606   |   0.0 | 93.46
Neigh   | 0          | 0          | 0          |   0.0 |  0.00
Comm    | 0.000128   | 0.000128   | 0.000128   |   0.0 |  1.81
Output  | 0.000225   | 0.000225   | 0.000225   |   0.0 |  3.18
Modify  | 0          | 0          | 0          |   0.0 |  0.00
Other   |            | 0.000109   |            |       |  1.54

Nlocal:             96 ave          96 max          96 min
Histogram: 1 0 0 0 0 0 0 0 0 0
Nghost:            976 ave         976 max         976 min
Histogram: 1 0 0 0 0 0 0 0 0 0
Neighs:           4128 ave        4128 max        4128 min
Histogram: 1 0 0 0 0 0 0 0 0 0

Total # of neighbors = 4128
Ave neighs/atom = 43
Neighbor list builds = 0
Dangerous builds = 0
OMP_NUM_THREADS environment is not set. Defaulting to 1 thread. (src/comm.cpp:98)
  using 1 OpenMP thread(s) per MPI task
Loaded 1 plugins from F:\Lammps\LAMMPS 64-bit 2Aug2023\plugins

The 'box' command has been removed and will be ignored

Reading restart file ...
  restart file = 2 Aug 2023, LAMMPS = 2 Aug 2023
  restoring atom style atomic from restart
  triclinic box = (-4.6617854e-06 -6.9926781e-06 -9.3235709e-06) to (8.1000047 12.150007 16.200009) with tilt (0 0 0)
  1 by 1 by 1 MPI processor grid
  pair style eam/alloy stores no restart info
  96 atoms
  read_restart CPU = 0.000 seconds
Changing box ...
  triclinic box = (-4.6617854e-06 -6.9926781e-06 -9.3235709e-06) to (8.1000047 12.150007 16.200009) with tilt (0 0 0)
  triclinic box = (-4.6617854e-06 -6.9926781e-06 -9.3235709e-06) to (8.1000047 12.150007 16.200009) with tilt (0 0 0)
Neighbor list info ...
  update: every = 1 steps, delay = 0 steps, check = yes
  max neighbors/atom: 2000, page size: 100000
  master list distance cutoff = 7.28721
  ghost atom cutoff = 7.28721
  1 neighbor lists, perpetual/occasional/extra = 1 0 0
  (1) pair eam/alloy, perpetual
      attributes: half, newton on
      pair build: half/nsq/newton
      stencil: none
      bin: none
Setting up cg style minimization ...
  Unit style    : metal
  Current step  : 2
Per MPI rank memory allocation (min/avg/max) = 4.447 | 4.447 | 4.447 Mbytes
   Step          Temp          PotEng         Press           Pxx            Pyy            Pzz            Pxy            Pxz            Pyz             Lx             Ly             Lz           Volume    
         2   0             -322.56        -0.0078712787  -0.006130795   -0.011355642   -0.0061273997   7.9868979e-07  3.1983127e-06  1.7198879e-06  8.1000093      12.150014      16.200019      1594.3285    
         3   0             -322.56        -0.0078930717  -0.0061516599  -0.011376394   -0.0061511613  -2.5754996e-07 -5.3870743e-07 -4.4538948e-07  8.1000093      12.150014      16.200019      1594.3285    
         4   0             -322.56        -0.0078960177  -0.0061546424  -0.011378938   -0.0061544731  -9.8350243e-08  9.4894084e-08  8.8517171e-08  8.1000093      12.150014      16.200019      1594.3285    
         5   0             -322.56        -0.0078966492  -0.0061552772  -0.011379434   -0.0061552365  -2.7313607e-08 -5.0956534e-09  1.071466e-08   8.1000093      12.150014      16.200019      1594.3285    
         6   0             -322.56        -0.0078967772  -0.0061554248  -0.011379521   -0.006155386   -4.4655563e-08 -1.5664669e-09  2.0680079e-09  8.1000093      12.150014      16.200019      1594.3285    
         7   0             -322.56        -0.0078968062  -0.0061554446  -0.011379551   -0.0061554229  -2.9806503e-08  9.1995482e-10 -4.4277474e-10  8.1000093      12.150014      16.200019      1594.3285    
         8   0             -322.56        -0.0078968229  -0.0061554564  -0.011379568   -0.0061554438  -1.5070348e-08 -1.0556613e-09 -1.4994498e-10  8.1000093      12.150014      16.200019      1594.3285    
         9   0             -322.56        -0.0078968338  -0.0061554657  -0.011379576   -0.0061554598  -6.8417409e-09 -2.0853469e-10 -5.5791374e-10  8.1000093      12.150014      16.200019      1594.3285    
        10   0             -322.56        -0.0078968396  -0.0061554714  -0.011379578   -0.006155469   -2.286117e-09   5.2225484e-10 -3.8201507e-10  8.1000093      12.150014      16.200019      1594.3285    
        11   0             -322.56        -0.0078968418  -0.0061554733  -0.01137958    -0.0061554727  -6.7610777e-10  5.868281e-12  -7.4102604e-11  8.1000093      12.150014      16.200019      1594.3285    
        12   0             -322.56        -0.0078968425  -0.0061554738  -0.01137958    -0.0061554736  -2.8238136e-10  9.7676403e-12  1.0944202e-11  8.1000093      12.150014      16.200019      1594.3285    
        13   0             -322.56        -0.0078968429  -0.0061554741  -0.011379581   -0.0061554741  -2.6724022e-11  1.745736e-11  -7.7714644e-12  8.1000093      12.150014      16.200019      1594.3285    
        14   0             -322.56        -0.0078968431  -0.0061554742  -0.011379581   -0.0061554742  -8.2449444e-12  3.0672095e-12  5.8224969e-12  8.1000093      12.150014      16.200019      1594.3285    
        15   0             -322.56        -0.0078968431  -0.0061554743  -0.011379581   -0.0061554743  -8.9842905e-12 -1.2580918e-11 -2.7044975e-11  8.1000093      12.150014      16.200019      1594.3285    
        16   0             -322.56        -0.0078968432  -0.0061554743  -0.011379581   -0.0061554743   5.6406599e-12 -5.4825378e-12 -2.8136257e-12  8.1000093      12.150014      16.200019      1594.3285    
        17   0             -322.56        -0.0078968432  -0.0061554743  -0.011379581   -0.0061554743  -5.2340577e-12  1.1918273e-12 -4.0025308e-12  8.1000093      12.150014      16.200019      1594.3285    
        18   0             -322.56        -0.0078968432  -0.0061554743  -0.011379581   -0.0061554743   4.6938831e-12  4.7401632e-13 -1.4946733e-11  8.1000093      12.150014      16.200019      1594.3285    
        19   0             -322.56        -0.0078968432  -0.0061554743  -0.011379581   -0.0061554743   5.7708593e-12 -6.6703227e-12 -1.0602523e-11  8.1000093      12.150014      16.200019      1594.3285    
        20   0             -322.56        -0.0078968431  -0.0061554743  -0.011379581   -0.0061554743   3.4497167e-12  5.4953161e-12 -1.205989e-11   8.1000093      12.150014      16.200019      1594.3285    
        21   0             -322.56        -0.0078968432  -0.0061554743  -0.011379581   -0.0061554743  -7.0962039e-14  1.6639517e-11 -3.1762243e-12  8.1000093      12.150014      16.200019      1594.3285    
        22   0             -322.56        -0.0078968432  -0.0061554743  -0.011379581   -0.0061554743  -1.8901912e-12  4.6159626e-12  7.6180573e-12  8.1000093      12.150014      16.200019      1594.3285    
        23   0             -322.56        -0.0078968431  -0.0061554742  -0.011379581   -0.0061554742   5.1267568e-12 -3.8070621e-12  8.5001481e-12  8.1000093      12.150014      16.200019      1594.3285    
        24   0             -322.56        -0.0078968431  -0.0061554743  -0.011379581   -0.0061554743   1.1448017e-12 -4.3836603e-12  2.7125165e-11  8.1000093      12.150014      16.200019      1594.3285    
        25   0             -322.56        -0.0078968431  -0.0061554743  -0.011379581   -0.0061554743   1.8325936e-12 -6.3344536e-12  2.1306155e-11  8.1000093      12.150014      16.200019      1594.3285    
        26   0             -322.56        -0.0078968432  -0.0061554743  -0.011379581   -0.0061554743   2.6727738e-12 -7.8495778e-13 -1.2255136e-11  8.1000093      12.150014      16.200019      1594.3285    
        27   0             -322.56        -0.0078968432  -0.0061554743  -0.011379581   -0.0061554743  -3.9561491e-12  1.7162321e-11  3.8316911e-12  8.1000093      12.150014      16.200019      1594.3285    
Loop time of 0.00717 on 1 procs for 25 steps with 96 atoms

0.0% CPU use with 1 MPI tasks x 1 OpenMP threads

Minimization stats:
  Stopping criterion = force tolerance
  Energy initial, next-to-last, final = 
     -322.559998843122  -322.559998865644  -322.559998865644
  Force two-norm initial, final = 0.00051426265 5.5509178e-11
  Force max component initial, final = 7.9678312e-05 8.3216767e-12
  Final line search alpha, max atom move = 1 8.3216767e-12
  Iterations, force evaluations = 25 50

MPI task timing breakdown:
Section |  min time  |  avg time  |  max time  |%varavg| %total
---------------------------------------------------------------
Pair    | 0.006656   | 0.006656   | 0.006656   |   0.0 | 92.83
Neigh   | 0          | 0          | 0          |   0.0 |  0.00
Comm    | 0.000144   | 0.000144   | 0.000144   |   0.0 |  2.01
Output  | 0.000261   | 0.000261   | 0.000261   |   0.0 |  3.64
Modify  | 0          | 0          | 0          |   0.0 |  0.00
Other   |            | 0.000109   |            |       |  1.52

Nlocal:             96 ave          96 max          96 min
Histogram: 1 0 0 0 0 0 0 0 0 0
Nghost:            976 ave         976 max         976 min
Histogram: 1 0 0 0 0 0 0 0 0 0
Neighs:           4128 ave        4128 max        4128 min
Histogram: 1 0 0 0 0 0 0 0 0 0

Total # of neighbors = 4128
Ave neighs/atom = 43
Neighbor list builds = 0
Dangerous builds = 0
OMP_NUM_THREADS environment is not set. Defaulting to 1 thread. (src/comm.cpp:98)
  using 1 OpenMP thread(s) per MPI task
Loaded 1 plugins from F:\Lammps\LAMMPS 64-bit 2Aug2023\plugins

The 'box' command has been removed and will be ignored

Reading restart file ...
  restart file = 2 Aug 2023, LAMMPS = 2 Aug 2023
  restoring atom style atomic from restart
  triclinic box = (-4.6617854e-06 -6.9926781e-06 -9.3235709e-06) to (8.1000047 12.150007 16.200009) with tilt (0 0 0)
  1 by 1 by 1 MPI processor grid
  pair style eam/alloy stores no restart info
  96 atoms
  read_restart CPU = 0.000 seconds
Changing box ...
  triclinic box = (-4.6617854e-06 -6.9926781e-06 -9.3235709e-06) to (8.1000047 12.150007 16.200009) with tilt (0 0 0)
Neighbor list info ...
  update: every = 1 steps, delay = 0 steps, check = yes
  max neighbors/atom: 2000, page size: 100000
  master list distance cutoff = 7.28721
  ghost atom cutoff = 7.28721
  1 neighbor lists, perpetual/occasional/extra = 1 0 0
  (1) pair eam/alloy, perpetual
      attributes: half, newton on
      pair build: half/nsq/newton
      stencil: none
      bin: none
Setting up cg style minimization ...
  Unit style    : metal
  Current step  : 2
Per MPI rank memory allocation (min/avg/max) = 4.447 | 4.447 | 4.447 Mbytes
   Step          Temp          PotEng         Press           Pxx            Pyy            Pzz            Pxy            Pxz            Pyz             Lx             Ly             Lz           Volume    
         2   0             -322.56         0.0079224082   0.0061801541   0.0061794142   0.011407656    7.9868879e-07  3.1983307e-06  1.7198667e-06  8.1000093      12.150014      16.200018      1594.3285    
         3   0             -322.56         0.0079006153   0.0061592892   0.006158662    0.011383895   -2.5755252e-07 -5.3872147e-07 -4.4536371e-07  8.1000093      12.150014      16.200018      1594.3285    
         4   0             -322.56         0.0078976693   0.0061563067   0.0061561181   0.011380583   -9.8315824e-08  9.4903371e-08  8.8461329e-08  8.1000093      12.150014      16.200018      1594.3285    
         5   0             -322.56         0.0078970378   0.006155672    0.0061556218   0.01137982    -2.7292284e-08 -5.0879585e-09  1.072528e-08   8.1000093      12.150014      16.200018      1594.3285    
         6   0             -322.56         0.0078969099   0.0061555243   0.0061555351   0.01137967    -4.4650679e-08 -1.574483e-09   2.0754796e-09  8.1000093      12.150014      16.200018      1594.3285    
         7   0             -322.56         0.0078968808   0.0061555046   0.0061555046   0.011379633   -2.9806291e-08  9.0280315e-10 -4.527497e-10   8.1000093      12.150014      16.200018      1594.3285    
         8   0             -322.56         0.0078968641   0.0061554927   0.0061554872   0.011379612   -1.505958e-08  -1.0414069e-09 -1.6290789e-10  8.1000093      12.150014      16.200018      1594.3285    
         9   0             -322.56         0.0078968532   0.0061554834   0.0061554799   0.011379596   -6.8520456e-09 -2.0156395e-10 -5.453797e-10   8.1000093      12.150014      16.200018      1594.3285    
        10   0             -322.56         0.0078968474   0.0061554777   0.0061554774   0.011379587   -2.2822299e-09  5.1800921e-10 -3.8563757e-10  8.1000093      12.150014      16.200018      1594.3285    
        11   0             -322.56         0.0078968452   0.0061554759   0.0061554762   0.011379583   -6.9676181e-10  4.2014719e-11 -1.0971397e-10  8.1000093      12.150014      16.200018      1594.3285    
        12   0             -322.56         0.0078968444   0.0061554753   0.0061554756   0.011379582   -2.8567137e-10  1.6000208e-11  3.4011053e-11  8.1000093      12.150014      16.200018      1594.3285    
        13   0             -322.56         0.0078968441   0.006155475    0.0061554751   0.011379582   -4.0102446e-11  1.604015e-11   3.2525793e-11  8.1000093      12.150014      16.200018      1594.3285    
        14   0             -322.56         0.0078968439   0.0061554749   0.006155475    0.011379582   -6.6515245e-12 -4.1572151e-12  1.1397451e-11  8.1000093      12.150014      16.200018      1594.3285    
        15   0             -322.56         0.0078968439   0.0061554749   0.0061554749   0.011379582    3.5027753e-13  4.4976966e-12  4.4453196e-12  8.1000093      12.150014      16.200018      1594.3285    
        16   0             -322.56         0.0078968439   0.0061554749   0.0061554749   0.011379582   -1.0953407e-11 -5.9436952e-12  1.0717578e-11  8.1000093      12.150014      16.200018      1594.3285    
        17   0             -322.56         0.0078968438   0.0061554748   0.0061554749   0.011379582    6.7040128e-12  3.4493107e-12  1.7655763e-11  8.1000093      12.150014      16.200018      1594.3285    
        18   0             -322.56         0.0078968439   0.0061554748   0.0061554749   0.011379582   -1.9772122e-13  4.0657217e-12  5.1077593e-12  8.1000093      12.150014      16.200018      1594.3285    
        19   0             -322.56         0.0078968439   0.0061554749   0.0061554749   0.011379582    1.4503474e-12  7.4427228e-13 -1.8516935e-11  8.1000093      12.150014      16.200018      1594.3285    
        20   0             -322.56         0.0078968438   0.0061554748   0.0061554748   0.011379582   -6.4002181e-12 -1.8992787e-11  4.3651295e-12  8.1000093      12.150014      16.200018      1594.3285    
        21   0             -322.56         0.0078968439   0.0061554748   0.0061554749   0.011379582   -8.0512814e-13 -4.3236503e-12  9.0614789e-12  8.1000093      12.150014      16.200018      1594.3285    
        22   0             -322.56         0.0078968439   0.0061554749   0.0061554749   0.011379582   -1.020747e-11   5.8161701e-12  1.1916943e-11  8.1000093      12.150014      16.200018      1594.3285    
        23   0             -322.56         0.0078968439   0.0061554748   0.0061554749   0.011379582    4.1071989e-12  1.1050142e-11  6.2757453e-13  8.1000093      12.150014      16.200018      1594.3285    
        24   0             -322.56         0.0078968439   0.0061554748   0.0061554749   0.011379582   -1.3171585e-12 -8.9789795e-12  2.537493e-11   8.1000093      12.150014      16.200018      1594.3285    
        25   0             -322.56         0.0078968438   0.0061554748   0.0061554749   0.011379582    1.2756593e-11  3.6796729e-12  4.0827209e-12  8.1000093      12.150014      16.200018      1594.3285    
        26   0             -322.56         0.0078968438   0.0061554748   0.0061554749   0.011379582   -5.7767445e-12 -1.9200927e-11  1.9399026e-11  8.1000093      12.150014      16.200018      1594.3285    
        27   0             -322.56         0.0078968439   0.0061554748   0.0061554749   0.011379582    9.0039936e-12  4.4301836e-12 -2.6915974e-12  8.1000093      12.150014      16.200018      1594.3285    
Loop time of 0.00702 on 1 procs for 25 steps with 96 atoms

0.0% CPU use with 1 MPI tasks x 1 OpenMP threads

Minimization stats:
  Stopping criterion = force tolerance
  Energy initial, next-to-last, final = 
     -322.559998843122  -322.559998865643  -322.559998865644
  Force two-norm initial, final = 0.00051426266 5.551644e-11
  Force max component initial, final = 7.9678315e-05 8.3076324e-12
  Final line search alpha, max atom move = 1 8.3076324e-12
  Iterations, force evaluations = 25 50

MPI task timing breakdown:
Section |  min time  |  avg time  |  max time  |%varavg| %total
---------------------------------------------------------------
Pair    | 0.006565   | 0.006565   | 0.006565   |   0.0 | 93.52
Neigh   | 0          | 0          | 0          |   0.0 |  0.00
Comm    | 0.000145   | 0.000145   | 0.000145   |   0.0 |  2.07
Output  | 0.000214   | 0.000214   | 0.000214   |   0.0 |  3.05
Modify  | 0          | 0          | 0          |   0.0 |  0.00
Other   |            | 9.6e-05    |            |       |  1.37

Nlocal:             96 ave          96 max          96 min
Histogram: 1 0 0 0 0 0 0 0 0 0
Nghost:            976 ave         976 max         976 min
Histogram: 1 0 0 0 0 0 0 0 0 0
Neighs:           4128 ave        4128 max        4128 min
Histogram: 1 0 0 0 0 0 0 0 0 0

Total # of neighbors = 4128
Ave neighs/atom = 43
Neighbor list builds = 0
Dangerous builds = 0
OMP_NUM_THREADS environment is not set. Defaulting to 1 thread. (src/comm.cpp:98)
  using 1 OpenMP thread(s) per MPI task
Loaded 1 plugins from F:\Lammps\LAMMPS 64-bit 2Aug2023\plugins

The 'box' command has been removed and will be ignored

Reading restart file ...
  restart file = 2 Aug 2023, LAMMPS = 2 Aug 2023
  restoring atom style atomic from restart
  triclinic box = (-4.6617854e-06 -6.9926781e-06 -9.3235709e-06) to (8.1000047 12.150007 16.200009) with tilt (0 0 0)
  1 by 1 by 1 MPI processor grid
  pair style eam/alloy stores no restart info
  96 atoms
  read_restart CPU = 0.000 seconds
Changing box ...
  triclinic box = (-4.6617854e-06 -6.9926781e-06 -9.3235709e-06) to (8.1000047 12.150007 16.200009) with tilt (0 0 0)
Neighbor list info ...
  update: every = 1 steps, delay = 0 steps, check = yes
  max neighbors/atom: 2000, page size: 100000
  master list distance cutoff = 7.28721
  ghost atom cutoff = 7.28721
  1 neighbor lists, perpetual/occasional/extra = 1 0 0
  (1) pair eam/alloy, perpetual
      attributes: half, newton on
      pair build: half/nsq/newton
      stencil: none
      bin: none
Setting up cg style minimization ...
  Unit style    : metal
  Current step  : 2
Per MPI rank memory allocation (min/avg/max) = 4.447 | 4.447 | 4.447 Mbytes
   Step          Temp          PotEng         Press           Pxx            Pyy            Pzz            Pxy            Pxz            Pyz             Lx             Ly             Lz           Volume    
         2   0             -322.56        -0.0078712788  -0.006130795   -0.006131535   -0.011351506    7.9868172e-07  3.1983166e-06  1.7198728e-06  8.1000093      12.150014      16.200019      1594.3285    
         3   0             -322.56        -0.0078930718  -0.00615166    -0.0061522872  -0.011375268   -2.5755598e-07 -5.3869412e-07 -4.454187e-07   8.1000093      12.150014      16.200019      1594.3285    
         4   0             -322.56        -0.0078960178  -0.0061546424  -0.006154831   -0.01137858    -9.834789e-08   9.4904673e-08  8.8499896e-08  8.1000093      12.150014      16.200019      1594.3285    
         5   0             -322.56        -0.0078966493  -0.0061552772  -0.0061553273  -0.011379343   -2.7292909e-08 -5.0865698e-09  1.0745578e-08  8.1000093      12.150014      16.200019      1594.3285    
         6   0             -322.56        -0.0078967772  -0.0061554249  -0.0061554141  -0.011379493   -4.4660972e-08 -1.5710695e-09  2.0609826e-09  8.1000093      12.150014      16.200019      1594.3285    
         7   0             -322.56        -0.0078968063  -0.0061554446  -0.0061554446  -0.01137953    -2.9817936e-08  9.1504976e-10 -4.524882e-10   8.1000093      12.150014      16.200019      1594.3285    
         8   0             -322.56        -0.007896823   -0.0061554565  -0.0061554619  -0.01137955    -1.5054787e-08 -1.0520218e-09 -1.4537764e-10  8.1000093      12.150014      16.200019      1594.3285    
         9   0             -322.56        -0.0078968338  -0.0061554658  -0.0061554692  -0.011379567   -6.8513007e-09 -1.9958513e-10 -5.5447952e-10  8.1000093      12.150014      16.200019      1594.3285    
        10   0             -322.56        -0.0078968397  -0.0061554714  -0.0061554718  -0.011379576   -2.276701e-09   5.248173e-10  -3.6827118e-10  8.1000093      12.150014      16.200019      1594.3285    
        11   0             -322.56        -0.0078968419  -0.0061554733  -0.0061554729  -0.011379579   -6.8000943e-10  4.1264602e-11 -9.8034112e-11  8.1000093      12.150014      16.200019      1594.3285    
        12   0             -322.56        -0.0078968426  -0.0061554739  -0.0061554736  -0.01137958    -2.9702577e-10  1.0160958e-12  3.9104865e-11  8.1000093      12.150014      16.200019      1594.3285    
        13   0             -322.56        -0.007896843   -0.0061554741  -0.0061554741  -0.011379581   -2.1241787e-11 -1.2775089e-11  2.3788561e-11  8.1000093      12.150014      16.200019      1594.3285    
        14   0             -322.56        -0.0078968431  -0.0061554742  -0.0061554742  -0.011379581   -1.4950387e-11 -1.6268079e-11  2.6891568e-11  8.1000093      12.150014      16.200019      1594.3285    
        15   0             -322.56        -0.0078968432  -0.0061554743  -0.0061554743  -0.011379581   -1.9319917e-11  8.0572534e-12 -8.9045851e-12  8.1000093      12.150014      16.200019      1594.3285    
        16   0             -322.56        -0.0078968432  -0.0061554743  -0.0061554743  -0.011379581   -1.452045e-12  -1.2781046e-11 -1.1889051e-11  8.1000093      12.150014      16.200019      1594.3285    
        17   0             -322.56        -0.0078968432  -0.0061554743  -0.0061554743  -0.011379581   -4.4971716e-12  4.3179374e-12  8.3432545e-12  8.1000093      12.150014      16.200019      1594.3285    
        18   0             -322.56        -0.0078968432  -0.0061554743  -0.0061554743  -0.011379581    1.5800398e-11  1.8118083e-11  1.732803e-11   8.1000093      12.150014      16.200019      1594.3285    
        19   0             -322.56        -0.0078968432  -0.0061554743  -0.0061554743  -0.011379581   -1.3809096e-11  2.1527533e-12  6.3594217e-12  8.1000093      12.150014      16.200019      1594.3285    
        20   0             -322.56        -0.0078968432  -0.0061554744  -0.0061554743  -0.011379581    1.0439566e-11 -3.2941428e-11 -7.1264573e-12  8.1000093      12.150014      16.200019      1594.3285    
        21   0             -322.56        -0.0078968432  -0.0061554743  -0.0061554743  -0.011379581   -4.3688373e-12  1.3678015e-11 -2.5308686e-11  8.1000093      12.150014      16.200019      1594.3285    
        22   0             -322.56        -0.0078968432  -0.0061554744  -0.0061554743  -0.011379581    2.1588067e-12  4.3847375e-12 -2.8993943e-11  8.1000093      12.150014      16.200019      1594.3285    
        23   0             -322.56        -0.0078968432  -0.0061554743  -0.0061554743  -0.011379581   -1.8165381e-11  1.7884836e-11 -1.8590152e-11  8.1000093      12.150014      16.200019      1594.3285    
        24   0             -322.56        -0.0078968432  -0.0061554744  -0.0061554743  -0.011379581   -1.1207271e-11  3.3832269e-12 -1.1442775e-11  8.1000093      12.150014      16.200019      1594.3285    
        25   0             -322.56        -0.0078968432  -0.0061554743  -0.0061554743  -0.011379581    1.1043151e-11 -9.0276218e-12 -3.1542592e-11  8.1000093      12.150014      16.200019      1594.3285    
        26   0             -322.56        -0.0078968432  -0.0061554743  -0.0061554743  -0.011379581    7.9803343e-12  1.3222812e-11 -1.4155292e-12  8.1000093      12.150014      16.200019      1594.3285    
        27   0             -322.56        -0.0078968432  -0.0061554743  -0.0061554742  -0.011379581   -7.3672411e-12  6.1053734e-13 -2.3687451e-11  8.1000093      12.150014      16.200019      1594.3285    
Loop time of 0.006923 on 1 procs for 25 steps with 96 atoms

0.0% CPU use with 1 MPI tasks x 1 OpenMP threads

Minimization stats:
  Stopping criterion = force tolerance
  Energy initial, next-to-last, final = 
     -322.559998843122  -322.559998865643  -322.559998865644
  Force two-norm initial, final = 0.00051426265 5.5491317e-11
  Force max component initial, final = 7.9678312e-05 8.3161811e-12
  Final line search alpha, max atom move = 1 8.3161811e-12
  Iterations, force evaluations = 25 50

MPI task timing breakdown:
Section |  min time  |  avg time  |  max time  |%varavg| %total
---------------------------------------------------------------
Pair    | 0.00647    | 0.00647    | 0.00647    |   0.0 | 93.46
Neigh   | 0          | 0          | 0          |   0.0 |  0.00
Comm    | 0.000125   | 0.000125   | 0.000125   |   0.0 |  1.81
Output  | 0.000207   | 0.000207   | 0.000207   |   0.0 |  2.99
Modify  | 0          | 0          | 0          |   0.0 |  0.00
Other   |            | 0.000121   |            |       |  1.75

Nlocal:             96 ave          96 max          96 min
Histogram: 1 0 0 0 0 0 0 0 0 0
Nghost:            976 ave         976 max         976 min
Histogram: 1 0 0 0 0 0 0 0 0 0
Neighs:           4128 ave        4128 max        4128 min
Histogram: 1 0 0 0 0 0 0 0 0 0

Total # of neighbors = 4128
Ave neighs/atom = 43
Neighbor list builds = 0
Dangerous builds = 0
OMP_NUM_THREADS environment is not set. Defaulting to 1 thread. (src/comm.cpp:98)
  using 1 OpenMP thread(s) per MPI task
Loaded 1 plugins from F:\Lammps\LAMMPS 64-bit 2Aug2023\plugins

The 'box' command has been removed and will be ignored

Reading restart file ...
  restart file = 2 Aug 2023, LAMMPS = 2 Aug 2023
  restoring atom style atomic from restart
  triclinic box = (-4.6617854e-06 -6.9926781e-06 -9.3235709e-06) to (8.1000047 12.150007 16.200009) with tilt (0 0 0)
  1 by 1 by 1 MPI processor grid
  pair style eam/alloy stores no restart info
  96 atoms
  read_restart CPU = 0.000 seconds
Changing box ...
  triclinic box = (-4.6617854e-06 -6.9926781e-06 -9.3235709e-06) to (8.1000047 12.150007 16.200009) with tilt (0 0 -1.6200019e-07)
Neighbor list info ...
  update: every = 1 steps, delay = 0 steps, check = yes
  max neighbors/atom: 2000, page size: 100000
  master list distance cutoff = 7.28721
  ghost atom cutoff = 7.28721
  1 neighbor lists, perpetual/occasional/extra = 1 0 0
  (1) pair eam/alloy, perpetual
      attributes: half, newton on
      pair build: half/nsq/newton
      stencil: none
      bin: none
Setting up cg style minimization ...
  Unit style    : metal
  Current step  : 2
Per MPI rank memory allocation (min/avg/max) = 4.447 | 4.447 | 4.447 Mbytes
   Step          Temp          PotEng         Press           Pxx            Pyy            Pzz            Pxy            Pxz            Pyz             Lx             Ly             Lz           Volume    
         2   0             -322.56         2.5564661e-05  2.4679555e-05  2.3939607e-05  2.8074821e-05  7.987093e-07   3.1983341e-06  0.0031611774   8.1000093      12.150014      16.200019      1594.3285    
         3   0             -322.56         3.7717963e-06  3.8147165e-06  3.187404e-06   4.3132685e-06 -2.5753979e-07 -5.3871872e-07  0.0031590121   8.1000093      12.150014      16.200019      1594.3285    
         4   0             -322.56         8.2574127e-07  8.3221758e-07  6.435663e-07   1.0014399e-06 -9.8347468e-08  9.4898822e-08  0.003159546    8.1000093      12.150014      16.200019      1594.3285    
         5   0             -322.56         1.9424066e-07  1.974415e-07   1.4722855e-07  2.3805193e-07 -2.7295239e-08 -5.0912188e-09  0.0031594682   8.1000093      12.150014      16.200019      1594.3285    
         6   0             -322.56         6.6315221e-08  4.9760976e-08  6.0488031e-08  8.8696655e-08 -4.4640878e-08 -1.5805553e-09  0.0031594596   8.1000093      12.150014      16.200019      1594.3285    
         7   0             -322.56         3.7272409e-08  3.0022349e-08  3.0067259e-08  5.1727617e-08 -2.9803819e-08  9.1458519e-10  0.0031594571   8.1000093      12.150014      16.200019      1594.3285    
         8   0             -322.56         2.0563241e-08  1.8139625e-08  1.2691722e-08  3.0858376e-08 -1.5062162e-08 -1.0564024e-09  0.0031594574   8.1000093      12.150014      16.200019      1594.3285    
         9   0             -322.56         9.681463e-09   8.884356e-09   5.3324937e-09  1.4827539e-08 -6.841532e-09  -2.3267123e-10  0.003159457    8.1000093      12.150014      16.200019      1594.3285    
        10   0             -322.56         3.8365004e-09  3.1830376e-09  2.7511263e-09  5.5753372e-09 -2.2903716e-09  5.222971e-10   0.0031594571   8.1000093      12.150014      16.200019      1594.3285    
        11   0             -322.56         1.6251734e-09  1.3434958e-09  1.6387679e-09  1.8932564e-09 -6.8101219e-10  4.759698e-11   0.0031594574   8.1000093      12.150014      16.200019      1594.3285    
        12   0             -322.56         8.8426933e-10  7.1711714e-10  9.6857411e-10  9.6711674e-10 -2.951991e-10   2.3917496e-12  0.0031594575   8.1000093      12.150014      16.200019      1594.3285    
        13   0             -322.56         5.2138554e-10  5.0434362e-10  5.0174583e-10  5.5806716e-10 -1.6866655e-11  1.1771152e-11  0.0031594575   8.1000093      12.150014      16.200019      1594.3285    
        14   0             -322.56         3.852893e-10   3.7105457e-10  4.0957954e-10  3.7523378e-10  4.8533637e-12 -2.8623781e-12  0.0031594575   8.1000093      12.150014      16.200019      1594.3285    
        15   0             -322.56         3.1383002e-10  3.0113395e-10  3.0453402e-10  3.358221e-10  -1.0279732e-11  9.2824547e-12  0.0031594575   8.1000093      12.150014      16.200019      1594.3285    
        16   0             -322.56         3.2550078e-10  3.0732661e-10  3.3615332e-10  3.3302242e-10  1.0686157e-11 -8.5505856e-12  0.0031594575   8.1000093      12.150014      16.200019      1594.3285    
        17   0             -322.56         3.168168e-10   2.9445722e-10  3.1977711e-10  3.3621608e-10 -1.0218123e-11 -9.5302759e-12  0.0031594575   8.1000093      12.150014      16.200019      1594.3285    
        18   0             -322.56         2.9582027e-10  2.9309893e-10  2.8735243e-10  3.0700946e-10  1.274793e-11  -1.2522218e-11  0.0031594575   8.1000093      12.150014      16.200019      1594.3285    
        19   0             -322.56         3.6246842e-10  3.6012657e-10  3.5236217e-10  3.7491651e-10  2.7171061e-12  7.1044468e-12  0.0031594575   8.1000093      12.150014      16.200019      1594.3285    
        20   0             -322.56         3.3483322e-10  3.3790396e-10  3.1809312e-10  3.4850259e-10  1.4351751e-11  6.1250434e-12  0.0031594575   8.1000093      12.150014      16.200019      1594.3285    
        21   0             -322.56         2.7734819e-10  2.717844e-10   2.6313502e-10  2.9712516e-10  3.5850108e-12 -1.7017351e-11  0.0031594575   8.1000093      12.150014      16.200019      1594.3285    
        22   0             -322.56         2.9616347e-10  2.9452947e-10  2.7374801e-10  3.2021293e-10  1.66654e-11   -1.8302554e-11  0.0031594575   8.1000093      12.150014      16.200019      1594.3285    
        23   0             -322.56         3.4010418e-10  3.3931749e-10  3.2258725e-10  3.5840781e-10  1.1741915e-11  3.6931024e-11  0.0031594575   8.1000093      12.150014      16.200019      1594.3285    
        24   0             -322.56         3.4558538e-10  3.5290213e-10  3.3984206e-10  3.4401195e-10 -3.6437371e-13  2.1025658e-12  0.0031594575   8.1000093      12.150014      16.200019      1594.3285    
        25   0             -322.56         3.1294464e-10  3.3405081e-10  2.9691945e-10  3.0786365e-10 -5.4645652e-12  8.5610493e-12  0.0031594575   8.1000093      12.150014      16.200019      1594.3285    
        26   0             -322.56         3.5087109e-10  3.412715e-10   3.2284525e-10  3.8849652e-10  4.3320677e-14 -1.6131417e-11  0.0031594575   8.1000093      12.150014      16.200019      1594.3285    
        27   0             -322.56         3.2282201e-10  3.2271277e-10  2.910586e-10   3.5469466e-10  1.6990243e-11 -9.0481597e-12  0.0031594575   8.1000093      12.150014      16.200019      1594.3285    
Loop time of 0.007238 on 1 procs for 25 steps with 96 atoms

0.0% CPU use with 1 MPI tasks x 1 OpenMP threads

Minimization stats:
  Stopping criterion = force tolerance
  Energy initial, next-to-last, final = 
     -322.559998843123  -322.559998865643  -322.559998865643
  Force two-norm initial, final = 0.00051426266 5.5529155e-11
  Force max component initial, final = 7.9678313e-05 8.3343332e-12
  Final line search alpha, max atom move = 1 8.3343332e-12
  Iterations, force evaluations = 25 50

MPI task timing breakdown:
Section |  min time  |  avg time  |  max time  |%varavg| %total
---------------------------------------------------------------
Pair    | 0.006775   | 0.006775   | 0.006775   |   0.0 | 93.60
Neigh   | 0          | 0          | 0          |   0.0 |  0.00
Comm    | 0.000128   | 0.000128   | 0.000128   |   0.0 |  1.77
Output  | 0.000224   | 0.000224   | 0.000224   |   0.0 |  3.09
Modify  | 0          | 0          | 0          |   0.0 |  0.00
Other   |            | 0.000111   |            |       |  1.53

Nlocal:             96 ave          96 max          96 min
Histogram: 1 0 0 0 0 0 0 0 0 0
Nghost:            976 ave         976 max         976 min
Histogram: 1 0 0 0 0 0 0 0 0 0
Neighs:           4128 ave        4128 max        4128 min
Histogram: 1 0 0 0 0 0 0 0 0 0

Total # of neighbors = 4128
Ave neighs/atom = 43
Neighbor list builds = 0
Dangerous builds = 0
OMP_NUM_THREADS environment is not set. Defaulting to 1 thread. (src/comm.cpp:98)
  using 1 OpenMP thread(s) per MPI task
Loaded 1 plugins from F:\Lammps\LAMMPS 64-bit 2Aug2023\plugins

The 'box' command has been removed and will be ignored

Reading restart file ...
  restart file = 2 Aug 2023, LAMMPS = 2 Aug 2023
  restoring atom style atomic from restart
  triclinic box = (-4.6617854e-06 -6.9926781e-06 -9.3235709e-06) to (8.1000047 12.150007 16.200009) with tilt (0 0 0)
  1 by 1 by 1 MPI processor grid
  pair style eam/alloy stores no restart info
  96 atoms
  read_restart CPU = 0.000 seconds
Changing box ...
  triclinic box = (-4.6617854e-06 -6.9926781e-06 -9.3235709e-06) to (8.1000047 12.150007 16.200009) with tilt (0 0 1.6200019e-07)
Neighbor list info ...
  update: every = 1 steps, delay = 0 steps, check = yes
  max neighbors/atom: 2000, page size: 100000
  master list distance cutoff = 7.28721
  ghost atom cutoff = 7.28721
  1 neighbor lists, perpetual/occasional/extra = 1 0 0
  (1) pair eam/alloy, perpetual
      attributes: half, newton on
      pair build: half/nsq/newton
      stencil: none
      bin: none
Setting up cg style minimization ...
  Unit style    : metal
  Current step  : 2
Per MPI rank memory allocation (min/avg/max) = 4.447 | 4.447 | 4.447 Mbytes
   Step          Temp          PotEng         Press           Pxx            Pyy            Pzz            Pxy            Pxz            Pyz             Lx             Ly             Lz           Volume    
         2   0             -322.56         2.5564714e-05  2.4679587e-05  2.3939644e-05  2.8074911e-05  7.9870298e-07  3.1983266e-06 -0.0031577376   8.1000093      12.150014      16.200019      1594.3285    
         3   0             -322.56         3.7718249e-06  3.8147323e-06  3.1874809e-06  4.3132614e-06 -2.575838e-07  -5.3872489e-07 -0.0031599029   8.1000093      12.150014      16.200019      1594.3285    
         4   0             -322.56         8.2575172e-07  8.3223138e-07  6.4354605e-07  1.0014777e-06 -9.8330861e-08  9.489012e-08  -0.003159369    8.1000093      12.150014      16.200019      1594.3285    
         5   0             -322.56         1.9424749e-07  1.9742943e-07  1.4723747e-07  2.3807557e-07 -2.7319992e-08 -5.1177111e-09 -0.0031594468   8.1000093      12.150014      16.200019      1594.3285    
         6   0             -322.56         6.6287474e-08  4.9727244e-08  6.0441925e-08  8.8693252e-08 -4.4642241e-08 -1.5612143e-09 -0.0031594555   8.1000093      12.150014      16.200019      1594.3285    
         7   0             -322.56         3.7246454e-08  3.0009997e-08  3.0062563e-08  5.1666802e-08 -2.9814992e-08  9.2558132e-10 -0.003159458    8.1000093      12.150014      16.200019      1594.3285    
         8   0             -322.56         2.0536376e-08  1.8138049e-08  1.2645044e-08  3.0826035e-08 -1.5073416e-08 -1.0387241e-09 -0.0031594577   8.1000093      12.150014      16.200019      1594.3285    
         9   0             -322.56         9.6712731e-09  8.88088e-09    5.3472069e-09  1.4785732e-08 -6.8445578e-09 -1.9971711e-10 -0.0031594581   8.1000093      12.150014      16.200019      1594.3285    
        10   0             -322.56         3.8749742e-09  3.207656e-09   2.8558057e-09  5.5614608e-09 -2.2820449e-09  5.5368262e-10 -0.0031594579   8.1000093      12.150014      16.200019      1594.3285    
        11   0             -322.56         1.6204352e-09  1.3432762e-09  1.6468741e-09  1.8711553e-09 -7.0978509e-10  3.3684722e-11 -0.0031594576   8.1000093      12.150014      16.200019      1594.3285    
        12   0             -322.56         8.9207217e-10  7.3328415e-10  9.9031608e-10  9.5261628e-10 -3.0365453e-10  9.9909625e-12 -0.0031594575   8.1000093      12.150014      16.200019      1594.3285    
        13   0             -322.56         5.3092583e-10  5.0088848e-10  5.3689e-10     5.5499901e-10 -3.4390378e-11  2.0080089e-11 -0.0031594575   8.1000093      12.150014      16.200019      1594.3285    
        14   0             -322.56         3.8299633e-10  3.7418199e-10  3.8458813e-10  3.9021886e-10 -1.3827364e-12 -1.4390179e-11 -0.0031594575   8.1000093      12.150014      16.200019      1594.3285    
        15   0             -322.56         3.5606346e-10  3.6282801e-10  3.5802429e-10  3.4733809e-10  8.6632491e-12 -3.2194139e-12 -0.0031594575   8.1000093      12.150014      16.200019      1594.3285    
        16   0             -322.56         3.129737e-10   3.1776178e-10  2.8662723e-10  3.3453208e-10 -1.5368421e-11  1.3952599e-11 -0.0031594575   8.1000093      12.150014      16.200019      1594.3285    
        17   0             -322.56         3.5007825e-10  3.2756178e-10  3.6509148e-10  3.575815e-10  -5.7763346e-12 -1.4067578e-11 -0.0031594575   8.1000093      12.150014      16.200019      1594.3285    
        18   0             -322.56         3.6785188e-10  3.4500632e-10  3.5391368e-10  4.0463565e-10 -1.2500067e-11  6.6359209e-13 -0.0031594575   8.1000093      12.150014      16.200019      1594.3285    
        19   0             -322.56         3.4964846e-10  3.4382358e-10  3.4276726e-10  3.6235456e-10  1.0757392e-11 -1.885796e-11  -0.0031594575   8.1000093      12.150014      16.200019      1594.3285    
        20   0             -322.56         3.5770134e-10  3.6588681e-10  3.5943982e-10  3.4777739e-10 -9.7191819e-13  1.538772e-11  -0.0031594575   8.1000093      12.150014      16.200019      1594.3285    
        21   0             -322.56         3.1727472e-10  3.1520558e-10  2.7831535e-10  3.5830321e-10 -6.3083395e-12 -1.1070077e-11 -0.0031594575   8.1000093      12.150014      16.200019      1594.3285    
        22   0             -322.56         3.1422483e-10  3.1694783e-10  2.8529886e-10  3.404278e-10  -4.7938985e-12  2.3060995e-11 -0.0031594575   8.1000093      12.150014      16.200019      1594.3285    
        23   0             -322.56         3.1421557e-10  3.0155842e-10  2.9997016e-10  3.4111813e-10 -3.5031392e-12  7.5186689e-12 -0.0031594575   8.1000093      12.150014      16.200019      1594.3285    
        24   0             -322.56         3.0422589e-10  2.8078335e-10  3.1180343e-10  3.200909e-10   7.3717593e-12 -1.0951086e-11 -0.0031594575   8.1000093      12.150014      16.200019      1594.3285    
        25   0             -322.56         3.1796523e-10  3.3467838e-10  3.1379772e-10  3.054196e-10  -5.0755023e-12  1.989396e-12  -0.0031594575   8.1000093      12.150014      16.200019      1594.3285    
        26   0             -322.56         3.2836441e-10  3.6433486e-10  3.2632829e-10  2.9443007e-10  6.0572823e-12 -1.234857e-11  -0.0031594575   8.1000093      12.150014      16.200019      1594.3285    
        27   0             -322.56         3.4687555e-10  3.4858279e-10  3.3278534e-10  3.5925852e-10 -2.2314295e-11 -7.4822503e-12 -0.0031594575   8.1000093      12.150014      16.200019      1594.3285    
Loop time of 0.007171 on 1 procs for 25 steps with 96 atoms

217.9% CPU use with 1 MPI tasks x 1 OpenMP threads

Minimization stats:
  Stopping criterion = force tolerance
  Energy initial, next-to-last, final = 
     -322.559998843124  -322.559998865644  -322.559998865642
  Force two-norm initial, final = 0.00051426265 5.5467731e-11
  Force max component initial, final = 7.9678314e-05 8.3180407e-12
  Final line search alpha, max atom move = 1 8.3180407e-12
  Iterations, force evaluations = 25 50

MPI task timing breakdown:
Section |  min time  |  avg time  |  max time  |%varavg| %total
---------------------------------------------------------------
Pair    | 0.006706   | 0.006706   | 0.006706   |   0.0 | 93.52
Neigh   | 0          | 0          | 0          |   0.0 |  0.00
Comm    | 0.000145   | 0.000145   | 0.000145   |   0.0 |  2.02
Output  | 0.000217   | 0.000217   | 0.000217   |   0.0 |  3.03
Modify  | 0          | 0          | 0          |   0.0 |  0.00
Other   |            | 0.000103   |            |       |  1.44

Nlocal:             96 ave          96 max          96 min
Histogram: 1 0 0 0 0 0 0 0 0 0
Nghost:            976 ave         976 max         976 min
Histogram: 1 0 0 0 0 0 0 0 0 0
Neighs:           4128 ave        4128 max        4128 min
Histogram: 1 0 0 0 0 0 0 0 0 0

Total # of neighbors = 4128
Ave neighs/atom = 43
Neighbor list builds = 0
Dangerous builds = 0
OMP_NUM_THREADS environment is not set. Defaulting to 1 thread. (src/comm.cpp:98)
  using 1 OpenMP thread(s) per MPI task
Loaded 1 plugins from F:\Lammps\LAMMPS 64-bit 2Aug2023\plugins

The 'box' command has been removed and will be ignored

Reading restart file ...
  restart file = 2 Aug 2023, LAMMPS = 2 Aug 2023
  restoring atom style atomic from restart
  triclinic box = (-4.6617854e-06 -6.9926781e-06 -9.3235709e-06) to (8.1000047 12.150007 16.200009) with tilt (0 0 0)
  1 by 1 by 1 MPI processor grid
  pair style eam/alloy stores no restart info
  96 atoms
  read_restart CPU = 0.000 seconds
Changing box ...
  triclinic box = (-4.6617854e-06 -6.9926781e-06 -9.3235709e-06) to (8.1000047 12.150007 16.200009) with tilt (0 -1.6200019e-07 0)
Neighbor list info ...
  update: every = 1 steps, delay = 0 steps, check = yes
  max neighbors/atom: 2000, page size: 100000
  master list distance cutoff = 7.28721
  ghost atom cutoff = 7.28721
  1 neighbor lists, perpetual/occasional/extra = 1 0 0
  (1) pair eam/alloy, perpetual
      attributes: half, newton on
      pair build: half/nsq/newton
      stencil: none
      bin: none
Setting up cg style minimization ...
  Unit style    : metal
  Current step  : 2
Per MPI rank memory allocation (min/avg/max) = 4.447 | 4.447 | 4.447 Mbytes
   Step          Temp          PotEng         Press           Pxx            Pyy            Pzz            Pxy            Pxz            Pyz             Lx             Ly             Lz           Volume    
         2   0             -322.56         2.5564687e-05  2.4679542e-05  2.393964e-05   2.807488e-05   7.9867914e-07  0.0031626558   1.7198427e-06  8.1000093      12.150014      16.200019      1594.3285    
         3   0             -322.56         3.7717888e-06  3.8146815e-06  3.1874397e-06  4.3132452e-06 -2.5755197e-07  0.0031589188  -4.4538043e-07  8.1000093      12.150014      16.200019      1594.3285    
         4   0             -322.56         8.2571792e-07  8.3215541e-07  6.4357e-07     1.0014284e-06 -9.8323671e-08  0.0031595524   8.846583e-08   8.1000093      12.150014      16.200019      1594.3285    
         5   0             -322.56         1.9422137e-07  1.9739283e-07  1.4724548e-07  2.3802582e-07 -2.7301566e-08  0.0031594524   1.0705456e-08  8.1000093      12.150014      16.200019      1594.3285    
         6   0             -322.56         6.6246475e-08  4.9662271e-08  6.0431933e-08  8.8645222e-08 -4.4655584e-08  0.0031594559   2.0517503e-09  8.1000093      12.150014      16.200019      1594.3285    
         7   0             -322.56         3.7230278e-08  2.9962878e-08  3.0074396e-08  5.165356e-08  -2.9823371e-08  0.0031594584  -4.5902544e-10  8.1000093      12.150014      16.200019      1594.3285    
         8   0             -322.56         2.0568047e-08  1.8127314e-08  1.2725318e-08  3.0851508e-08 -1.5081456e-08  0.0031594565  -1.4924419e-10  8.1000093      12.150014      16.200019      1594.3285    
         9   0             -322.56         9.6923725e-09  8.8575902e-09  5.4056062e-09  1.4813921e-08 -6.84431e-09    0.0031594573  -5.496716e-10   8.1000093      12.150014      16.200019      1594.3285    
        10   0             -322.56         3.8360671e-09  3.1419461e-09  2.8138733e-09  5.5523819e-09 -2.2808363e-09  0.003159458   -3.8652315e-10  8.1000093      12.150014      16.200019      1594.3285    
        11   0             -322.56         1.6475885e-09  1.3212771e-09  1.6947476e-09  1.9267409e-09 -6.8393114e-10  0.0031594576  -1.0486422e-10  8.1000093      12.150014      16.200019      1594.3285    
        12   0             -322.56         9.01225e-10    7.0952209e-10  1.0497613e-09  9.4439157e-10 -2.8766369e-10  0.0031594575   2.3056391e-11  8.1000093      12.150014      16.200019      1594.3285    
        13   0             -322.56         5.7965881e-10  5.2157251e-10  6.1300782e-10  6.043961e-10  -2.3874011e-11  0.0031594575   1.912359e-11   8.1000093      12.150014      16.200019      1594.3285    
        14   0             -322.56         4.2265142e-10  3.7063077e-10  4.6016553e-10  4.3715795e-10 -1.6589214e-11  0.0031594575   1.7851009e-12  8.1000093      12.150014      16.200019      1594.3285    
        15   0             -322.56         3.0662815e-10  2.5555148e-10  3.6617579e-10  2.9815717e-10  6.1380991e-12  0.0031594575  -5.9061735e-12  8.1000093      12.150014      16.200019      1594.3285    
        16   0             -322.56         3.1426368e-10  2.61789e-10    3.6799227e-10  3.1300977e-10  1.0065928e-11  0.0031594575   7.701734e-12   8.1000093      12.150014      16.200019      1594.3285    
        17   0             -322.56         3.2390025e-10  2.8725752e-10  3.7140906e-10  3.1303417e-10  9.7783875e-12  0.0031594575   1.0811714e-11  8.1000093      12.150014      16.200019      1594.3285    
        18   0             -322.56         3.4796592e-10  2.9447965e-10  3.8560619e-10  3.6381192e-10  7.2928213e-12  0.0031594575  -2.061931e-11   8.1000093      12.150014      16.200019      1594.3285    
        19   0             -322.56         3.2670129e-10  2.8609011e-10  3.4613524e-10  3.478785e-10  -1.1412789e-11  0.0031594575   2.7927066e-11  8.1000093      12.150014      16.200019      1594.3285    
        20   0             -322.56         3.5714461e-10  2.7507664e-10  3.9940237e-10  3.9695483e-10 -1.4641977e-11  0.0031594575   1.8785397e-11  8.1000093      12.150014      16.200019      1594.3285    
        21   0             -322.56         2.9739217e-10  2.4975986e-10  3.2382497e-10  3.1859169e-10 -9.2879723e-12  0.0031594575   1.0564171e-12  8.1000093      12.150014      16.200019      1594.3285    
        22   0             -322.56         2.9998464e-10  2.5299083e-10  3.4591559e-10  3.010475e-10   1.2912909e-11  0.0031594575   4.9369196e-12  8.1000093      12.150014      16.200019      1594.3285    
        23   0             -322.56         3.271447e-10   2.8575379e-10  3.4685695e-10  3.4882335e-10  2.5915559e-12  0.0031594575   1.5079221e-11  8.1000093      12.150014      16.200019      1594.3285    
        24   0             -322.56         2.9886238e-10  2.4310076e-10  3.3979325e-10  3.1369312e-10  1.275664e-12   0.0031594575   1.074547e-11   8.1000093      12.150014      16.200019      1594.3285    
        25   0             -322.56         3.2775067e-10  2.7288995e-10  3.5853681e-10  3.5182525e-10 -5.7460789e-12  0.0031594575  -2.7173977e-11  8.1000093      12.150014      16.200019      1594.3285    
        26   0             -322.56         3.1078876e-10  2.5861273e-10  3.4042431e-10  3.3332923e-10 -2.9192618e-11  0.0031594575   9.9296235e-12  8.1000093      12.150014      16.200019      1594.3285    
        27   0             -322.56         3.1871016e-10  2.6220738e-10  3.5168927e-10  3.4223382e-10  1.356881e-11   0.0031594575   2.0298549e-11  8.1000093      12.150014      16.200019      1594.3285    
Loop time of 0.008135 on 1 procs for 25 steps with 96 atoms

192.1% CPU use with 1 MPI tasks x 1 OpenMP threads

Minimization stats:
  Stopping criterion = force tolerance
  Energy initial, next-to-last, final = 
     -322.559998843123  -322.559998865645  -322.559998865645
  Force two-norm initial, final = 0.00051426266 5.5500345e-11
  Force max component initial, final = 7.9678313e-05 8.3045792e-12
  Final line search alpha, max atom move = 1 8.3045792e-12
  Iterations, force evaluations = 25 50

MPI task timing breakdown:
Section |  min time  |  avg time  |  max time  |%varavg| %total
---------------------------------------------------------------
Pair    | 0.007573   | 0.007573   | 0.007573   |   0.0 | 93.09
Neigh   | 0          | 0          | 0          |   0.0 |  0.00
Comm    | 0.000161   | 0.000161   | 0.000161   |   0.0 |  1.98
Output  | 0.000277   | 0.000277   | 0.000277   |   0.0 |  3.41
Modify  | 0          | 0          | 0          |   0.0 |  0.00
Other   |            | 0.000124   |            |       |  1.52

Nlocal:             96 ave          96 max          96 min
Histogram: 1 0 0 0 0 0 0 0 0 0
Nghost:            976 ave         976 max         976 min
Histogram: 1 0 0 0 0 0 0 0 0 0
Neighs:           4128 ave        4128 max        4128 min
Histogram: 1 0 0 0 0 0 0 0 0 0

Total # of neighbors = 4128
Ave neighs/atom = 43
Neighbor list builds = 0
Dangerous builds = 0
OMP_NUM_THREADS environment is not set. Defaulting to 1 thread. (src/comm.cpp:98)
  using 1 OpenMP thread(s) per MPI task
Loaded 1 plugins from F:\Lammps\LAMMPS 64-bit 2Aug2023\plugins

The 'box' command has been removed and will be ignored

Reading restart file ...
  restart file = 2 Aug 2023, LAMMPS = 2 Aug 2023
  restoring atom style atomic from restart
  triclinic box = (-4.6617854e-06 -6.9926781e-06 -9.3235709e-06) to (8.1000047 12.150007 16.200009) with tilt (0 0 0)
  1 by 1 by 1 MPI processor grid
  pair style eam/alloy stores no restart info
  96 atoms
  read_restart CPU = 0.000 seconds
Changing box ...
  triclinic box = (-4.6617854e-06 -6.9926781e-06 -9.3235709e-06) to (8.1000047 12.150007 16.200009) with tilt (0 1.6200019e-07 0)
Neighbor list info ...
  update: every = 1 steps, delay = 0 steps, check = yes
  max neighbors/atom: 2000, page size: 100000
  master list distance cutoff = 7.28721
  ghost atom cutoff = 7.28721
  1 neighbor lists, perpetual/occasional/extra = 1 0 0
  (1) pair eam/alloy, perpetual
      attributes: half, newton on
      pair build: half/nsq/newton
      stencil: none
      bin: none
Setting up cg style minimization ...
  Unit style    : metal
  Current step  : 2
Per MPI rank memory allocation (min/avg/max) = 4.447 | 4.447 | 4.447 Mbytes
[...]
        26   0             -322.56         3.1344698e-10  2.7414619e-10  3.1486808e-10  3.5132668e-10 -2.5366957e-12 -0.0031594575  -1.2523598e-11  8.1000093      12.150014      16.200019      1594.3285    
        27   0             -322.56         3.2941412e-10  2.9782322e-10  3.7721761e-10  3.1320152e-10  1.0719258e-11 -0.0031594575  -2.2418356e-12  8.1000093      12.150014      16.200019      1594.3285    
Loop time of 0.007424 on 1 procs for 25 steps with 96 atoms

0.0% CPU use with 1 MPI tasks x 1 OpenMP threads

Minimization stats:
  Stopping criterion = force tolerance
  Energy initial, next-to-last, final = 
     -322.559998843123  -322.559998865644  -322.559998865644
  Force two-norm initial, final = 0.00051426265 5.5472445e-11
  Force max component initial, final = 7.9678314e-05 8.3051066e-12
  Final line search alpha, max atom move = 1 8.3051066e-12
  Iterations, force evaluations = 25 50

MPI task timing breakdown:
Section |  min time  |  avg time  |  max time  |%varavg| %total
---------------------------------------------------------------
Pair    | 0.006896   | 0.006896   | 0.006896   |   0.0 | 92.89
Neigh   | 0          | 0          | 0          |   0.0 |  0.00
Comm    | 0.00016    | 0.00016    | 0.00016    |   0.0 |  2.16
Output  | 0.00025    | 0.00025    | 0.00025    |   0.0 |  3.37
Modify  | 0          | 0          | 0          |   0.0 |  0.00
Other   |            | 0.000118   |            |       |  1.59

Nlocal:             96 ave          96 max          96 min
Histogram: 1 0 0 0 0 0 0 0 0 0
Nghost:            976 ave         976 max         976 min
Histogram: 1 0 0 0 0 0 0 0 0 0
Neighs:           4128 ave        4128 max        4128 min
Histogram: 1 0 0 0 0 0 0 0 0 0

Total # of neighbors = 4128
Ave neighs/atom = 43
Neighbor list builds = 0
Dangerous builds = 0
OMP_NUM_THREADS environment is not set. Defaulting to 1 thread. (src/comm.cpp:98)
  using 1 OpenMP thread(s) per MPI task
Loaded 1 plugins from F:\Lammps\LAMMPS 64-bit 2Aug2023\plugins

The 'box' command has been removed and will be ignored

Reading restart file ...
  restart file = 2 Aug 2023, LAMMPS = 2 Aug 2023
  restoring atom style atomic from restart
  triclinic box = (-4.6617854e-06 -6.9926781e-06 -9.3235709e-06) to (8.1000047 12.150007 16.200009) with tilt (0 0 0)
  1 by 1 by 1 MPI processor grid
  pair style eam/alloy stores no restart info
  96 atoms
  read_restart CPU = 0.000 seconds
Changing box ...
  triclinic box = (-4.6617854e-06 -6.9926781e-06 -9.3235709e-06) to (8.1000047 12.150007 16.200009) with tilt (-1.2150014e-07 0 0)
Neighbor list info ...
  update: every = 1 steps, delay = 0 steps, check = yes
  max neighbors/atom: 2000, page size: 100000
  master list distance cutoff = 7.28721
  ghost atom cutoff = 7.28721
  1 neighbor lists, perpetual/occasional/extra = 1 0 0
  (1) pair eam/alloy, perpetual
      attributes: half, newton on
      pair build: half/nsq/newton
      stencil: none
      bin: none
Setting up cg style minimization ...
  Unit style    : metal
  Current step  : 2
Per MPI rank memory allocation (min/avg/max) = 4.447 | 4.447 | 4.447 Mbytes
   Step          Temp          PotEng         Press           Pxx            Pyy            Pzz            Pxy            Pxz            Pyz             Lx             Ly             Lz           Volume    
         2   0             -322.56         2.5564688e-05  2.4679533e-05  2.3939648e-05  2.8074885e-05  0.0031602562   3.1983456e-06  1.7198549e-06  8.1000093      12.150014      16.200019      1594.3285    
         3   0             -322.56         3.7717993e-06  3.8146861e-06  3.1874807e-06  4.313231e-06   0.0031591999  -5.387154e-07  -4.454118e-07   8.1000093      12.150014      16.200019      1594.3285    
         4   0             -322.56         8.2573902e-07  8.3219492e-07  6.4359608e-07  1.0014261e-06  0.0031593592   9.4869135e-08  8.846782e-08   8.1000093      12.150014      16.200019      1594.3285    
         5   0             -322.56         1.9425553e-07  1.9742467e-07  1.4729019e-07  2.3805173e-07  0.0031594302  -5.0831451e-09  1.0707785e-08  8.1000093      12.150014      16.200019      1594.3285    
         6   0             -322.56         6.6281676e-08  4.9679152e-08  6.0499599e-08  8.8666277e-08  0.0031594129  -1.5798405e-09  2.076013e-09   8.1000093      12.150014      16.200019      1594.3285    
         7   0             -322.56         3.7248614e-08  2.9981374e-08  3.0086494e-08  5.1677973e-08  0.0031594277   9.0763492e-10 -4.5342956e-10  8.1000093      12.150014      16.200019      1594.3285    
         8   0             -322.56         2.055746e-08   1.8128088e-08  1.2707202e-08  3.0837091e-08  0.0031594424  -1.0602114e-09 -1.5779315e-10  8.1000093      12.150014      16.200019      1594.3285    
         9   0             -322.56         9.6624627e-09  8.8487833e-09  5.3660097e-09  1.4772595e-08  0.0031594507  -1.9241172e-10 -5.6034037e-10  8.1000093      12.150014      16.200019      1594.3285    
        10   0             -322.56         3.8664533e-09  3.1850954e-09  2.8580859e-09  5.5561787e-09  0.0031594552   5.2180098e-10 -3.5997326e-10  8.1000093      12.150014      16.200019      1594.3285    
        11   0             -322.56         1.6143585e-09  1.2963624e-09  1.6833954e-09  1.8633176e-09  0.0031594568   2.2180704e-11 -1.0832982e-10  8.1000093      12.150014      16.200019      1594.3285    
        12   0             -322.56         8.862771e-10   7.2066851e-10  1.0033383e-09  9.3482455e-10  0.0031594572   2.4884572e-11  1.8373987e-11  8.1000093      12.150014      16.200019      1594.3285    
        13   0             -322.56         5.3414571e-10  4.7689269e-10  5.6886492e-10  5.5667952e-10  0.0031594575  -3.8568363e-12  3.9735927e-11  8.1000093      12.150014      16.200019      1594.3285    
        14   0             -322.56         3.7843298e-10  3.439205e-10   4.357738e-10   3.5560464e-10  0.0031594575  -1.0309903e-12 -5.6481707e-13  8.1000093      12.150014      16.200019      1594.3285    
        15   0             -322.56         3.6830478e-10  3.3812286e-10  3.7437261e-10  3.9241886e-10  0.0031594575   1.2565638e-11 -2.6640538e-11  8.1000093      12.150014      16.200019      1594.3285    
        16   0             -322.56         3.4446279e-10  3.1885295e-10  4.0743881e-10  3.0709662e-10  0.0031594575  -1.1834248e-11 -2.5451633e-12  8.1000093      12.150014      16.200019      1594.3285    
        17   0             -322.56         3.4174429e-10  3.1247555e-10  3.6883252e-10  3.4392478e-10  0.0031594575   2.4828259e-12 -3.4760655e-12  8.1000093      12.150014      16.200019      1594.3285    
        18   0             -322.56         3.1507753e-10  2.9184384e-10  3.63662e-10    2.8972675e-10  0.0031594575   4.3875745e-12  4.5011039e-12  8.1000093      12.150014      16.200019      1594.3285    
        19   0             -322.56         3.0664098e-10  2.8850628e-10  3.5964553e-10  2.7177115e-10  0.0031594575  -1.2199535e-11 -5.0031635e-12  8.1000093      12.150014      16.200019      1594.3285    
        20   0             -322.56         3.5559311e-10  2.9577963e-10  4.2270282e-10  3.4829689e-10  0.0031594575   4.5537851e-12  1.0721065e-11  8.1000093      12.150014      16.200019      1594.3285    
        21   0             -322.56         3.3586598e-10  2.6798392e-10  4.0885085e-10  3.3076315e-10  0.0031594575  -9.241496e-12  -1.3736909e-11  8.1000093      12.150014      16.200019      1594.3285    
        22   0             -322.56         3.6061647e-10  3.0226938e-10  4.0864515e-10  3.7093489e-10  0.0031594575   6.7875858e-12 -3.9153677e-12  8.1000093      12.150014      16.200019      1594.3285    
        23   0             -322.56         3.4871932e-10  2.9944189e-10  4.1765084e-10  3.2906521e-10  0.0031594575  -2.8346651e-12 -1.0658307e-11  8.1000093      12.150014      16.200019      1594.3285    
        24   0             -322.56         3.3176123e-10  2.9236188e-10  3.9268035e-10  3.1024146e-10  0.0031594575   1.1123601e-11  1.0208546e-11  8.1000093      12.150014      16.200019      1594.3285    
        25   0             -322.56         3.392318e-10   2.7202181e-10  3.9891426e-10  3.4675933e-10  0.0031594575  -3.1170995e-12  2.0615823e-11  8.1000093      12.150014      16.200019      1594.3285    
        26   0             -322.56         3.1702848e-10  2.7585708e-10  3.6509496e-10  3.1013338e-10  0.0031594575  -1.4658556e-11 -1.2638654e-11  8.1000093      12.150014      16.200019      1594.3285    
        27   0             -322.56         3.1227171e-10  2.4451327e-10  3.7433077e-10  3.1797109e-10  0.0031594575  -1.3809032e-11  3.2041166e-12  8.1000093      12.150014      16.200019      1594.3285    
Loop time of 0.007433 on 1 procs for 25 steps with 96 atoms

0.0% CPU use with 1 MPI tasks x 1 OpenMP threads

Minimization stats:
  Stopping criterion = force tolerance
  Energy initial, next-to-last, final = 
     -322.559998843123  -322.559998865645  -322.559998865643
  Force two-norm initial, final = 0.00051426266 5.5503196e-11
  Force max component initial, final = 7.9678313e-05 8.3192897e-12
  Final line search alpha, max atom move = 1 8.3192897e-12
  Iterations, force evaluations = 25 50

MPI task timing breakdown:
Section |  min time  |  avg time  |  max time  |%varavg| %total
---------------------------------------------------------------
Pair    | 0.006931   | 0.006931   | 0.006931   |   0.0 | 93.25
Neigh   | 0          | 0          | 0          |   0.0 |  0.00
Comm    | 0.000148   | 0.000148   | 0.000148   |   0.0 |  1.99
Output  | 0.000235   | 0.000235   | 0.000235   |   0.0 |  3.16
Modify  | 0          | 0          | 0          |   0.0 |  0.00
Other   |            | 0.000119   |            |       |  1.60

Nlocal:             96 ave          96 max          96 min
Histogram: 1 0 0 0 0 0 0 0 0 0
Nghost:            976 ave         976 max         976 min
Histogram: 1 0 0 0 0 0 0 0 0 0
Neighs:           4128 ave        4128 max        4128 min
Histogram: 1 0 0 0 0 0 0 0 0 0

Total # of neighbors = 4128
Ave neighs/atom = 43
Neighbor list builds = 0
Dangerous builds = 0
OMP_NUM_THREADS environment is not set. Defaulting to 1 thread. (src/comm.cpp:98)
  using 1 OpenMP thread(s) per MPI task
Loaded 1 plugins from F:\Lammps\LAMMPS 64-bit 2Aug2023\plugins

The 'box' command has been removed and will be ignored

Reading restart file ...
  restart file = 2 Aug 2023, LAMMPS = 2 Aug 2023
  restoring atom style atomic from restart
  triclinic box = (-4.6617854e-06 -6.9926781e-06 -9.3235709e-06) to (8.1000047 12.150007 16.200009) with tilt (0 0 0)
  1 by 1 by 1 MPI processor grid
  pair style eam/alloy stores no restart info
  96 atoms
  read_restart CPU = 0.000 seconds
Changing box ...
  triclinic box = (-4.6617854e-06 -6.9926781e-06 -9.3235709e-06) to (8.1000047 12.150007 16.200009) with tilt (1.2150014e-07 0 0)
Neighbor list info ...
  update: every = 1 steps, delay = 0 steps, check = yes
  max neighbors/atom: 2000, page size: 100000
  master list distance cutoff = 7.28721
  ghost atom cutoff = 7.28721
  1 neighbor lists, perpetual/occasional/extra = 1 0 0
  (1) pair eam/alloy, perpetual
      attributes: half, newton on
      pair build: half/nsq/newton
      stencil: none
      bin: none
Setting up cg style minimization ...
  Unit style    : metal
  Current step  : 2
Per MPI rank memory allocation (min/avg/max) = 4.447 | 4.447 | 4.447 Mbytes
   Step          Temp          PotEng         Press           Pxx            Pyy            Pzz            Pxy            Pxz            Pyz             Lx             Ly             Lz           Volume    
         2   0             -322.56         2.5564659e-05  2.4679513e-05  2.3939628e-05  2.8074835e-05 -0.0031586588   3.1983165e-06  1.7198579e-06  8.1000093      12.150014      16.200019      1594.3285    
         3   0             -322.56         3.7717819e-06  3.8146732e-06  3.187455e-06   4.3132176e-06 -0.0031597151  -5.3873681e-07 -4.453741e-07   8.1000093      12.150014      16.200019      1594.3285    
         4   0             -322.56         8.2574314e-07  8.3219692e-07  6.435848e-07   1.0014477e-06 -0.0031595559   9.4907807e-08  8.8466269e-08  8.1000093      12.150014      16.200019      1594.3285    
         5   0             -322.56         1.9429574e-07  1.9744508e-07  1.473192e-07   2.3812293e-07 -0.0031594848  -5.0947025e-09  1.0709608e-08  8.1000093      12.150014      16.200019      1594.3285    
         6   0             -322.56         6.6306026e-08  4.9737043e-08  6.0521917e-08  8.8659119e-08 -0.0031595022  -1.5783471e-09  2.0726904e-09  8.1000093      12.150014      16.200019      1594.3285    
         7   0             -322.56         3.7243832e-08  2.9970943e-08  3.0090051e-08  5.1670501e-08 -0.0031594873   9.2756345e-10 -4.2578839e-10  8.1000093      12.150014      16.200019      1594.3285    
         8   0             -322.56         2.0580228e-08  1.813466e-08   1.2762858e-08  3.0843168e-08 -0.0031594726  -1.0695573e-09 -1.7423561e-10  8.1000093      12.150014      16.200019      1594.3285    
         9   0             -322.56         9.6689721e-09  8.8552438e-09  5.3777174e-09  1.4773955e-08 -0.0031594644  -1.9639173e-10 -5.5140441e-10  8.1000093      12.150014      16.200019      1594.3285    
        10   0             -322.56         3.8266811e-09  3.1442219e-09  2.825724e-09   5.5100973e-09 -0.0031594598   5.1957514e-10 -4.1044768e-10  8.1000093      12.150014      16.200019      1594.3285    
        11   0             -322.56         1.6241982e-09  1.3129082e-09  1.6550814e-09  1.904605e-09  -0.0031594582   3.213938e-11  -8.3272166e-11  8.1000093      12.150014      16.200019      1594.3285    
        12   0             -322.56         8.5819774e-10  6.8519295e-10  9.5878046e-10  9.306198e-10  -0.0031594578   1.0638369e-11  2.3450368e-11  8.1000093      12.150014      16.200019      1594.3285    
        13   0             -322.56         5.6258881e-10  5.086585e-10   6.1288928e-10  5.6621865e-10 -0.0031594576   2.060429e-11   1.205989e-11   8.1000093      12.150014      16.200019      1594.3285    
        14   0             -322.56         4.0883927e-10  3.8158634e-10  4.666156e-10   3.7831587e-10 -0.0031594575   1.2950031e-11  6.7568857e-12  8.1000093      12.150014      16.200019      1594.3285    
        15   0             -322.56         3.5221556e-10  2.8606186e-10  4.249586e-10   3.4562621e-10 -0.0031594575   8.956502e-13   1.0703632e-11  8.1000093      12.150014      16.200019      1594.3285    
        16   0             -322.56         3.2614368e-10  2.8712981e-10  3.5545472e-10  3.358465e-10  -0.0031594575  -2.0243883e-11  6.6139381e-12  8.1000093      12.150014      16.200019      1594.3285    
        17   0             -322.56         2.9640455e-10  2.8607966e-10  3.190031e-10   2.8413088e-10 -0.0031594575  -4.6501696e-13  9.1556149e-12  8.1000093      12.150014      16.200019      1594.3285    
        18   0             -322.56         2.8511215e-10  2.3843417e-10  3.2313463e-10  2.9376763e-10 -0.0031594575  -7.3902645e-12 -6.6209112e-12  8.1000093      12.150014      16.200019      1594.3285    
        19   0             -322.56         3.1008126e-10  2.7258054e-10  3.5622176e-10  3.0144147e-10 -0.0031594575   1.1006708e-11  1.2715357e-11  8.1000093      12.150014      16.200019      1594.3285    
        20   0             -322.56         3.5107135e-10  2.9044256e-10  4.1157034e-10  3.5120116e-10 -0.0031594575   9.7735724e-12  1.4106481e-11  8.1000093      12.150014      16.200019      1594.3285    
        21   0             -322.56         3.1078652e-10  2.5679651e-10  3.3790007e-10  3.3766298e-10 -0.0031594575   6.4484878e-12  9.999354e-12   8.1000093      12.150014      16.200019      1594.3285    
        22   0             -322.56         3.0790283e-10  2.5678506e-10  3.4004079e-10  3.2688265e-10 -0.0031594575   8.5559479e-12 -1.4657352e-11  8.1000093      12.150014      16.200019      1594.3285    
        23   0             -322.56         3.1242723e-10  2.5398552e-10  3.838455e-10   2.9945067e-10 -0.0031594575  -3.8008614e-13 -6.2757452e-13  8.1000093      12.150014      16.200019      1594.3285    
        24   0             -322.56         3.4347512e-10  2.9135874e-10  4.0356877e-10  3.3549785e-10 -0.0031594575   1.1424374e-12 -1.453881e-12   8.1000093      12.150014      16.200019      1594.3285    
        25   0             -322.56         2.9449652e-10  2.4452806e-10  3.6482301e-10  2.741385e-10  -0.0031594575  -2.855418e-12  -1.6149584e-11  8.1000093      12.150014      16.200019      1594.3285    
        26   0             -322.56         3.3910316e-10  3.0037531e-10  3.7610192e-10  3.4083224e-10 -0.0031594575   2.5395326e-11  9.9784349e-12  8.1000093      12.150014      16.200019      1594.3285    
        27   0             -322.56         3.5114447e-10  2.8617126e-10  4.0978176e-10  3.5748039e-10 -0.0031594575  -1.4037908e-12  6.9242389e-12  8.1000093      12.150014      16.200019      1594.3285    
Loop time of 0.008271 on 1 procs for 25 steps with 96 atoms

188.9% CPU use with 1 MPI tasks x 1 OpenMP threads

Minimization stats:
  Stopping criterion = force tolerance
  Energy initial, next-to-last, final = 
     -322.559998843123  -322.559998865645  -322.559998865644
  Force two-norm initial, final = 0.00051426266 5.55044e-11
  Force max component initial, final = 7.9678314e-05 8.304829e-12
  Final line search alpha, max atom move = 1 8.304829e-12
  Iterations, force evaluations = 25 50

MPI task timing breakdown:
Section |  min time  |  avg time  |  max time  |%varavg| %total
---------------------------------------------------------------
Pair    | 0.007737   | 0.007737   | 0.007737   |   0.0 | 93.54
Neigh   | 0          | 0          | 0          |   0.0 |  0.00
Comm    | 0.000142   | 0.000142   | 0.000142   |   0.0 |  1.72
Output  | 0.000274   | 0.000274   | 0.000274   |   0.0 |  3.31
Modify  | 0          | 0          | 0          |   0.0 |  0.00
Other   |            | 0.000118   |            |       |  1.43

Nlocal:             96 ave          96 max          96 min
Histogram: 1 0 0 0 0 0 0 0 0 0
Nghost:            976 ave         976 max         976 min
Histogram: 1 0 0 0 0 0 0 0 0 0
Neighs:           4128 ave        4128 max        4128 min
Histogram: 1 0 0 0 0 0 0 0 0 0

Total # of neighbors = 4128
Ave neighs/atom = 43
Neighbor list builds = 0
Dangerous builds = 0
=========================================
Components of the Elastic Constant Tensor
=========================================
Elastic Constant C11all = 113.795813840837 GPa
Elastic Constant C22all = 113.795813673327 GPa
Elastic Constant C33all = 113.795814058867 GPa
Elastic Constant C12all = 61.5547455684098 GPa
Elastic Constant C13all = 61.5547458092328 GPa
Elastic Constant C23all = 61.5547455615763 GPa
Elastic Constant C44all = 31.5945751921095 GPa
Elastic Constant C55all = 31.5945752152596 GPa
Elastic Constant C66all = 31.5945752143981 GPa
Elastic Constant C14all = -2.77527402828126e-08 GPa
Elastic Constant C15all = -1.06993947398609e-07 GPa
Elastic Constant C16all = -1.03098819020122e-07 GPa
Elastic Constant C24all = -1.93763633916526e-07 GPa
Elastic Constant C25all = -7.84843782500845e-08 GPa
Elastic Constant C26all = -4.32189072323168e-08 GPa
Elastic Constant C34all = 4.1079981496884e-08 GPa
Elastic Constant C35all = 8.21298521888632e-08 GPa
Elastic Constant C36all = -5.78451696933355e-08 GPa
Elastic Constant C45all = 5.24361886918798e-08 GPa
Elastic Constant C46all = 8.89610380028111e-08 GPa
Elastic Constant C56all = -2.38892226283369e-08 GPa
=========================================
Average properties for a cubic crystal
=========================================
Bulk Modulus = 78.9684350501632 GPa
Shear Modulus 1 = 31.5945752072557 GPa
Shear Modulus 2 = 26.1205341056354 GPa
Poisson Ratio = 0.351038204956357
Total wall time: 0:00:00
