LAMMPS (2 Aug 2023 - Update 3)
OMP_NUM_THREADS environment is not set. Defaulting to 1 thread. (src/comm.cpp:98)
  using 1 OpenMP thread(s) per MPI task
Loaded 1 plugins from F:\Lammps\LAMMPS 64-bit 2Aug2023\plugins
Reading data file ...
  orthogonal box = (0 0 0) to (17.79 17.79 17.79)
  1 by 1 by 1 MPI processor grid
  reading atoms ...
  500 atoms
  read_data CPU = 0.001 seconds
Changing box ...
  triclinic box = (0 0 0) to (17.79 17.79 17.79) with tilt (0 0 0)
Neighbor list info ...
  update: every = 1 steps, delay = 0 steps, check = yes
  max neighbors/atom: 2000, page size: 100000
  master list distance cutoff = 6.80375
  ghost atom cutoff = 6.80375
  1 neighbor lists, perpetual/occasional/extra = 1 0 0
  (1) pair eam/alloy, perpetual
      attributes: half, newton on
      pair build: half/nsq/newton
      stencil: none
      bin: none
Setting up cg style minimization ...
  Unit style    : metal
  Current step  : 0
WARNING: Energy due to 3 extra global DOFs will be included in minimizer energies
 (src/min.cpp:228)
Per MPI rank memory allocation (min/avg/max) = 4.492 | 4.492 | 4.492 Mbytes
   Step          Temp          PotEng         Press           Pxx            Pyy            Pzz            Pxy            Pxz            Pyz             Lx             Ly             Lz           Volume    
         0   0             -2179.7633     -33225.435     -33319.924     -33205.746     -33150.636     -150.31038     -47.488879     -90.648512      17.79          17.79          17.79          5630.2521    
         1   0             -2179.7979     -32685.44      -32778.816     -32666.596     -32610.907     -149.81176     -47.208392     -90.714954      17.788221      17.788227      17.78823       5628.568     
         2   0             -2179.832      -32145.023     -32237.286     -32127.026     -32070.758     -149.31158     -46.928517     -90.777738      17.786442      17.786454      17.78646       5626.8843    
         3   0             -2179.8655     -31604.18      -31695.328     -31587.028     -31530.183     -148.8097      -46.649769     -90.836496      17.784663      17.784681      17.78469       5625.2009    
         4   0             -2179.8984     -31062.923     -31152.956     -31046.617     -30989.195     -148.30633     -46.371866     -90.89156       17.782884      17.782908      17.782921      5623.5178    
         5   0             -2179.9308     -30521.328     -30610.252     -30505.861     -30447.872     -147.80392     -46.09378      -90.943573      17.781105      17.781135      17.781151      5621.8351    
         6   0             -2179.9626     -29979.444     -30067.265     -29964.807     -29906.261     -147.30384     -45.814175     -90.993751      17.779326      17.779362      17.779381      5620.1528    
         7   0             -2179.9938     -29437.272     -29523.995     -29423.457     -29364.364     -146.80621     -45.533001     -91.042273      17.777547      17.77759       17.777612      5618.4709    
         8   0             -2180.0244     -28894.764     -28980.388     -28881.77      -28822.134     -146.30755     -45.251424     -91.087339      17.775768      17.775817      17.775843      5616.7893    
         9   0             -2180.0544     -28351.859     -28436.381     -28339.691     -28279.506     -145.80683     -44.971062     -91.128768      17.773989      17.774044      17.774073      5615.108     
        10   0             -2180.0839     -27808.525     -27891.941     -27797.187     -27736.448     -145.30546     -44.69214      -91.166762      17.77221       17.772271      17.772304      5613.4272    
        11   0             -2180.1128     -27264.782     -27347.093     -27254.274     -27192.979     -144.80498     -44.414091     -91.201877      17.770431      17.770498      17.770535      5611.7467    
        12   0             -2180.1411     -26720.676     -26801.886     -26710.991     -26649.152     -144.30762     -44.135351     -91.233892      17.768652      17.768725      17.768766      5610.0666    
        13   0             -2180.1689     -26176.232     -26256.341     -26167.363     -26104.991     -143.81273     -43.855087     -91.262455      17.766873      17.766952      17.766997      5608.3868    
        14   0             -2180.196      -25631.494     -25710.504     -25623.434     -25560.544     -143.31624     -43.572289     -91.28722       17.765094      17.765179      17.765228      5606.7074    
        15   0             -2180.2226     -25086.425     -25164.332     -25079.174     -25015.77      -142.81719     -43.288336     -91.309481      17.763315      17.763406      17.76346       5605.0284    
        16   0             -2180.2486     -24540.983     -24617.789     -24534.539     -24470.621     -142.31591     -43.003395     -91.330649      17.761536      17.761633      17.761691      5603.3498    
        17   0             -2180.274      -23995.145     -24070.852     -23989.509     -23925.074     -141.81267     -42.719161     -91.349774      17.759757      17.75986       17.759923      5601.6715    
        18   0             -2180.2989     -23448.899     -23523.511     -23444.069     -23379.117     -141.31142     -42.436243     -91.365294      17.757978      17.758087      17.758155      5599.9936    
        19   0             -2180.3232     -22902.324     -22975.837     -22898.296     -22832.838     -140.81148     -42.154411     -91.374166      17.756199      17.756314      17.756387      5598.3161    
        20   0             -2180.3469     -22355.435     -22427.845     -22352.207     -22286.254     -140.31292     -41.873379     -91.376297      17.75442       17.754541      17.754619      5596.639     
        21   0             -2180.37       -21808.266     -21879.565     -21805.835     -21739.397     -139.81469     -41.593116     -91.373824      17.752641      17.752768      17.752851      5594.9623    
        22   0             -2180.3925     -21260.742     -21330.929     -21259.108     -21192.19      -139.3149      -41.314167     -91.369506      17.750862      17.750995      17.751084      5593.2859    
        23   0             -2180.4145     -20712.898     -20781.974     -20712.059     -20644.66      -138.81412     -41.036926     -91.364406      17.749083      17.749222      17.749316      5591.6099    
        24   0             -2180.4359     -20164.727     -20232.695     -20164.682     -20096.805     -138.31303     -40.761141     -91.35811       17.747304      17.747449      17.747549      5589.9344    
        25   0             -2180.4567     -19616.273     -19683.139     -19617.017     -19548.663     -137.81358     -40.48497      -91.348484      17.745525      17.745676      17.745782      5588.2592    
        26   0             -2180.4769     -19067.552     -19133.315     -19069.082     -19000.26      -137.31605     -40.208317     -91.335949      17.743746      17.743903      17.744015      5586.5844    
        27   0             -2180.4966     -18518.516     -18583.174     -18520.828     -18451.544     -136.81981     -39.931054     -91.319547      17.741967      17.74213       17.742248      5584.91      
        28   0             -2180.5157     -17969.164     -18032.715     -17972.258     -17902.52      -136.32375     -39.653701     -91.298948      17.740188      17.740357      17.740482      5583.2361    
        29   0             -2180.5342     -17419.511     -17481.953     -17423.382     -17353.199     -135.8261      -39.37823      -91.273679      17.738409      17.738584      17.738716      5581.5625    
        30   0             -2180.5521     -16869.572     -16930.9       -16874.217     -16803.6       -135.32678     -39.104819     -91.243873      17.73663       17.736811      17.73695       5579.8894    
        31   0             -2180.5694     -16319.375     -16379.588     -16324.786     -16253.75      -134.82652     -38.834066     -91.209912      17.734851      17.735038      17.735185      5578.2166    
        32   0             -2180.5862     -15768.888     -15827.983     -15775.062     -15703.619     -134.32678     -38.564788     -91.173495      17.733072      17.733265      17.733419      5576.5444    
        33   0             -2180.6024     -15218.075     -15276.046     -15225.009     -15153.17      -133.82911     -38.294717     -91.132838      17.731293      17.731492      17.731654      5574.8725    
        34   0             -2180.618      -14666.941     -14723.783     -14674.631     -14602.409     -133.33356     -38.023733     -91.087392      17.729514      17.729719      17.72989       5573.2011    
        35   0             -2180.633      -14115.492     -14171.201     -14123.933     -14051.34      -132.83969     -37.751642     -91.037219      17.727735      17.727946      17.728125      5571.5301    
        36   0             -2180.6475     -13563.802     -13618.381     -13572.99      -13500.035     -132.34549     -37.481267     -90.983695      17.725956      17.726173      17.726361      5569.8595    
        37   0             -2180.6613     -13011.906     -13065.352     -13021.836     -12948.53      -131.85102     -37.214015     -90.928614      17.724177      17.7244        17.724598      5568.1895    
        38   0             -2180.6746     -12459.811     -12512.122     -12470.477     -12396.835     -131.35634     -36.949999     -90.872267      17.722398      17.722627      17.722835      5566.5199    
        39   0             -2180.6873     -11907.486     -11958.647     -11918.882     -11844.93      -130.8617      -36.68911      -90.812776      17.720619      17.720854      17.721072      5564.8508    
        40   0             -2180.6995     -11354.874     -11404.877     -11366.989     -11292.755     -130.36736     -36.430007     -90.750101      17.71884       17.719081      17.71931       5563.1822    
        41   0             -2180.711      -10801.947     -10850.784     -10814.772     -10740.284     -129.87168     -36.171934     -90.68297       17.717061      17.717308      17.717549      5561.5141    
        42   0             -2180.722      -10248.732     -10296.4       -10262.257     -10187.539     -129.37456     -35.914669     -90.611588      17.715282      17.715534      17.715788      5559.8465    
        43   0             -2180.7324     -9695.3094     -9741.7996     -9709.5257     -9634.603      -128.87711     -35.657131     -90.53409       17.713503      17.713761      17.714028      5558.1795    
        44   0             -2180.7422     -9141.709      -9187.0081     -9156.6066     -9081.5122     -128.38005     -35.399996     -90.450874      17.711724      17.711988      17.712268      5556.513     
        45   0             -2180.7515     -8587.9796     -8632.0704     -8603.547      -8528.3215     -127.88436     -35.144915     -90.36227       17.709945      17.710215      17.71051       5554.8472    
        46   0             -2180.7601     -8034.0751     -8076.9392     -8050.2975     -7974.9887     -127.38894     -34.893429     -90.270597      17.708166      17.708442      17.708752      5553.182     
        47   0             -2180.7682     -7480.0021     -7521.6225     -7496.8642     -7421.5196     -126.89255     -34.646653     -90.176826      17.706387      17.706669      17.706996      5551.5174    
        48   0             -2180.7757     -6925.7763     -6966.134      -6943.259      -6867.9359     -126.39568     -34.40285      -90.080386      17.704608      17.704896      17.705241      5549.8536    
        49   0             -2180.7827     -6371.4063     -6410.4821     -6389.4868     -6314.2499     -125.8987      -34.160223     -89.98029       17.702829      17.703123      17.703487      5548.1905    
        50   0             -2180.789      -5816.8929     -5854.6581     -5835.5408     -5760.4798     -125.40283     -33.916487     -89.875412      17.70105       17.70135       17.701734      5546.5283    
        51   0             -2180.7948     -5262.2608     -5298.6875     -5281.4408     -5206.654      -124.90754     -33.67173      -89.765926      17.699271      17.699576      17.699984      5544.867     
        52   0             -2180.8        -4707.5685     -4742.6217     -4727.2397     -4652.844      -124.41196     -33.427098     -89.652748      17.697492      17.697803      17.698236      5543.2067    
        53   0             -2180.8047     -4152.9172     -4186.5632     -4173.036      -4099.1523     -123.91554     -33.183811     -89.536872      17.695713      17.69603       17.696491      5541.5476    
        54   0             -2180.8087     -3598.4402     -3630.6222     -3618.9483     -3545.75       -123.4184      -32.943177     -89.419148      17.693934      17.694257      17.694749      5539.89      
        55   0             -2180.8122     -3044.2229     -3074.8654     -3065.0446     -2992.7588     -122.92036     -32.705757     -89.299629      17.692155      17.692484      17.693012      5538.234     
        56   0             -2180.8152     -2490.3527     -2519.3408     -2511.3831     -2440.3343     -122.42162     -32.471169     -89.176208      17.690376      17.69071       17.69128       5536.5802    
        57   0             -2180.8175     -1936.9772     -1964.1622     -1958.0687     -1888.7008     -121.9207      -32.239578     -89.046742      17.688597      17.688937      17.689557      5534.9294    
        58   0             -2180.8193     -1384.5        -1409.6613     -1405.4302     -1338.4084     -121.41668     -32.009535     -88.911271      17.686818      17.687164      17.687847      5533.2827    
        59   0             -2180.8206     -833.80619     -856.58258     -854.19258     -790.6434      -120.90598     -31.779847     -88.771115      17.685039      17.68539       17.686158      5531.6431    
        60   0             -2180.8215     -287.49163     -307.0976      -306.50658     -248.87071     -120.37986     -31.551684     -88.633016      17.68326       17.683616      17.684516      5530.0184    
        61   0             -2180.8222      239.36888      226.35934      225.28476      266.46253     -119.78111     -31.330868     -88.507631      17.681481      17.68184       17.683074      5528.4562    
        62   0             -2180.8242     -166.58412     -167.94867     -167.42134     -164.38234     -119.75815     -31.489333     -88.634748      17.682552      17.682902      17.684853      5529.6794    
        63   0             -2180.8262      373.83725      377.50959      376.29092      367.71125     -118.89206     -31.2237       -88.517012      17.680773      17.681127      17.683317      5528.0878    
        64   0             -2180.8281     -172.45798     -168.75691     -168.1281      -180.48893     -119.02958     -31.409933     -88.67154       17.682508      17.682856      17.685096      5529.7272    
        65   0             -2180.8311      362.11167      363.92561      362.70317      359.70622     -117.96904     -31.097385     -88.561157      17.680891      17.681245      17.683317      5528.1616    
        66   0             -2180.8329     -185.52027     -185.74623     -185.15496     -185.65962     -118.11569     -31.278262     -88.714327      17.68267       17.683018      17.685019      5529.8046    
        67   0             -2180.8363      371.36817      371.03253      369.74855      373.32342     -116.96493     -30.950806     -88.603914      17.680952      17.681306      17.68324       5528.1755    
        68   0             -2180.8382     -183.48823     -184.63731     -184.06314     -181.76424     -117.09599     -31.134927     -88.760508      17.682731      17.683078      17.685015      5529.8408    
        69   0             -2180.8418      381.84753      382.47089      381.17826      381.89345     -115.8938      -30.802177     -88.652625      17.680952      17.681304      17.683283      5528.1885    
        70   0             -2180.8437     -171.2271      -171.14348     -170.58743     -171.9504      -116.01712     -30.984693     -88.809217      17.68272       17.683066      17.685062      5529.8486    
        71   0             -2180.8475      398.53468      399.48498      398.14402      397.97504     -114.76506     -30.63907      -88.703499      17.680947      17.681298      17.683283      5528.1851    
        72   0             -2180.8494     -155.8055      -155.76262     -155.26402     -156.38986     -114.89429     -30.820812     -88.859912      17.682726      17.683071      17.685052      5529.8486    
        73   0             -2180.8534      411.21512      411.83231      410.44808      411.36497     -113.58492     -30.46493      -88.759506      17.68097       17.68132       17.683273      5528.1959    
        74   0             -2180.8552     -143.55407     -143.81519     -143.36287     -143.48414     -113.72766     -30.648055     -88.915202      17.682749      17.683093      17.685043      5529.8599    
        75   0             -2180.8595      429.38486      430.11139      428.67603      429.36715     -112.33645     -30.277589     -88.819507      17.68097       17.681319      17.683264      5528.1929    
        76   0             -2180.8613     -126.06981     -126.14232     -125.74427     -126.32284     -112.48937     -30.461921     -88.974668      17.682749      17.683092      17.685039      5529.8584    
        77   0             -2180.866       446.41763      447.19484      445.70938      446.34866     -110.99747     -30.073571     -88.886616      17.68098       17.681327      17.68326       5528.1969    
        78   0             -2180.8677     -109.10488     -109.16364     -108.82383     -109.32716     -111.16624     -30.259569     -89.040716      17.682759      17.6831        17.685032      5529.8619    
        79   0             -2180.8731      464.62946      465.38891      463.85158      464.64788     -109.53816     -29.846795     -88.962001      17.680992      17.681338      17.683253      5528.2023    
        80   0             -2180.8747     -91.228401     -91.298156     -91.017412     -91.369637     -109.72296     -30.035046     -89.115318      17.682771      17.683111      17.685027      5529.8674    
        81   0             -2180.8808      485.81156      486.64231      485.04635      485.74602     -107.89557     -29.586542     -89.049554      17.681002      17.681347      17.683248      5528.2063    
        82   0             -2180.8823     -70.376375     -70.369247     -70.156714     -70.603165     -108.09674     -29.77732      -89.202106      17.682781      17.68312       17.685021      5529.8715    
        83   0             -2180.89        509.04652      509.82733      508.16813      509.14409     -105.93289     -29.268947     -89.158431      17.681022      17.681366      17.683242      5528.217     
        84   0             -2180.8914     -47.516349     -47.553583     -47.416041     -47.579422     -106.15355     -29.46289      -89.310105      17.682801      17.683139      17.685016      5529.8823    
        85   0             -2180.9021      544.33347      545.40678      543.65478      543.93884     -103.25177     -28.824074     -89.312599      17.681032      17.681373      17.683237      5528.2207    
        86   0             -2180.9035     -12.499695     -12.258363     -12.230025     -13.010697     -103.49192     -29.020957     -89.463204      17.682811      17.683146      17.68501       5529.8857    
        87   0             -2180.9369      598.08763      595.93646      594.02291      604.30351     -95.240754     -27.429544     -89.825381      17.681302      17.681638      17.683231      5528.3862    
        88   0             -2180.9381      44.051975      41.535385      41.351818      49.268721     -95.509191     -27.633678     -89.972309      17.683061      17.683392      17.68501       5530.0408    
        89   0             -2180.9409     -448.24712     -446.49704     -445.0645      -453.17983     -95.210687     -27.736182     -90.142324      17.684561      17.684885      17.686789      5531.5333    
        90   0             -2180.942       113.23238      116.19999      115.88761      107.60953     -94.497134     -27.450268     -90.028249      17.682782      17.683112      17.685035      5529.8734    
        91   0             -2180.9465     -401.38531     -404.02176     -402.82833     -397.30583     -93.817221     -27.45605      -90.22869       17.684561      17.684887      17.686517      5531.4484    
        92   0             -2180.9479      159.75558      157.60974      157.05859      164.59841     -93.03633      -27.154219     -90.119727      17.6828        17.683131      17.684738      5529.7925    
        93   0             -2180.9521     -350.85194     -350.57027     -349.46563     -352.51991     -92.406306     -27.194012     -90.320893      17.684409      17.684733      17.686517      5531.353     
        94   0             -2180.9537      212.17257      213.76092      213.13682      209.61996     -91.555133     -26.879849     -90.218123      17.68263       17.68296       17.684766      5529.6944    
        95   0             -2180.9578     -330.13494     -329.8567      -328.83616     -331.71195     -90.980359     -26.924962     -90.423544      17.684409      17.684733      17.6865        5531.3478    
        96   0             -2180.9597      231.48141      232.1196       231.40347      230.92117     -90.03402      -26.588217     -90.329272      17.682657      17.682987      17.684721      5529.6975    
        97   0             -2180.9636     -309.92186     -310.86015     -309.93096     -308.97447     -89.503525     -26.639461     -90.531621      17.684436      17.684761      17.68644       5531.3461    
        98   0             -2180.9658      256.7853       256.53585      255.73565      258.08438     -88.465729     -26.282841     -90.444487      17.682666      17.682996      17.684661      5529.6843    
        99   0             -2180.9696     -288.39589     -288.98092     -288.10371     -288.10305     -87.943        -26.33991      -90.648631      17.684433      17.684757      17.68644       5531.3437    
       100   0             -2180.9721      279.92836      280.443        279.60047      279.74161     -86.814297     -25.96445      -90.569923      17.682654      17.682983      17.684675      5529.6807    
Loop time of 0.118147 on 1 procs for 100 steps with 500 atoms

92.6% CPU use with 1 MPI tasks x 1 OpenMP threads

Minimization stats:
  Stopping criterion = max iterations
  Energy initial, next-to-last, final = 
       -2179.763298879   -2180.9696164909  -2180.97210180323
  Force two-norm initial, final = 202.25814 2.687512
  Force max component initial, final = 117.09045 0.9737844
  Final line search alpha, max atom move = 0.00014699974 0.00014314605
  Iterations, force evaluations = 100 100

MPI task timing breakdown:
Section |  min time  |  avg time  |  max time  |%varavg| %total
---------------------------------------------------------------
Pair    | 0.10998    | 0.10998    | 0.10998    |   0.0 | 93.08
Neigh   | 0          | 0          | 0          |   0.0 |  0.00
Comm    | 0.000631   | 0.000631   | 0.000631   |   0.0 |  0.53
Output  | 0.001484   | 0.001484   | 0.001484   |   0.0 |  1.26
Modify  | 0          | 0          | 0          |   0.0 |  0.00
Other   |            | 0.006057   |            |       |  5.13

Nlocal:            500 ave         500 max         500 min
Histogram: 1 0 0 0 0 0 0 0 0 0
Nghost:           1956 ave        1956 max        1956 min
Histogram: 1 0 0 0 0 0 0 0 0 0
Neighs:          33500 ave       33500 max       33500 min
Histogram: 1 0 0 0 0 0 0 0 0 0

Total # of neighbors = 33500
Ave neighs/atom = 67
Neighbor list builds = 0
Dangerous builds = 0
Displacing atoms ...
System init for write_restart ...
OMP_NUM_THREADS environment is not set. Defaulting to 1 thread. (src/comm.cpp:98)
  using 1 OpenMP thread(s) per MPI task
Loaded 1 plugins from F:\Lammps\LAMMPS 64-bit 2Aug2023\plugins

The 'box' command has been removed and will be ignored

Reading restart file ...
  restart file = 2 Aug 2023, LAMMPS = 2 Aug 2023
  restoring atom style atomic from restart
  triclinic box = (0.053673209 0.053508626 0.05266226) to (17.736327 17.736491 17.737338) with tilt (0 0 0)
  1 by 1 by 1 MPI processor grid
  pair style eam/alloy stores no restart info
  500 atoms
  read_restart CPU = 0.000 seconds
Changing box ...
  triclinic box = (0.053673209 0.053508626 0.05266226) to (17.736309 17.736491 17.737338) with tilt (0 0 0)
  triclinic box = (0.053673209 0.053508626 0.05266226) to (17.736309 17.736491 17.737338) with tilt (0 0 0)
  triclinic box = (0.053673209 0.053508626 0.05266226) to (17.736309 17.736491 17.737338) with tilt (0 0 0)
Neighbor list info ...
  update: every = 1 steps, delay = 0 steps, check = yes
  max neighbors/atom: 2000, page size: 100000
  master list distance cutoff = 6.80375
  ghost atom cutoff = 6.80375
  1 neighbor lists, perpetual/occasional/extra = 1 0 0
  (1) pair eam/alloy, perpetual
      attributes: half, newton on
      pair build: half/nsq/newton
      stencil: none
      bin: none
Setting up cg style minimization ...
  Unit style    : metal
  Current step  : 100
Per MPI rank memory allocation (min/avg/max) = 4.482 | 4.482 | 4.482 Mbytes
   Step          Temp          PotEng         Press           Pxx            Pyy            Pzz            Pxy            Pxz            Pyz             Lx             Ly             Lz           Volume    
       100   0             -2180.9721      281.93728      283.07989      281.30073      281.43122     -86.819787     -25.96413      -90.602037      17.682636      17.682983      17.684675      5529.6752    
       101   0             -2181.1421      1157.9662      1170.9383      1167.4949      1135.4655     -19.231882     -11.384216     -95.512099      17.682636      17.682983      17.684675      5529.6752    
       102   0             -2181.2111      1777.4086      1782.1855      1796.4852      1753.5552      45.004995     -1.2823741     -114.66488      17.682636      17.682983      17.684675      5529.6752    
       103   0             -2181.2258      1614.0367      1594.5334      1633.0116      1614.5652      39.206869     -11.177104     -105.95556      17.682636      17.682983      17.684675      5529.6752    
       104   0             -2181.2317      1670.0579      1643.21        1691.1686      1675.795       53.693658     -2.647086      -108.33323      17.682636      17.682983      17.684675      5529.6752    
       105   0             -2181.2333      1758.4795      1728.6112      1779.3087      1767.5186      55.489083     -1.9369774     -112.20398      17.682636      17.682983      17.684675      5529.6752    
       106   0             -2181.234       1721.776       1691.1886      1739.6993      1734.4403      50.720055     -5.4926079     -111.42165      17.682636      17.682983      17.684675      5529.6752    
       107   0             -2181.2342      1706.8778      1676.694       1724.2354      1719.704       48.663058     -5.3227069     -110.70325      17.682636      17.682983      17.684675      5529.6752    
       108   0             -2181.2342      1709.4665      1679.2697      1726.7299      1722.3998      49.017272     -5.0970858     -109.07826      17.682636      17.682983      17.684675      5529.6752    
       109   0             -2181.2343      1711.8415      1680.4443      1729.0759      1726.0043      48.814518     -5.1206022     -109.19127      17.682636      17.682983      17.684675      5529.6752    
       110   0             -2181.2343      1714.0587      1681.8749      1731.0649      1729.2363      49.602935     -5.7165038     -108.93941      17.682636      17.682983      17.684675      5529.6752    
       111   0             -2181.2343      1713.0051      1680.7285      1729.792       1728.4948      49.142555     -5.5753086     -108.83921      17.682636      17.682983      17.684675      5529.6752    
       112   0             -2181.2343      1709.8763      1677.5148      1726.6648      1725.4493      49.003108     -5.3407093     -108.86265      17.682636      17.682983      17.684675      5529.6752    
       113   0             -2181.2344      1710.441       1678.1343      1727.3549      1725.8337      49.10404      -5.2574104     -108.79492      17.682636      17.682983      17.684675      5529.6752    
       114   0             -2181.2344      1711.7993      1679.348       1728.8737      1727.1763      49.24326      -5.184787      -108.72897      17.682636      17.682983      17.684675      5529.6752    
       115   0             -2181.2344      1711.8018      1679.2438      1728.8133      1727.3483      49.282037     -5.0511458     -108.93925      17.682636      17.682983      17.684675      5529.6752    
       116   0             -2181.2344      1711.5598      1678.8903      1728.5503      1727.2389      49.25012      -5.0909342     -108.95007      17.682636      17.682983      17.684675      5529.6752    
       117   0             -2181.2344      1711.3752      1678.6802      1728.4124      1727.0328      49.202544     -5.1044242     -108.99225      17.682636      17.682983      17.684675      5529.6752    
       118   0             -2181.2344      1711.4037      1678.732       1728.4681      1727.011       49.185539     -5.069027      -108.98085      17.682636      17.682983      17.684675      5529.6752    
       119   0             -2181.2344      1711.5287      1678.8758      1728.6139      1727.0965      49.188483     -5.0756577     -108.97339      17.682636      17.682983      17.684675      5529.6752    
       120   0             -2181.2344      1711.5337      1678.8673      1728.6146      1727.1193      49.207244     -5.0724333     -108.97074      17.682636      17.682983      17.684675      5529.6752    
       121   0             -2181.2344      1711.5062      1678.8282      1728.5846      1727.1058      49.210248     -5.0702179     -108.97626      17.682636      17.682983      17.684675      5529.6752    
       122   0             -2181.2344      1711.4804      1678.8043      1728.5482      1727.0888      49.20899      -5.076827      -108.96313      17.682636      17.682983      17.684675      5529.6752    
       123   0             -2181.2344      1711.4737      1678.8035      1728.5361      1727.0814      49.202834     -5.0816713     -108.9668       17.682636      17.682983      17.684675      5529.6752    
       124   0             -2181.2344      1711.4811      1678.8144      1728.5459      1727.0829      49.209878     -5.083284      -108.96838      17.682636      17.682983      17.684675      5529.6752    
       125   0             -2181.2344      1711.4802      1678.8151      1728.5462      1727.0794      49.211787     -5.080663      -108.97019      17.682636      17.682983      17.684675      5529.6752    
       126   0             -2181.2344      1711.4749      1678.8078      1728.5411      1727.0759      49.211229     -5.0805507     -108.96869      17.682636      17.682983      17.684675      5529.6752    
       127   0             -2181.2344      1711.4778      1678.8089      1728.5444      1727.0801      49.20936      -5.080931      -108.96895      17.682636      17.682983      17.684675      5529.6752    
       128   0             -2181.2344      1711.4782      1678.8095      1728.5451      1727.0802      49.20926      -5.0810598     -108.96884      17.682636      17.682983      17.684675      5529.6752    
       129   0             -2181.2344      1711.4791      1678.8106      1728.5464      1727.0804      49.208988     -5.0814844     -108.96839      17.682636      17.682983      17.684675      5529.6752    
       130   0             -2181.2344      1711.4788      1678.8103      1728.5465      1727.0797      49.209098     -5.0819017     -108.9681       17.682636      17.682983      17.684675      5529.6752    
       131   0             -2181.2344      1711.4788      1678.8103      1728.5467      1727.0793      49.208988     -5.0817619     -108.96803      17.682636      17.682983      17.684675      5529.6752    
       132   0             -2181.2344      1711.4785      1678.8101      1728.5466      1727.0787      49.209056     -5.0814087     -108.96806      17.682636      17.682983      17.684675      5529.6752    
       133   0             -2181.2344      1711.4793      1678.8111      1728.5474      1727.0795      49.209078     -5.0814143     -108.96829      17.682636      17.682983      17.684675      5529.6752    
       134   0             -2181.2344      1711.4794      1678.8113      1728.5474      1727.0794      49.209025     -5.0814497     -108.96826      17.682636      17.682983      17.684675      5529.6752    
       135   0             -2181.2344      1711.4791      1678.811       1728.5472      1727.0791      49.209042     -5.0814259     -108.96828      17.682636      17.682983      17.684675      5529.6752    
       136   0             -2181.2344      1711.479       1678.811       1728.5471      1727.0789      49.20912      -5.0813678     -108.9683       17.682636      17.682983      17.684675      5529.6752    
       137   0             -2181.2344      1711.479       1678.811       1728.5471      1727.0789      49.209123     -5.0813595     -108.96829      17.682636      17.682983      17.684675      5529.6752    
       138   0             -2181.2344      1711.479       1678.811       1728.5471      1727.0789      49.209115     -5.0813684     -108.96829      17.682636      17.682983      17.684675      5529.6752    
       139   0             -2181.2344      1711.479       1678.811       1728.5471      1727.0789      49.209103     -5.0813758     -108.96831      17.682636      17.682983      17.684675      5529.6752    
       140   0             -2181.2344      1711.479       1678.811       1728.547       1727.0789      49.209103     -5.0813706     -108.9683       17.682636      17.682983      17.684675      5529.6752    
       141   0             -2181.2344      1711.479       1678.811       1728.547       1727.0789      49.209102     -5.0813628     -108.9683       17.682636      17.682983      17.684675      5529.6752    
       142   0             -2181.2344      1711.479       1678.811       1728.547       1727.0789      49.209103     -5.0813658     -108.9683       17.682636      17.682983      17.684675      5529.6752    
       143   0             -2181.2344      1711.479       1678.811       1728.547       1727.0789      49.209099     -5.0813698     -108.9683       17.682636      17.682983      17.684675      5529.6752    
       144   0             -2181.2344      1711.479       1678.811       1728.547       1727.0789      49.209099     -5.0813713     -108.9683       17.682636      17.682983      17.684675      5529.6752    
       145   0             -2181.2344      1711.479       1678.811       1728.547       1727.0789      49.209098     -5.0813708     -108.9683       17.682636      17.682983      17.684675      5529.6752    
       146   0             -2181.2344      1711.479       1678.811       1728.547       1727.0789      49.209098     -5.0813706     -108.9683       17.682636      17.682983      17.684675      5529.6752    
       147   0             -2181.2344      1711.479       1678.811       1728.547       1727.0789      49.209099     -5.0813709     -108.9683       17.682636      17.682983      17.684675      5529.6752    
       148   0             -2181.2344      1711.479       1678.811       1728.547       1727.0789      49.209099     -5.0813711     -108.9683       17.682636      17.682983      17.684675      5529.6752    
       149   0             -2181.2344      1711.479       1678.811       1728.547       1727.0789      49.2091       -5.0813707     -108.9683       17.682636      17.682983      17.684675      5529.6752    
       150   0             -2181.2344      1711.479       1678.811       1728.547       1727.0789      49.2091       -5.0813705     -108.9683       17.682636      17.682983      17.684675      5529.6752    
       151   0             -2181.2344      1711.479       1678.811       1728.547       1727.0789      49.2091       -5.0813707     -108.9683       17.682636      17.682983      17.684675      5529.6752    
       152   0             -2181.2344      1711.479       1678.811       1728.547       1727.0789      49.209099     -5.0813707     -108.9683       17.682636      17.682983      17.684675      5529.6752    
       153   0             -2181.2344      1711.479       1678.811       1728.547       1727.0789      49.2091       -5.0813706     -108.9683       17.682636      17.682983      17.684675      5529.6752    
       154   0             -2181.2344      1711.479       1678.811       1728.547       1727.0789      49.2091       -5.0813706     -108.9683       17.682636      17.682983      17.684675      5529.6752    
       155   0             -2181.2344      1711.479       1678.811       1728.547       1727.0789      49.2091       -5.0813706     -108.9683       17.682636      17.682983      17.684675      5529.6752    
       156   0             -2181.2344      1711.479       1678.811       1728.547       1727.0789      49.2091       -5.0813706     -108.9683       17.682636      17.682983      17.684675      5529.6752    
       157   0             -2181.2344      1711.479       1678.811       1728.547       1727.0789      49.2091       -5.0813706     -108.9683       17.682636      17.682983      17.684675      5529.6752    
       158   0             -2181.2344      1711.479       1678.811       1728.547       1727.0789      49.2091       -5.0813706     -108.9683       17.682636      17.682983      17.684675      5529.6752    
       159   0             -2181.2344      1711.479       1678.811       1728.547       1727.0789      49.2091       -5.0813706     -108.9683       17.682636      17.682983      17.684675      5529.6752    
       160   0             -2181.2344      1711.479       1678.811       1728.547       1727.0789      49.2091       -5.0813706     -108.9683       17.682636      17.682983      17.684675      5529.6752    
       161   0             -2181.2344      1711.479       1678.811       1728.547       1727.0789      49.2091       -5.0813706     -108.9683       17.682636      17.682983      17.684675      5529.6752    
Loop time of 0.141796 on 1 procs for 61 steps with 500 atoms

99.2% CPU use with 1 MPI tasks x 1 OpenMP threads

Minimization stats:
  Stopping criterion = force tolerance
  Energy initial, next-to-last, final = 
     -2180.97211217704  -2181.23435919412  -2181.23435919414
  Force two-norm initial, final = 2.0948331 6.3057105e-11
  Force max component initial, final = 0.18261648 8.904058e-12
  Final line search alpha, max atom move = 1 8.904058e-12
  Iterations, force evaluations = 61 120

MPI task timing breakdown:
Section |  min time  |  avg time  |  max time  |%varavg| %total
---------------------------------------------------------------
Pair    | 0.139      | 0.139      | 0.139      |   0.0 | 98.03
Neigh   | 0          | 0          | 0          |   0.0 |  0.00
Comm    | 0.000703   | 0.000703   | 0.000703   |   0.0 |  0.50
Output  | 0.00105    | 0.00105    | 0.00105    |   0.0 |  0.74
Modify  | 0          | 0          | 0          |   0.0 |  0.00
Other   |            | 0.001042   |            |       |  0.73

Nlocal:            500 ave         500 max         500 min
Histogram: 1 0 0 0 0 0 0 0 0 0
Nghost:           1956 ave        1956 max        1956 min
Histogram: 1 0 0 0 0 0 0 0 0 0
Neighs:          33500 ave       33500 max       33500 min
Histogram: 1 0 0 0 0 0 0 0 0 0

Total # of neighbors = 33500
Ave neighs/atom = 67
Neighbor list builds = 0
Dangerous builds = 0
OMP_NUM_THREADS environment is not set. Defaulting to 1 thread. (src/comm.cpp:98)
  using 1 OpenMP thread(s) per MPI task
Loaded 1 plugins from F:\Lammps\LAMMPS 64-bit 2Aug2023\plugins

The 'box' command has been removed and will be ignored

Reading restart file ...
  restart file = 2 Aug 2023, LAMMPS = 2 Aug 2023
  restoring atom style atomic from restart
  triclinic box = (0.053673209 0.053508626 0.05266226) to (17.736327 17.736491 17.737338) with tilt (0 0 0)
  1 by 1 by 1 MPI processor grid
  pair style eam/alloy stores no restart info
  500 atoms
  read_restart CPU = 0.000 seconds
Changing box ...
  triclinic box = (0.053673209 0.053508626 0.05266226) to (17.736344 17.736491 17.737338) with tilt (0 0 0)
  triclinic box = (0.053673209 0.053508626 0.05266226) to (17.736344 17.736491 17.737338) with tilt (0 0 0)
  triclinic box = (0.053673209 0.053508626 0.05266226) to (17.736344 17.736491 17.737338) with tilt (0 0 0)
Neighbor list info ...
  update: every = 1 steps, delay = 0 steps, check = yes
  max neighbors/atom: 2000, page size: 100000
  master list distance cutoff = 6.80375
  ghost atom cutoff = 6.80375
  1 neighbor lists, perpetual/occasional/extra = 1 0 0
  (1) pair eam/alloy, perpetual
      attributes: half, newton on
      pair build: half/nsq/newton
      stencil: none
      bin: none
Setting up cg style minimization ...
  Unit style    : metal
  Current step  : 100
Per MPI rank memory allocation (min/avg/max) = 4.482 | 4.482 | 4.482 Mbytes
   Step          Temp          PotEng         Press           Pxx            Pyy            Pzz            Pxy            Pxz            Pyz             Lx             Ly             Lz           Volume    
       100   0             -2180.9721      278.20973      278.12336      278.19079      278.31504     -86.823375     -25.966655     -90.602086      17.682671      17.682983      17.684675      5529.6863    
       101   0             -2181.1421      1154.2741      1166.0253      1164.4178      1132.379      -19.235852     -11.387037     -95.512831      17.682671      17.682983      17.684675      5529.6863    
       102   0             -2181.2111      1773.7286      1777.2858      1793.4232      1750.4769      45.000008     -1.2855243     -114.66544      17.682671      17.682983      17.684675      5529.6863    
       103   0             -2181.2258      1610.3457      1589.6214      1629.9394      1611.4763      39.201876     -11.179356     -105.95727      17.682671      17.682983      17.684675      5529.6863    
       104   0             -2181.2317      1666.3999      1638.3288      1688.1319      1672.7391      53.691418     -2.6478434     -108.33523      17.682671      17.682983      17.684675      5529.6863    
       105   0             -2181.2333      1754.8125      1723.7197      1776.2636      1764.4542      55.486263     -1.9382857     -112.20587      17.682671      17.682983      17.684675      5529.6863    
       106   0             -2181.234       1718.104       1686.2927      1736.6487      1731.3705      50.717257     -5.4932714     -111.42375      17.682671      17.682983      17.684675      5529.6863    
       107   0             -2181.2342      1703.2079      1671.8001      1721.1873      1716.6364      48.66081      -5.3235161     -110.70502      17.682671      17.682983      17.684675      5529.6863    
       108   0             -2181.2342      1705.7963      1674.3756      1723.6816      1719.3319      49.014803     -5.0980307     -109.08016      17.682671      17.682983      17.684675      5529.6863    
       109   0             -2181.2343      1708.1716      1675.5508      1726.0277      1722.9365      48.812262     -5.1216242     -109.19334      17.682671      17.682983      17.684675      5529.6863    
       110   0             -2181.2343      1710.3897      1676.9824      1728.0174      1726.1692      49.600724     -5.71756       -108.94142      17.682671      17.682983      17.684675      5529.6863    
       111   0             -2181.2344      1709.335       1675.835       1726.7435      1725.4266      49.140219     -5.5763127     -108.84131      17.682671      17.682983      17.684675      5529.6863    
       112   0             -2181.2344      1706.2064      1672.6216      1723.6163      1722.3813      49.000803     -5.3417092     -108.8647       17.682671      17.682983      17.684675      5529.6863    
       113   0             -2181.2344      1706.7716      1673.2417      1724.307       1722.7661      49.101734     -5.2584535     -108.79688      17.682671      17.682983      17.684675      5529.6863    
       114   0             -2181.2344      1708.1297      1674.4552      1725.8256      1724.1085      49.24096      -5.1857944     -108.73099      17.682671      17.682983      17.684675      5529.6863    
       115   0             -2181.2344      1708.1322      1674.351       1725.7652      1724.2805      49.279744     -5.0521654     -108.94128      17.682671      17.682983      17.684675      5529.6863    
       116   0             -2181.2344      1707.8902      1673.9974      1725.5021      1724.1711      49.24784      -5.0919583     -108.95208      17.682671      17.682983      17.684675      5529.6863    
       117   0             -2181.2344      1707.7055      1673.7872      1725.3641      1723.965       49.200249     -5.1054381     -108.99427      17.682671      17.682983      17.684675      5529.6863    
       118   0             -2181.2344      1707.7341      1673.8391      1725.42        1723.9432      49.183249     -5.0700526     -108.98287      17.682671      17.682983      17.684675      5529.6863    
       119   0             -2181.2344      1707.8591      1673.9829      1725.5657      1724.0287      49.186196     -5.0766844     -108.9754       17.682671      17.682983      17.684675      5529.6863    
       120   0             -2181.2344      1707.8641      1673.9744      1725.5664      1724.0515      49.204953     -5.0734566     -108.97276      17.682671      17.682983      17.684675      5529.6863    
       121   0             -2181.2344      1707.8365      1673.9352      1725.5364      1724.038       49.207959     -5.0712423     -108.97827      17.682671      17.682983      17.684675      5529.6863    
       122   0             -2181.2344      1707.8108      1673.9114      1725.5         1724.021       49.206697     -5.0778523     -108.96514      17.682671      17.682983      17.684675      5529.6863    
       123   0             -2181.2344      1707.804       1673.9105      1725.488       1724.0136      49.200544     -5.0826976     -108.96881      17.682671      17.682983      17.684675      5529.6863    
       124   0             -2181.2344      1707.8114      1673.9215      1725.4978      1724.0151      49.207589     -5.0843093     -108.9704       17.682671      17.682983      17.684675      5529.6863    
       125   0             -2181.2344      1707.8106      1673.9221      1725.498       1724.0116      49.209496     -5.0816873     -108.9722       17.682671      17.682983      17.684675      5529.6863    
       126   0             -2181.2344      1707.8053      1673.9149      1725.4929      1724.0081      49.208937     -5.0815756     -108.9707       17.682671      17.682983      17.684675      5529.6863    
       127   0             -2181.2344      1707.8082      1673.916       1725.4962      1724.0123      49.207069     -5.0819558     -108.97097      17.682671      17.682983      17.684675      5529.6863    
       128   0             -2181.2344      1707.8086      1673.9165      1725.4969      1724.0124      49.206969     -5.0820848     -108.97086      17.682671      17.682983      17.684675      5529.6863    
       129   0             -2181.2344      1707.8095      1673.9176      1725.4983      1724.0126      49.206696     -5.0825093     -108.97041      17.682671      17.682983      17.684675      5529.6863    
       130   0             -2181.2344      1707.8092      1673.9174      1725.4984      1724.0119      49.206807     -5.0829264     -108.97012      17.682671      17.682983      17.684675      5529.6863    
       131   0             -2181.2344      1707.8091      1673.9173      1725.4985      1724.0115      49.206697     -5.0827867     -108.97004      17.682671      17.682983      17.684675      5529.6863    
       132   0             -2181.2344      1707.8088      1673.9172      1725.4985      1724.0109      49.206765     -5.0824335     -108.97007      17.682671      17.682983      17.684675      5529.6863    
       133   0             -2181.2344      1707.8097      1673.9181      1725.4992      1724.0117      49.206787     -5.0824391     -108.97031      17.682671      17.682983      17.684675      5529.6863    
       134   0             -2181.2344      1707.8097      1673.9183      1725.4992      1724.0116      49.206734     -5.0824746     -108.97027      17.682671      17.682983      17.684675      5529.6863    
       135   0             -2181.2344      1707.8094      1673.9181      1725.499       1724.0113      49.206751     -5.0824508     -108.9703       17.682671      17.682983      17.684675      5529.6863    
       136   0             -2181.2344      1707.8093      1673.918       1725.4989      1724.0111      49.206829     -5.0823926     -108.97031      17.682671      17.682983      17.684675      5529.6863    
       137   0             -2181.2344      1707.8094      1673.9181      1725.4989      1724.0111      49.206832     -5.0823843     -108.9703       17.682671      17.682983      17.684675      5529.6863    
       138   0             -2181.2344      1707.8094      1673.9181      1725.4989      1724.0111      49.206824     -5.0823932     -108.97031      17.682671      17.682983      17.684675      5529.6863    
       139   0             -2181.2344      1707.8094      1673.9181      1725.4989      1724.0111      49.206812     -5.0824007     -108.97032      17.682671      17.682983      17.684675      5529.6863    
       140   0             -2181.2344      1707.8093      1673.918       1725.4989      1724.0111      49.206812     -5.0823954     -108.97032      17.682671      17.682983      17.684675      5529.6863    
       141   0             -2181.2344      1707.8093      1673.918       1725.4989      1724.0111      49.206811     -5.0823876     -108.97032      17.682671      17.682983      17.684675      5529.6863    
       142   0             -2181.2344      1707.8093      1673.918       1725.4989      1724.0111      49.206812     -5.0823906     -108.97031      17.682671      17.682983      17.684675      5529.6863    
       143   0             -2181.2344      1707.8093      1673.918       1725.4989      1724.0111      49.206808     -5.0823946     -108.97031      17.682671      17.682983      17.684675      5529.6863    
       144   0             -2181.2344      1707.8093      1673.918       1725.4989      1724.0111      49.206808     -5.0823961     -108.97031      17.682671      17.682983      17.684675      5529.6863    
       145   0             -2181.2344      1707.8093      1673.918       1725.4989      1724.0111      49.206807     -5.0823956     -108.97031      17.682671      17.682983      17.684675      5529.6863    
       146   0             -2181.2344      1707.8093      1673.918       1725.4989      1724.0111      49.206807     -5.0823954     -108.97031      17.682671      17.682983      17.684675      5529.6863    
       147   0             -2181.2344      1707.8093      1673.918       1725.4989      1724.0111      49.206808     -5.0823957     -108.97031      17.682671      17.682983      17.684675      5529.6863    
       148   0             -2181.2344      1707.8093      1673.918       1725.4989      1724.0111      49.206809     -5.0823959     -108.97031      17.682671      17.682983      17.684675      5529.6863    
       149   0             -2181.2344      1707.8093      1673.918       1725.4989      1724.0111      49.206809     -5.0823955     -108.97031      17.682671      17.682983      17.684675      5529.6863    
       150   0             -2181.2344      1707.8093      1673.918       1725.4989      1724.0111      49.206809     -5.0823954     -108.97031      17.682671      17.682983      17.684675      5529.6863    
       151   0             -2181.2344      1707.8093      1673.918       1725.4989      1724.0111      49.206809     -5.0823955     -108.97031      17.682671      17.682983      17.684675      5529.6863    
       152   0             -2181.2344      1707.8093      1673.918       1725.4989      1724.0111      49.206809     -5.0823956     -108.97031      17.682671      17.682983      17.684675      5529.6863    
       153   0             -2181.2344      1707.8093      1673.918       1725.4989      1724.0111      49.206809     -5.0823955     -108.97031      17.682671      17.682983      17.684675      5529.6863    
       154   0             -2181.2344      1707.8093      1673.918       1725.4989      1724.0111      49.206809     -5.0823954     -108.97031      17.682671      17.682983      17.684675      5529.6863    
       155   0             -2181.2344      1707.8093      1673.918       1725.4989      1724.0111      49.206809     -5.0823954     -108.97031      17.682671      17.682983      17.684675      5529.6863    
       156   0             -2181.2344      1707.8093      1673.918       1725.4989      1724.0111      49.206809     -5.0823954     -108.97031      17.682671      17.682983      17.684675      5529.6863    
       157   0             -2181.2344      1707.8093      1673.918       1725.4989      1724.0111      49.206809     -5.0823954     -108.97031      17.682671      17.682983      17.684675      5529.6863    
       158   0             -2181.2344      1707.8093      1673.918       1725.4989      1724.0111      49.206809     -5.0823954     -108.97031      17.682671      17.682983      17.684675      5529.6863    
       159   0             -2181.2344      1707.8093      1673.918       1725.4989      1724.0111      49.206809     -5.0823954     -108.97031      17.682671      17.682983      17.684675      5529.6863    
       160   0             -2181.2344      1707.8093      1673.918       1725.4989      1724.0111      49.206809     -5.0823954     -108.97031      17.682671      17.682983      17.684675      5529.6863    
       161   0             -2181.2344      1707.8093      1673.918       1725.4989      1724.0111      49.206809     -5.0823954     -108.97031      17.682671      17.682983      17.684675      5529.6863    
Loop time of 0.142893 on 1 procs for 61 steps with 500 atoms

98.4% CPU use with 1 MPI tasks x 1 OpenMP threads

Minimization stats:
  Stopping criterion = force tolerance
  Energy initial, next-to-last, final = 
     -2180.97211411396  -2181.23437076557  -2181.23437076556
  Force two-norm initial, final = 2.0948826 6.3075153e-11
  Force max component initial, final = 0.18261827 8.9439428e-12
  Final line search alpha, max atom move = 1 8.9439428e-12
  Iterations, force evaluations = 61 120

MPI task timing breakdown:
Section |  min time  |  avg time  |  max time  |%varavg| %total
---------------------------------------------------------------
Pair    | 0.14023    | 0.14023    | 0.14023    |   0.0 | 98.13
Neigh   | 0          | 0          | 0          |   0.0 |  0.00
Comm    | 0.000735   | 0.000735   | 0.000735   |   0.0 |  0.51
Output  | 0.000919   | 0.000919   | 0.000919   |   0.0 |  0.64
Modify  | 0          | 0          | 0          |   0.0 |  0.00
Other   |            | 0.001012   |            |       |  0.71

Nlocal:            500 ave         500 max         500 min
Histogram: 1 0 0 0 0 0 0 0 0 0
Nghost:           1956 ave        1956 max        1956 min
Histogram: 1 0 0 0 0 0 0 0 0 0
Neighs:          33500 ave       33500 max       33500 min
Histogram: 1 0 0 0 0 0 0 0 0 0

Total # of neighbors = 33500
Ave neighs/atom = 67
Neighbor list builds = 0
Dangerous builds = 0
OMP_NUM_THREADS environment is not set. Defaulting to 1 thread. (src/comm.cpp:98)
  using 1 OpenMP thread(s) per MPI task
Loaded 1 plugins from F:\Lammps\LAMMPS 64-bit 2Aug2023\plugins

The 'box' command has been removed and will be ignored

Reading restart file ...
  restart file = 2 Aug 2023, LAMMPS = 2 Aug 2023
  restoring atom style atomic from restart
  triclinic box = (0.053673209 0.053508626 0.05266226) to (17.736327 17.736491 17.737338) with tilt (0 0 0)
  1 by 1 by 1 MPI processor grid
  pair style eam/alloy stores no restart info
  500 atoms
  read_restart CPU = 0.000 seconds
Changing box ...
  triclinic box = (0.053673209 0.053508626 0.05266226) to (17.736327 17.736474 17.737338) with tilt (0 0 0)
  triclinic box = (0.053673209 0.053508626 0.05266226) to (17.736327 17.736474 17.737338) with tilt (0 0 0)
Neighbor list info ...
  update: every = 1 steps, delay = 0 steps, check = yes
  max neighbors/atom: 2000, page size: 100000
  master list distance cutoff = 6.80375
  ghost atom cutoff = 6.80375
  1 neighbor lists, perpetual/occasional/extra = 1 0 0
  (1) pair eam/alloy, perpetual
      attributes: half, newton on
      pair build: half/nsq/newton
      stencil: none
      bin: none
Setting up cg style minimization ...
  Unit style    : metal
  Current step  : 100
Per MPI rank memory allocation (min/avg/max) = 4.482 | 4.482 | 4.482 Mbytes
   Step          Temp          PotEng         Press           Pxx            Pyy            Pzz            Pxy            Pxz            Pyz             Lx             Ly             Lz           Volume    
       100   0             -2180.9721      281.93257      282.1566       282.21511      281.42601     -86.820006     -25.966015     -90.601401      17.682654      17.682965      17.684675      5529.6752    
       101   0             -2181.1421      1157.9701      1170.0275      1168.416       1135.4669     -19.231729     -11.386618     -95.511908      17.682654      17.682965      17.684675      5529.6752    
       102   0             -2181.2111      1777.4008      1781.2613      1797.3982      1753.5428      45.003701     -1.28599       -114.66673      17.682654      17.682965      17.684675      5529.6752    
       103   0             -2181.2258      1614.0369      1593.6181      1633.9316      1614.561       39.205381     -11.180424     -105.95616      17.682654      17.682965      17.684675      5529.6752    
       104   0             -2181.2317      1670.0489      1642.2835      1692.0816      1675.7816      53.691513     -2.6502555     -108.33437      17.682654      17.682965      17.684675      5529.6752    
       105   0             -2181.2333      1758.4741      1727.6873      1780.2265      1767.5086      55.487315     -1.9400519     -112.20532      17.682654      17.682965      17.684675      5529.6752    
       106   0             -2181.234       1721.7716      1690.2664      1740.6175      1734.4309      50.71845      -5.4955645     -111.42275      17.682654      17.682965      17.684675      5529.6752    
       107   0             -2181.2342      1706.8725      1675.7708      1725.1527      1719.6939      48.661428     -5.3255983     -110.70447      17.682654      17.682965      17.684675      5529.6752    
       108   0             -2181.2342      1709.4616      1678.347       1727.6476      1722.3902      49.015663     -5.1000114     -109.07947      17.682654      17.682965      17.684675      5529.6752    
       109   0             -2181.2343      1711.8365      1679.5217      1729.9932      1725.9945      48.812961     -5.1236601     -109.19246      17.682654      17.682965      17.684675      5529.6752    
       110   0             -2181.2343      1714.0534      1680.9521      1731.9818      1729.2262      49.601361     -5.7195033     -108.94065      17.682654      17.682965      17.684675      5529.6752    
       111   0             -2181.2343      1713.0001      1679.8062      1730.7092      1728.4851      49.141037     -5.5783224     -108.84045      17.682654      17.682965      17.684675      5529.6752    
       112   0             -2181.2343      1709.8713      1676.5924      1727.5818      1725.4396      49.001569     -5.3437288     -108.86389      17.682654      17.682965      17.684675      5529.6752    
       113   0             -2181.2344      1710.4359      1677.2119      1728.2718      1725.8239      49.10249      -5.2604197     -108.79617      17.682654      17.682965      17.684675      5529.6752    
       114   0             -2181.2344      1711.7943      1678.4256      1729.7908      1727.1665      49.241735     -5.1877963     -108.73022      17.682654      17.682965      17.684675      5529.6752    
       115   0             -2181.2344      1711.7968      1678.3214      1729.7304      1727.3385      49.280506     -5.0541612     -108.94051      17.682654      17.682965      17.684675      5529.6752    
       116   0             -2181.2344      1711.5548      1677.9678      1729.4674      1727.2292      49.248591     -5.0939505     -108.95133      17.682654      17.682965      17.684675      5529.6752    
       117   0             -2181.2344      1711.3701      1677.7578      1729.3295      1727.0231      49.201019     -5.1074361     -108.99351      17.682654      17.682965      17.684675      5529.6752    
       118   0             -2181.2344      1711.3987      1677.8096      1729.3852      1727.0012      49.184013     -5.0720419     -108.98211      17.682654      17.682965      17.684675      5529.6752    
       119   0             -2181.2344      1711.5237      1677.9534      1729.531       1727.0867      49.186957     -5.0786737     -108.97465      17.682654      17.682965      17.684675      5529.6752    
       120   0             -2181.2344      1711.5287      1677.9449      1729.5317      1727.1096      49.20572      -5.0754504     -108.972        17.682654      17.682965      17.684675      5529.6752    
       121   0             -2181.2344      1711.5011      1677.9057      1729.5017      1727.0961      49.208724     -5.0732353     -108.97752      17.682654      17.682965      17.684675      5529.6752    
       122   0             -2181.2344      1711.4754      1677.8819      1729.4653      1727.079       49.207465     -5.0798436     -108.96439      17.682654      17.682965      17.684675      5529.6752    
       123   0             -2181.2344      1711.4686      1677.881       1729.4532      1727.0716      49.20131      -5.0846883     -108.96806      17.682654      17.682965      17.684675      5529.6752    
       124   0             -2181.2344      1711.476       1677.892       1729.463       1727.0731      49.208355     -5.0863008     -108.96964      17.682654      17.682965      17.684675      5529.6752    
       125   0             -2181.2344      1711.4752      1677.8927      1729.4633      1727.0696      49.210263     -5.0836796     -108.97145      17.682654      17.682965      17.684675      5529.6752    
       126   0             -2181.2344      1711.4699      1677.8854      1729.4582      1727.0661      49.209705     -5.0835676     -108.96995      17.682654      17.682965      17.684675      5529.6752    
       127   0             -2181.2344      1711.4728      1677.8865      1729.4615      1727.0703      49.207836     -5.0839477     -108.97021      17.682654      17.682965      17.684675      5529.6752    
       128   0             -2181.2344      1711.4732      1677.887       1729.4622      1727.0704      49.207736     -5.0840766     -108.9701       17.682654      17.682965      17.684675      5529.6752    
       129   0             -2181.2344      1711.4741      1677.8881      1729.4635      1727.0706      49.207464     -5.0845013     -108.96965      17.682654      17.682965      17.684675      5529.6752    
       130   0             -2181.2344      1711.4738      1677.8879      1729.4636      1727.0699      49.207574     -5.0849186     -108.96936      17.682654      17.682965      17.684675      5529.6752    
       131   0             -2181.2344      1711.4737      1677.8879      1729.4638      1727.0695      49.207464     -5.0847788     -108.96929      17.682654      17.682965      17.684675      5529.6752    
       132   0             -2181.2344      1711.4735      1677.8877      1729.4637      1727.0689      49.207532     -5.0844255     -108.96932      17.682654      17.682965      17.684675      5529.6752    
       133   0             -2181.2344      1711.4743      1677.8887      1729.4645      1727.0698      49.207554     -5.0844312     -108.96955      17.682654      17.682965      17.684675      5529.6752    
       134   0             -2181.2344      1711.4743      1677.8889      1729.4645      1727.0697      49.207501     -5.0844666     -108.96952      17.682654      17.682965      17.684675      5529.6752    
       135   0             -2181.2344      1711.4741      1677.8886      1729.4642      1727.0693      49.207518     -5.0844428     -108.96954      17.682654      17.682965      17.684675      5529.6752    
       136   0             -2181.2344      1711.4739      1677.8885      1729.4642      1727.0691      49.207596     -5.0843846     -108.96956      17.682654      17.682965      17.684675      5529.6752    
       137   0             -2181.2344      1711.474       1677.8886      1729.4642      1727.0691      49.207599     -5.0843764     -108.96955      17.682654      17.682965      17.684675      5529.6752    
       138   0             -2181.2344      1711.474       1677.8886      1729.4642      1727.0691      49.207591     -5.0843853     -108.96955      17.682654      17.682965      17.684675      5529.6752    
       139   0             -2181.2344      1711.474       1677.8886      1729.4642      1727.0692      49.207579     -5.0843927     -108.96957      17.682654      17.682965      17.684675      5529.6752    
       140   0             -2181.2344      1711.4739      1677.8885      1729.4641      1727.0691      49.207579     -5.0843875     -108.96956      17.682654      17.682965      17.684675      5529.6752    
       141   0             -2181.2344      1711.4739      1677.8885      1729.4641      1727.0692      49.207578     -5.0843796     -108.96956      17.682654      17.682965      17.684675      5529.6752    
       142   0             -2181.2344      1711.4739      1677.8885      1729.4641      1727.0692      49.207579     -5.0843826     -108.96956      17.682654      17.682965      17.684675      5529.6752    
       143   0             -2181.2344      1711.474       1677.8885      1729.4641      1727.0692      49.207575     -5.0843867     -108.96956      17.682654      17.682965      17.684675      5529.6752    
       144   0             -2181.2344      1711.474       1677.8886      1729.4641      1727.0692      49.207575     -5.0843881     -108.96956      17.682654      17.682965      17.684675      5529.6752    
       145   0             -2181.2344      1711.474       1677.8886      1729.4641      1727.0692      49.207574     -5.0843876     -108.96956      17.682654      17.682965      17.684675      5529.6752    
       146   0             -2181.2344      1711.4739      1677.8885      1729.4641      1727.0692      49.207574     -5.0843874     -108.96956      17.682654      17.682965      17.684675      5529.6752    
       147   0             -2181.2344      1711.474       1677.8886      1729.4641      1727.0692      49.207575     -5.0843878     -108.96956      17.682654      17.682965      17.684675      5529.6752    
       148   0             -2181.2344      1711.474       1677.8886      1729.4641      1727.0692      49.207575     -5.0843879     -108.96956      17.682654      17.682965      17.684675      5529.6752    
       149   0             -2181.2344      1711.474       1677.8886      1729.4641      1727.0692      49.207576     -5.0843876     -108.96956      17.682654      17.682965      17.684675      5529.6752    
       150   0             -2181.2344      1711.474       1677.8886      1729.4641      1727.0692      49.207576     -5.0843874     -108.96956      17.682654      17.682965      17.684675      5529.6752    
       151   0             -2181.2344      1711.474       1677.8886      1729.4641      1727.0692      49.207576     -5.0843875     -108.96956      17.682654      17.682965      17.684675      5529.6752    
       152   0             -2181.2344      1711.474       1677.8886      1729.4641      1727.0692      49.207576     -5.0843876     -108.96956      17.682654      17.682965      17.684675      5529.6752    
       153   0             -2181.2344      1711.474       1677.8886      1729.4641      1727.0692      49.207576     -5.0843875     -108.96956      17.682654      17.682965      17.684675      5529.6752    
       154   0             -2181.2344      1711.474       1677.8886      1729.4641      1727.0692      49.207576     -5.0843874     -108.96956      17.682654      17.682965      17.684675      5529.6752    
       155   0             -2181.2344      1711.474       1677.8886      1729.4641      1727.0692      49.207576     -5.0843874     -108.96956      17.682654      17.682965      17.684675      5529.6752    
       156   0             -2181.2344      1711.474       1677.8886      1729.4641      1727.0692      49.207576     -5.0843874     -108.96956      17.682654      17.682965      17.684675      5529.6752    
       157   0             -2181.2344      1711.474       1677.8886      1729.4641      1727.0692      49.207576     -5.0843874     -108.96956      17.682654      17.682965      17.684675      5529.6752    
       158   0             -2181.2344      1711.474       1677.8886      1729.4641      1727.0692      49.207576     -5.0843874     -108.96956      17.682654      17.682965      17.684675      5529.6752    
       159   0             -2181.2344      1711.474       1677.8886      1729.4641      1727.0692      49.207576     -5.0843874     -108.96956      17.682654      17.682965      17.684675      5529.6752    
       160   0             -2181.2344      1711.474       1677.8886      1729.4641      1727.0692      49.207576     -5.0843874     -108.96956      17.682654      17.682965      17.684675      5529.6752    
       161   0             -2181.2344      1711.474       1677.8886      1729.4641      1727.0692      49.207576     -5.0843874     -108.96956      17.682654      17.682965      17.684675      5529.6752    
Loop time of 0.141503 on 1 procs for 61 steps with 500 atoms

99.4% CPU use with 1 MPI tasks x 1 OpenMP threads

Minimization stats:
  Stopping criterion = force tolerance
  Energy initial, next-to-last, final = 
     -2180.97211218002  -2181.23435901929  -2181.23435901929
  Force two-norm initial, final = 2.0948331 6.3079614e-11
  Force max component initial, final = 0.18261509 8.9350194e-12
  Final line search alpha, max atom move = 1 8.9350194e-12
  Iterations, force evaluations = 61 120

MPI task timing breakdown:
Section |  min time  |  avg time  |  max time  |%varavg| %total
---------------------------------------------------------------
Pair    | 0.13889    | 0.13889    | 0.13889    |   0.0 | 98.15
Neigh   | 0          | 0          | 0          |   0.0 |  0.00
Comm    | 0.00069    | 0.00069    | 0.00069    |   0.0 |  0.49
Output  | 0.00096    | 0.00096    | 0.00096    |   0.0 |  0.68
Modify  | 0          | 0          | 0          |   0.0 |  0.00
Other   |            | 0.000963   |            |       |  0.68

Nlocal:            500 ave         500 max         500 min
Histogram: 1 0 0 0 0 0 0 0 0 0
Nghost:           1956 ave        1956 max        1956 min
Histogram: 1 0 0 0 0 0 0 0 0 0
Neighs:          33500 ave       33500 max       33500 min
Histogram: 1 0 0 0 0 0 0 0 0 0

Total # of neighbors = 33500
Ave neighs/atom = 67
Neighbor list builds = 0
Dangerous builds = 0
OMP_NUM_THREADS environment is not set. Defaulting to 1 thread. (src/comm.cpp:98)
  using 1 OpenMP thread(s) per MPI task
Loaded 1 plugins from F:\Lammps\LAMMPS 64-bit 2Aug2023\plugins

The 'box' command has been removed and will be ignored

Reading restart file ...
  restart file = 2 Aug 2023, LAMMPS = 2 Aug 2023
  restoring atom style atomic from restart
  triclinic box = (0.053673209 0.053508626 0.05266226) to (17.736327 17.736491 17.737338) with tilt (0 0 0)
  1 by 1 by 1 MPI processor grid
  pair style eam/alloy stores no restart info
  500 atoms
  read_restart CPU = 0.000 seconds
Changing box ...
  triclinic box = (0.053673209 0.053508626 0.05266226) to (17.736327 17.736509 17.737338) with tilt (0 0 0)
  triclinic box = (0.053673209 0.053508626 0.05266226) to (17.736327 17.736509 17.737338) with tilt (0 0 0)
Neighbor list info ...
  update: every = 1 steps, delay = 0 steps, check = yes
  max neighbors/atom: 2000, page size: 100000
  master list distance cutoff = 6.80375
  ghost atom cutoff = 6.80375
  1 neighbor lists, perpetual/occasional/extra = 1 0 0
  (1) pair eam/alloy, perpetual
      attributes: half, newton on
      pair build: half/nsq/newton
      stencil: none
      bin: none
Setting up cg style minimization ...
  Unit style    : metal
  Current step  : 100
Per MPI rank memory allocation (min/avg/max) = 4.482 | 4.482 | 4.482 Mbytes
   Step          Temp          PotEng         Press           Pxx            Pyy            Pzz            Pxy            Pxz            Pyz             Lx             Ly             Lz           Volume    
       100   0             -2180.9721      278.21444      279.04666      277.27641      278.32025     -86.823156     -25.96477      -90.602722      17.682654      17.683         17.684675      5529.6863    
       101   0             -2181.1421      1154.2702      1166.9362      1163.4968      1132.3776     -19.236005     -11.384634     -95.513022      17.682654      17.683         17.684675      5529.6863    
       102   0             -2181.2111      1773.7365      1778.2101      1792.5101      1750.4892      45.001302     -1.2819088     -114.66359      17.682654      17.683         17.684675      5529.6863    
       103   0             -2181.2258      1610.3455      1590.5367      1629.0194      1611.4805      39.203364     -11.176036     -105.95668      17.682654      17.683         17.684675      5529.6863    
       104   0             -2181.2317      1666.409       1639.2554      1687.2189      1672.7525      53.693564     -2.6446748     -108.33409      17.682654      17.683         17.684675      5529.6863    
       105   0             -2181.2333      1754.8178      1724.6436      1775.3458      1764.4642      55.488031     -1.9352112     -112.20454      17.682654      17.683         17.684675      5529.6863    
       106   0             -2181.234       1718.1084      1687.2148      1735.7306      1731.3798      50.718862     -5.4903148     -111.42265      17.682654      17.683         17.684675      5529.6863    
       107   0             -2181.2342      1703.2133      1672.7233      1720.27        1716.6464      48.662439     -5.320626      -110.7038       17.682654      17.683         17.684675      5529.6863    
       108   0             -2181.2342      1705.8012      1675.2982      1722.7639      1719.3415      49.016412     -5.0951058     -109.07896      17.682654      17.683         17.684675      5529.6863    
       109   0             -2181.2343      1708.1767      1676.4735      1725.1104      1722.9463      48.813819     -5.1185683     -109.19215      17.682654      17.683         17.684675      5529.6863    
       110   0             -2181.2343      1710.3949      1677.9052      1727.1005      1726.1792      49.602298     -5.7145607     -108.94018      17.682654      17.683         17.684675      5529.6863    
       111   0             -2181.2344      1709.34        1676.7574      1725.8263      1725.4363      49.141738     -5.5732997     -108.84008      17.682654      17.683         17.684675      5529.6863    
       112   0             -2181.2344      1706.2115      1673.544       1722.6993      1722.3911      49.002343     -5.338688      -108.86346      17.682654      17.683         17.684675      5529.6863    
       113   0             -2181.2344      1706.7767      1674.1642      1723.39        1722.7759      49.103285     -5.2554445     -108.79563      17.682654      17.683         17.684675      5529.6863    
       114   0             -2181.2344      1708.1348      1675.3776      1724.9085      1724.1182      49.242486     -5.1827853     -108.72974      17.682654      17.683         17.684675      5529.6863    
       115   0             -2181.2344      1708.1373      1675.2734      1724.8481      1724.2903      49.281274     -5.0491498     -108.94002      17.682654      17.683         17.684675      5529.6863    
       116   0             -2181.2344      1707.8953      1674.9198      1724.5851      1724.1809      49.249368     -5.0889422     -108.95082      17.682654      17.683         17.684675      5529.6863    
       117   0             -2181.2344      1707.7105      1674.7097      1724.447       1723.9747      49.201774     -5.1024268     -108.99301      17.682654      17.683         17.684675      5529.6863    
       118   0             -2181.2344      1707.7391      1674.7615      1724.5029      1723.953       49.184776     -5.0670379     -108.98161      17.682654      17.683         17.684675      5529.6863    
       119   0             -2181.2344      1707.8642      1674.9053      1724.6486      1724.0385      49.187721     -5.0736691     -108.97414      17.682654      17.683         17.684675      5529.6863    
       120   0             -2181.2344      1707.8691      1674.8968      1724.6493      1724.0613      49.206478     -5.0704399     -108.9715       17.682654      17.683         17.684675      5529.6863    
       121   0             -2181.2344      1707.8416      1674.8576      1724.6193      1724.0478      49.209483     -5.068225      -108.97701      17.682654      17.683         17.684675      5529.6863    
       122   0             -2181.2344      1707.8158      1674.8338      1724.5829      1724.0307      49.208222     -5.0748359     -108.96388      17.682654      17.683         17.684675      5529.6863    
       123   0             -2181.2344      1707.809       1674.8329      1724.5709      1724.0234      49.202068     -5.0796809     -108.96755      17.682654      17.683         17.684675      5529.6863    
       124   0             -2181.2344      1707.8165      1674.8439      1724.5807      1724.0248      49.209113     -5.0812928     -108.96914      17.682654      17.683         17.684675      5529.6863    
       125   0             -2181.2344      1707.8156      1674.8446      1724.5809      1724.0213      49.21102      -5.078671      -108.97094      17.682654      17.683         17.684675      5529.6863    
       126   0             -2181.2344      1707.8103      1674.8373      1724.5758      1724.0179      49.210461     -5.0785589     -108.96944      17.682654      17.683         17.684675      5529.6863    
       127   0             -2181.2344      1707.8132      1674.8384      1724.5791      1724.022       49.208593     -5.0789393     -108.96971      17.682654      17.683         17.684675      5529.6863    
       128   0             -2181.2344      1707.8136      1674.8389      1724.5798      1724.0221      49.208493     -5.0790682     -108.9696       17.682654      17.683         17.684675      5529.6863    
       129   0             -2181.2344      1707.8145      1674.84        1724.5812      1724.0223      49.208221     -5.0794927     -108.96914      17.682654      17.683         17.684675      5529.6863    
       130   0             -2181.2344      1707.8142      1674.8398      1724.5813      1724.0216      49.208331     -5.0799098     -108.96886      17.682654      17.683         17.684675      5529.6863    
       131   0             -2181.2344      1707.8141      1674.8398      1724.5814      1724.0213      49.208221     -5.0797701     -108.96878      17.682654      17.683         17.684675      5529.6863    
       132   0             -2181.2344      1707.8139      1674.8396      1724.5814      1724.0207      49.208289     -5.0794169     -108.96881      17.682654      17.683         17.684675      5529.6863    
       133   0             -2181.2344      1707.8147      1674.8406      1724.5821      1724.0215      49.208311     -5.0794225     -108.96905      17.682654      17.683         17.684675      5529.6863    
[...]
       155   0             -2181.2344      1709.6439      1676.3656      1727.0226      1725.5436      50.387443     -5.0807755     -108.97045      17.682654      17.682983      17.684675      5529.6807    
       156   0             -2181.2344      1709.6439      1676.3656      1727.0226      1725.5436      50.387443     -5.0807755     -108.97045      17.682654      17.682983      17.684675      5529.6807    
       157   0             -2181.2344      1709.6439      1676.3656      1727.0226      1725.5436      50.387443     -5.0807755     -108.97045      17.682654      17.682983      17.684675      5529.6807    
       158   0             -2181.2344      1709.6439      1676.3656      1727.0226      1725.5436      50.387443     -5.0807755     -108.97045      17.682654      17.682983      17.684675      5529.6807    
       159   0             -2181.2344      1709.6439      1676.3656      1727.0226      1725.5436      50.387443     -5.0807755     -108.97045      17.682654      17.682983      17.684675      5529.6807    
       160   0             -2181.2344      1709.6439      1676.3656      1727.0226      1725.5436      50.387443     -5.0807755     -108.97045      17.682654      17.682983      17.684675      5529.6807    
       161   0             -2181.2344      1709.6439      1676.3656      1727.0226      1725.5436      50.387443     -5.0807755     -108.97045      17.682654      17.682983      17.684675      5529.6807    
Loop time of 0.150191 on 1 procs for 61 steps with 500 atoms

104.0% CPU use with 1 MPI tasks x 1 OpenMP threads

Minimization stats:
  Stopping criterion = force tolerance
  Energy initial, next-to-last, final = 
     -2180.97211344736  -2181.23436481218  -2181.23436481218
  Force two-norm initial, final = 2.094856 6.3073813e-11
  Force max component initial, final = 0.18261759 8.9270535e-12
  Final line search alpha, max atom move = 1 8.9270535e-12
  Iterations, force evaluations = 61 120

MPI task timing breakdown:
Section |  min time  |  avg time  |  max time  |%varavg| %total
---------------------------------------------------------------
Pair    | 0.14737    | 0.14737    | 0.14737    |   0.0 | 98.12
Neigh   | 0          | 0          | 0          |   0.0 |  0.00
Comm    | 0.000744   | 0.000744   | 0.000744   |   0.0 |  0.50
Output  | 0.000953   | 0.000953   | 0.000953   |   0.0 |  0.63
Modify  | 0          | 0          | 0          |   0.0 |  0.00
Other   |            | 0.001126   |            |       |  0.75

Nlocal:            500 ave         500 max         500 min
Histogram: 1 0 0 0 0 0 0 0 0 0
Nghost:           1956 ave        1956 max        1956 min
Histogram: 1 0 0 0 0 0 0 0 0 0
Neighs:          33500 ave       33500 max       33500 min
Histogram: 1 0 0 0 0 0 0 0 0 0

Total # of neighbors = 33500
Ave neighs/atom = 67
Neighbor list builds = 0
Dangerous builds = 0
OMP_NUM_THREADS environment is not set. Defaulting to 1 thread. (src/comm.cpp:98)
  using 1 OpenMP thread(s) per MPI task
Loaded 1 plugins from F:\Lammps\LAMMPS 64-bit 2Aug2023\plugins

The 'box' command has been removed and will be ignored

Reading restart file ...
  restart file = 2 Aug 2023, LAMMPS = 2 Aug 2023
  restoring atom style atomic from restart
  triclinic box = (0.053673209 0.053508626 0.05266226) to (17.736327 17.736491 17.737338) with tilt (0 0 0)
  1 by 1 by 1 MPI processor grid
  pair style eam/alloy stores no restart info
  500 atoms
  read_restart CPU = 0.000 seconds
Changing box ...
  triclinic box = (0.053673209 0.053508626 0.05266226) to (17.736327 17.736491 17.737338) with tilt (1.7682983e-05 0 0)
Neighbor list info ...
  update: every = 1 steps, delay = 0 steps, check = yes
  max neighbors/atom: 2000, page size: 100000
  master list distance cutoff = 6.80375
  ghost atom cutoff = 6.80375
  1 neighbor lists, perpetual/occasional/extra = 1 0 0
  (1) pair eam/alloy, perpetual
      attributes: half, newton on
      pair build: half/nsq/newton
      stencil: none
      bin: none
Setting up cg style minimization ...
  Unit style    : metal
  Current step  : 100
Per MPI rank memory allocation (min/avg/max) = 4.482 | 4.482 | 4.482 Mbytes
   Step          Temp          PotEng         Press           Pxx            Pyy            Pzz            Pxy            Pxz            Pyz             Lx             Ly             Lz           Volume    
       100   0             -2180.9721      280.07183      280.59966      279.74419      279.87163     -88.011124     -25.96581      -90.601915      17.682654      17.682983      17.684675      5529.6807    
       101   0             -2181.1421      1156.1201      1168.4811      1165.9562      1133.9231     -20.41595      -11.386229     -95.512075      17.682654      17.682983      17.684675      5529.6807    
       102   0             -2181.2111      1775.5602      1779.7258      1794.9454      1752.0094      43.821673     -1.2851706     -114.66402      17.682654      17.682983      17.684675      5529.6807    
       103   0             -2181.2258      1612.1853      1592.07        1631.4696      1613.0164      38.025244     -11.179569     -105.95522      17.682654      17.682983      17.684675      5529.6807    
       104   0             -2181.2317      1668.2292      1640.7681      1689.6506      1674.2688      52.51283      -2.6486002     -108.33321      17.682654      17.682983      17.684675      5529.6807    
       105   0             -2181.2333      1756.6469      1726.1649      1777.7871      1765.9886      54.307621     -1.9387989     -112.20384      17.682654      17.682983      17.684675      5529.6807    
       106   0             -2181.234       1719.9403      1688.7395      1738.1744      1732.9069      49.538993     -5.4941223     -111.42155      17.682654      17.682983      17.684675      5529.6807    
       107   0             -2181.2342      1705.0431      1674.2459      1722.7118      1718.1715      47.482249     -5.3241962     -110.70306      17.682654      17.682983      17.684675      5529.6807    
       108   0             -2181.2342      1707.6316      1676.8215      1725.2061      1720.8672      47.836342     -5.0986532     -109.07807      17.682654      17.682983      17.684675      5529.6807    
       109   0             -2181.2343      1710.0069      1677.9965      1727.5522      1724.4718      47.633797     -5.1222096     -109.19114      17.682654      17.682983      17.684675      5529.6807    
       110   0             -2181.2343      1712.2245      1679.4276      1729.5416      1727.7042      48.422257     -5.718139      -108.93926      17.682654      17.682983      17.684675      5529.6807    
       111   0             -2181.2343      1711.1704      1678.2808      1728.2682      1726.9622      47.96187      -5.5769208     -108.83912      17.682654      17.682983      17.684675      5529.6807    
       112   0             -2181.2344      1708.0416      1675.0671      1725.1409      1723.9167      47.822481     -5.3423091     -108.86253      17.682654      17.682983      17.684675      5529.6807    
       113   0             -2181.2344      1708.6065      1675.6869      1725.8312      1724.3013      47.923402     -5.2590339     -108.79475      17.682654      17.682983      17.684675      5529.6807    
       114   0             -2181.2344      1709.9648      1676.9005      1727.35        1725.6438      48.062651     -5.1863968     -108.72884      17.682654      17.682983      17.684675      5529.6807    
       115   0             -2181.2344      1709.9673      1676.7964      1727.2897      1725.8158      48.101431     -5.0527678     -108.93912      17.682654      17.682983      17.684675      5529.6807    
       116   0             -2181.2344      1709.7253      1676.4428      1727.0266      1725.7065      48.069505     -5.0925569     -108.94993      17.682654      17.682983      17.684675      5529.6807    
       117   0             -2181.2344      1709.5406      1676.2327      1726.8886      1725.5004      48.021918     -5.1060393     -108.99211      17.682654      17.682983      17.684675      5529.6807    
       118   0             -2181.2344      1709.5691      1676.2845      1726.9444      1725.4785      48.004907     -5.0706463     -108.98071      17.682654      17.682983      17.684675      5529.6807    
       119   0             -2181.2344      1709.6942      1676.4283      1727.0902      1725.5641      48.007853     -5.0772796     -108.97325      17.682654      17.682983      17.684675      5529.6807    
       120   0             -2181.2344      1709.6992      1676.4198      1727.0909      1725.5869      48.026615     -5.074053      -108.9706       17.682654      17.682983      17.684675      5529.6807    
       121   0             -2181.2344      1709.6716      1676.3806      1727.0609      1725.5734      48.029617     -5.0718379     -108.97612      17.682654      17.682983      17.684675      5529.6807    
       122   0             -2181.2344      1709.6459      1676.3568      1727.0245      1725.5563      48.028355     -5.0784471     -108.96299      17.682654      17.682983      17.684675      5529.6807    
       123   0             -2181.2344      1709.6391      1676.3559      1727.0124      1725.5489      48.022201     -5.0832923     -108.96666      17.682654      17.682983      17.684675      5529.6807    
       124   0             -2181.2344      1709.6465      1676.3669      1727.0222      1725.5504      48.029245     -5.0849044     -108.96824      17.682654      17.682983      17.684675      5529.6807    
       125   0             -2181.2344      1709.6457      1676.3676      1727.0225      1725.5469      48.031153     -5.0822827     -108.97005      17.682654      17.682983      17.684675      5529.6807    
       126   0             -2181.2344      1709.6404      1676.3603      1727.0174      1725.5434      48.030595     -5.0821708     -108.96855      17.682654      17.682983      17.684675      5529.6807    
       127   0             -2181.2344      1709.6432      1676.3614      1727.0207      1725.5476      48.028726     -5.0825511     -108.96881      17.682654      17.682983      17.684675      5529.6807    
       128   0             -2181.2344      1709.6437      1676.3619      1727.0214      1725.5477      48.028626     -5.08268       -108.96871      17.682654      17.682983      17.684675      5529.6807    
       129   0             -2181.2344      1709.6446      1676.363       1727.0227      1725.5479      48.028354     -5.0831045     -108.96825      17.682654      17.682983      17.684675      5529.6807    
       130   0             -2181.2344      1709.6443      1676.3628      1727.0228      1725.5472      48.028464     -5.0835218     -108.96796      17.682654      17.682983      17.684675      5529.6807    
       131   0             -2181.2344      1709.6442      1676.3628      1727.023       1725.5468      48.028354     -5.0833819     -108.96789      17.682654      17.682983      17.684675      5529.6807    
       132   0             -2181.2344      1709.6439      1676.3626      1727.0229      1725.5462      48.028422     -5.0830288     -108.96792      17.682654      17.682983      17.684675      5529.6807    
       133   0             -2181.2344      1709.6448      1676.3636      1727.0237      1725.5471      48.028444     -5.0830344     -108.96815      17.682654      17.682983      17.684675      5529.6807    
       134   0             -2181.2344      1709.6448      1676.3638      1727.0237      1725.547       48.028391     -5.0830698     -108.96812      17.682654      17.682983      17.684675      5529.6807    
       135   0             -2181.2344      1709.6445      1676.3635      1727.0234      1725.5466      48.028408     -5.083046      -108.96814      17.682654      17.682983      17.684675      5529.6807    
       136   0             -2181.2344      1709.6444      1676.3634      1727.0234      1725.5464      48.028486     -5.0829878     -108.96816      17.682654      17.682983      17.684675      5529.6807    
       137   0             -2181.2344      1709.6444      1676.3635      1727.0234      1725.5464      48.028489     -5.0829796     -108.96815      17.682654      17.682983      17.684675      5529.6807    
       138   0             -2181.2344      1709.6444      1676.3635      1727.0234      1725.5464      48.028481     -5.0829885     -108.96815      17.682654      17.682983      17.684675      5529.6807    
       139   0             -2181.2344      1709.6444      1676.3635      1727.0234      1725.5465      48.028469     -5.0829959     -108.96817      17.682654      17.682983      17.684675      5529.6807    
       140   0             -2181.2344      1709.6444      1676.3635      1727.0233      1725.5464      48.028469     -5.0829907     -108.96816      17.682654      17.682983      17.684675      5529.6807    
       141   0             -2181.2344      1709.6444      1676.3635      1727.0233      1725.5465      48.028468     -5.0829828     -108.96816      17.682654      17.682983      17.684675      5529.6807    
       142   0             -2181.2344      1709.6444      1676.3635      1727.0233      1725.5465      48.028469     -5.0829859     -108.96816      17.682654      17.682983      17.684675      5529.6807    
       143   0             -2181.2344      1709.6444      1676.3635      1727.0233      1725.5465      48.028465     -5.0829899     -108.96816      17.682654      17.682983      17.684675      5529.6807    
       144   0             -2181.2344      1709.6444      1676.3635      1727.0233      1725.5465      48.028465     -5.0829914     -108.96816      17.682654      17.682983      17.684675      5529.6807    
       145   0             -2181.2344      1709.6444      1676.3635      1727.0233      1725.5465      48.028464     -5.0829909     -108.96816      17.682654      17.682983      17.684675      5529.6807    
       146   0             -2181.2344      1709.6444      1676.3635      1727.0233      1725.5465      48.028464     -5.0829907     -108.96816      17.682654      17.682983      17.684675      5529.6807    
       147   0             -2181.2344      1709.6444      1676.3635      1727.0233      1725.5465      48.028465     -5.082991      -108.96816      17.682654      17.682983      17.684675      5529.6807    
       148   0             -2181.2344      1709.6444      1676.3635      1727.0233      1725.5465      48.028466     -5.0829912     -108.96816      17.682654      17.682983      17.684675      5529.6807    
       149   0             -2181.2344      1709.6444      1676.3635      1727.0233      1725.5465      48.028466     -5.0829908     -108.96816      17.682654      17.682983      17.684675      5529.6807    
       150   0             -2181.2344      1709.6444      1676.3635      1727.0233      1725.5465      48.028466     -5.0829906     -108.96816      17.682654      17.682983      17.684675      5529.6807    
       151   0             -2181.2344      1709.6444      1676.3635      1727.0233      1725.5465      48.028466     -5.0829907     -108.96816      17.682654      17.682983      17.684675      5529.6807    
       152   0             -2181.2344      1709.6444      1676.3635      1727.0233      1725.5465      48.028466     -5.0829908     -108.96816      17.682654      17.682983      17.684675      5529.6807    
       153   0             -2181.2344      1709.6444      1676.3635      1727.0233      1725.5465      48.028466     -5.0829907     -108.96816      17.682654      17.682983      17.684675      5529.6807    
       154   0             -2181.2344      1709.6444      1676.3635      1727.0233      1725.5465      48.028466     -5.0829907     -108.96816      17.682654      17.682983      17.684675      5529.6807    
       155   0             -2181.2344      1709.6444      1676.3635      1727.0233      1725.5465      48.028466     -5.0829907     -108.96816      17.682654      17.682983      17.684675      5529.6807    
       156   0             -2181.2344      1709.6444      1676.3635      1727.0233      1725.5465      48.028466     -5.0829907     -108.96816      17.682654      17.682983      17.684675      5529.6807    
       157   0             -2181.2344      1709.6444      1676.3635      1727.0233      1725.5465      48.028466     -5.0829906     -108.96816      17.682654      17.682983      17.684675      5529.6807    
       158   0             -2181.2344      1709.6444      1676.3635      1727.0233      1725.5465      48.028466     -5.0829906     -108.96816      17.682654      17.682983      17.684675      5529.6807    
       159   0             -2181.2344      1709.6444      1676.3635      1727.0233      1725.5465      48.028466     -5.0829906     -108.96816      17.682654      17.682983      17.684675      5529.6807    
       160   0             -2181.2344      1709.6444      1676.3635      1727.0233      1725.5465      48.028466     -5.0829906     -108.96816      17.682654      17.682983      17.684675      5529.6807    
       161   0             -2181.2344      1709.6444      1676.3635      1727.0233      1725.5465      48.028466     -5.0829906     -108.96816      17.682654      17.682983      17.684675      5529.6807    
Loop time of 0.146444 on 1 procs for 61 steps with 500 atoms

96.0% CPU use with 1 MPI tasks x 1 OpenMP threads

Minimization stats:
  Stopping criterion = force tolerance
  Energy initial, next-to-last, final = 
     -2180.97211284808  -2181.23436515185  -2181.23436515186
  Force two-norm initial, final = 2.0948597 6.3068841e-11
  Force max component initial, final = 0.18261716 8.9285385e-12
  Final line search alpha, max atom move = 1 8.9285385e-12
  Iterations, force evaluations = 61 120

MPI task timing breakdown:
Section |  min time  |  avg time  |  max time  |%varavg| %total
---------------------------------------------------------------
Pair    | 0.14364    | 0.14364    | 0.14364    |   0.0 | 98.09
Neigh   | 0          | 0          | 0          |   0.0 |  0.00
Comm    | 0.000704   | 0.000704   | 0.000704   |   0.0 |  0.48
Output  | 0.000981   | 0.000981   | 0.000981   |   0.0 |  0.67
Modify  | 0          | 0          | 0          |   0.0 |  0.00
Other   |            | 0.001117   |            |       |  0.76

Nlocal:            500 ave         500 max         500 min
Histogram: 1 0 0 0 0 0 0 0 0 0
Nghost:           1956 ave        1956 max        1956 min
Histogram: 1 0 0 0 0 0 0 0 0 0
Neighs:          33500 ave       33500 max       33500 min
Histogram: 1 0 0 0 0 0 0 0 0 0

Total # of neighbors = 33500
Ave neighs/atom = 67
Neighbor list builds = 0
Dangerous builds = 0
=========================================
Components of the Elastic Constant Tensor
=========================================
Elastic Constant C11all = 244.64784030251 GPa
Elastic Constant C22all = 244.118552273998 GPa
Elastic Constant C33all = 244.648374481505 GPa
Elastic Constant C12all = 152.406318101006 GPa
Elastic Constant C13all = 153.38698753425 GPa
Elastic Constant C23all = 152.413989356508 GPa
Elastic Constant C44all = 118.0435154528 GPa
Elastic Constant C55all = 118.42195131067 GPa
Elastic Constant C66all = 117.94884887195 GPa
Elastic Constant C14all = 0.106206574799671 GPa
Elastic Constant C15all = 0.0517528690962763 GPa
Elastic Constant C16all = 0.109629827752996 GPa
Elastic Constant C24all = -0.0143846531214535 GPa
Elastic Constant C25all = -0.250176476685965 GPa
Elastic Constant C26all = -0.0378602071236856 GPa
Elastic Constant C34all = -0.00565557392030769 GPa
Elastic Constant C35all = 0.143574957144551 GPa
Elastic Constant C36all = -0.14193479507685 GPa
Elastic Constant C45all = -0.222695925852519 GPa
Elastic Constant C46all = -0.114352282000198 GPa
Elastic Constant C56all = 0.110754904622354 GPa
=========================================
Average properties for a cubic crystal
=========================================
Bulk Modulus = 183.314373004616 GPa
Shear Modulus 1 = 118.138105211807 GPa
Shear Modulus 2 = 45.8679120110415 GPa
Poisson Ratio = 0.384524011080808
Total wall time: 0:00:02
