LAMMPS (2 Aug 2023 - Update 3)
OMP_NUM_THREADS environment is not set. Defaulting to 1 thread. (src/comm.cpp:98)
  using 1 OpenMP thread(s) per MPI task
Loaded 1 plugins from F:\Lammps\LAMMPS 64-bit 2Aug2023\plugins
Reading data file ...
  orthogonal box = (0 0 0) to (17.79 17.79 17.79)
  1 by 1 by 1 MPI processor grid
  reading atoms ...
  500 atoms
  read_data CPU = 0.001 seconds
Changing box ...
  triclinic box = (0 0 0) to (17.79 17.79 17.79) with tilt (0 0 0)
Neighbor list info ...
  update: every = 1 steps, delay = 0 steps, check = yes
  max neighbors/atom: 2000, page size: 100000
  master list distance cutoff = 6.80375
  ghost atom cutoff = 6.80375
  1 neighbor lists, perpetual/occasional/extra = 1 0 0
  (1) pair eam/alloy, perpetual
      attributes: half, newton on
      pair build: half/nsq/newton
      stencil: none
      bin: none
Setting up cg style minimization ...
  Unit style    : metal
  Current step  : 0
WARNING: Energy due to 3 extra global DOFs will be included in minimizer energies
 (src/min.cpp:228)
Per MPI rank memory allocation (min/avg/max) = 4.492 | 4.492 | 4.492 Mbytes
   Step          Temp          PotEng         Press           Pxx            Pyy            Pzz            Pxy            Pxz            Pyz             Lx             Ly             Lz           Volume    
         0   0             -2179.6637     -34071.425     -33886.673     -34163.385     -34164.215     -37.691996      13.225248      40.142282      17.79          17.79          17.79          5630.2521    
         1   0             -2179.6992     -33530.635     -33346.809     -33622.404     -33622.693     -38.147403      13.641903      40.096652      17.788235      17.788221      17.788221      5628.5678    
         2   0             -2179.7342     -32989.418     -32806.527     -33080.988     -33080.738     -38.603512      14.058115      40.048688      17.786471      17.786442      17.786442      5626.8839    
         3   0             -2179.7686     -32447.774     -32265.827     -32539.141     -32538.355     -39.060062      14.474115      39.998741      17.784707      17.784663      17.784663      5625.2003    
         4   0             -2179.8024     -31905.729     -31724.736     -31996.887     -31995.565     -39.5172        14.890382      39.947354      17.782943      17.782884      17.782884      5623.5172    
         5   0             -2179.8356     -31363.357     -31183.323     -31454.305     -31452.444     -39.976992      15.307249      39.897932      17.781179      17.781105      17.781105      5621.8344    
         6   0             -2179.8683     -30820.709     -30641.639     -30911.449     -30909.039     -40.439952      15.725153      39.851209      17.779415      17.779326      17.779326      5620.1521    
         7   0             -2179.9004     -30277.784     -30099.683     -30368.318     -30365.35      -40.906108      16.144226      39.807187      17.777652      17.777547      17.777547      5618.4701    
         8   0             -2179.9319     -29734.536     -29557.418     -29824.863     -29821.328     -41.374903      16.564455      39.764289      17.775889      17.775768      17.775769      5616.7886    
         9   0             -2179.9628     -29190.906     -29014.786     -29281.019     -29276.914     -41.844419      16.986462      39.720341      17.774125      17.773989      17.77399       5615.1075    
        10   0             -2179.9932     -28646.86      -28471.75      -28736.751     -28732.078     -42.314708      17.410497      39.674588      17.772363      17.77221       17.772211      5613.4268    
        11   0             -2180.0229     -28102.418     -27928.329     -28192.081     -28186.844     -42.785831      17.836141      39.627377      17.7706        17.770431      17.770432      5611.7466    
        12   0             -2180.0521     -27557.63      -27384.567     -27647.057     -27641.264     -43.257258      18.260072      39.578883      17.768838      17.768652      17.768654      5610.0667    
        13   0             -2180.0807     -27012.52      -26840.492     -27101.705     -27095.363     -43.72935       18.682444      39.530082      17.767076      17.766873      17.766875      5608.3873    
        14   0             -2180.1088     -26467.144     -26296.163     -26556.078     -26549.191     -44.202428      19.101263      39.48043       17.765314      17.765094      17.765096      5606.7083    
        15   0             -2180.1362     -25921.459     -25751.546     -26010.133     -26002.697     -44.677098      19.520045      39.430351      17.763552      17.763315      17.763318      5605.0298    
        16   0             -2180.1631     -25375.418     -25206.589     -25463.828     -25455.836     -45.153981      19.940806      39.380237      17.761791      17.761536      17.761539      5603.3517    
        17   0             -2180.1894     -24828.999     -24661.271     -24917.14      -24908.587     -45.632928      20.36376       39.330173      17.76003       17.759757      17.759761      5601.674     
        18   0             -2180.2151     -24282.18      -24115.558     -24370.048     -24360.933     -46.113062      20.789738      39.280669      17.758269      17.757978      17.757983      5599.9968    
        19   0             -2180.2402     -23735.043     -23569.536     -23822.634     -23812.959     -46.593697      21.214998      39.230002      17.756509      17.756199      17.756204      5598.32      
        20   0             -2180.2648     -23187.606     -23023.224     -23274.913     -23264.681     -47.074859      21.639528      39.1783        17.754749      17.75442       17.754426      5596.6437    
        21   0             -2180.2888     -22639.904     -22476.664     -22726.917     -22716.13      -47.556263      22.061794      39.125766      17.752989      17.752641      17.752648      5594.9678    
        22   0             -2180.3122     -22091.867     -21929.791     -22178.576     -22167.234     -48.038303      22.483393      39.073215      17.75123       17.750862      17.75087       5593.2924    
        23   0             -2180.335      -21543.529     -21382.63      -21629.93      -21618.029     -48.52107       22.904942      39.021405      17.749471      17.749083      17.749091      5591.6175    
        24   0             -2180.3572     -20994.889     -20835.179     -21080.975     -21068.512     -49.004653      23.326741      38.970583      17.747712      17.747304      17.747313      5589.9431    
        25   0             -2180.3789     -20445.987     -20287.471     -20531.757     -20518.733     -49.490653      23.750297      38.920398      17.745954      17.745525      17.745536      5588.2691    
        26   0             -2180.4        -19896.839     -19739.538     -19982.28      -19968.699     -49.979421      24.175862      38.871607      17.744196      17.743746      17.743758      5586.5956    
        27   0             -2180.4205     -19347.396     -19191.333     -19432.492     -19418.364     -50.470984      24.603212      38.82373       17.742439      17.741967      17.74198       5584.9227    
        28   0             -2180.4404     -18797.665     -18642.865     -18882.4       -18867.73      -50.965263      25.032393      38.776408      17.740682      17.740188      17.740202      5583.2502    
        29   0             -2180.4598     -18247.666     -18094.144     -18332.031     -18316.821     -51.459256      25.459862      38.728832      17.738925      17.738409      17.738425      5581.5783    
        30   0             -2180.4785     -17697.418     -17545.193     -17781.403     -17765.656     -51.952446      25.884655      38.68101       17.73717       17.73663       17.736647      5579.9069    
        31   0             -2180.4967     -17146.952     -16996.04      -17230.549     -17214.267     -52.444608      26.306953      38.633477      17.735414      17.734851      17.73487       5578.236     
        32   0             -2180.5143     -16596.233     -16446.661     -16679.427     -16662.611     -52.936876      26.728848      38.586756      17.73366       17.733072      17.733092      5576.5656    
        33   0             -2180.5313     -16045.227     -15897.02      -16128.005     -16110.656     -53.431812      27.153336      38.539639      17.731905      17.731293      17.731315      5574.8959    
        34   0             -2180.5478     -15493.94      -15347.123     -15576.29      -15558.409     -53.929525      27.580287      38.49185       17.730152      17.729514      17.729538      5573.2267    
        35   0             -2180.5637     -14942.387     -14796.981     -15024.294     -15005.885     -54.42959       28.009572      38.44383       17.728399      17.727735      17.727761      5571.5581    
        36   0             -2180.5789     -14390.65      -14246.674     -14472.104     -14453.172     -54.929928      28.439477      38.396766      17.726647      17.725956      17.725984      5569.8901    
        37   0             -2180.5937     -13838.772     -13696.252     -13919.757     -13900.307     -55.428901      28.869513      38.350368      17.724896      17.724177      17.724208      5568.2228    
        38   0             -2180.6078     -13286.765     -13145.73      -13367.265     -13347.301     -55.926531      29.299792      38.304445      17.723146      17.722398      17.722431      5566.5561    
        39   0             -2180.6213     -12734.609     -12595.104     -12814.6       -12794.125     -56.422392      29.729406      38.257367      17.721396      17.720619      17.720655      5564.89      
        40   0             -2180.6343     -12182.249     -12044.311     -12261.708     -12240.726     -56.918533      30.159242      38.210436      17.719648      17.71884       17.718879      5563.2247    
        41   0             -2180.6467     -11629.661     -11493.33      -11708.565     -11687.088     -57.415393      30.588575      38.16424       17.7179        17.717061      17.717103      5561.5601    
        42   0             -2180.6585     -11076.878     -10942.183     -11155.206     -11133.245     -57.913014      31.01748       38.11891       17.716154      17.715282      17.715327      5559.8963    
        43   0             -2180.6697     -10523.981     -10390.954     -10601.71      -10579.278     -58.41117       31.445525      38.072849      17.714409      17.713503      17.713551      5558.2333    
        44   0             -2180.6804     -9971.0104     -9839.693      -10048.115     -10025.223     -58.908825      31.872296      38.024308      17.712666      17.711724      17.711776      5556.5711    
        45   0             -2180.6905     -9418.0238     -9288.4653     -9494.4736     -9471.1324     -59.405491      32.298216      37.973239      17.710924      17.709945      17.710001      5554.9098    
        46   0             -2180.7        -8864.9936     -8737.2632     -8940.7485     -8916.9693     -59.901144      32.723893      37.921547      17.709183      17.708166      17.708227      5553.2495    
        47   0             -2180.7089     -8311.94       -8186.1006     -8386.9621     -8362.7575     -60.396012      33.150092      37.869903      17.707445      17.706387      17.706452      5551.5903    
        48   0             -2180.7172     -7758.8882     -7635.0098     -7833.1337     -7808.5211     -60.890551      33.57752       37.819922      17.705709      17.704608      17.704678      5549.9321    
        49   0             -2180.725      -7205.8649     -7084.0206     -7279.2869     -7254.2871     -61.384559      34.005445      37.77029       17.703975      17.702829      17.702905      5548.2752    
        50   0             -2180.7322     -6652.8854     -6533.1759     -6725.418      -6700.0623     -61.878451      34.432334      37.720973      17.702244      17.70105       17.701132      5546.6197    
        51   0             -2180.7388     -6099.9925     -5982.5163     -6171.5692     -6145.892      -62.371579      34.85801       37.671439      17.700516      17.699271      17.69936       5544.9656    
        52   0             -2180.7449     -5547.2814     -5432.1526     -5617.8258     -5591.8659     -62.863608      35.281314      37.620955      17.698791      17.697492      17.697588      5543.3132    
        53   0             -2180.7503     -4994.8949     -4882.2168     -5064.3382     -5038.1299     -63.355109      35.703639      37.569318      17.697071      17.695713      17.695818      5541.6628    
        54   0             -2180.7552     -4443.0112     -4332.9374     -4511.2563     -4484.8399     -63.845546      36.126042      37.517526      17.695356      17.693934      17.694048      5540.0146    
        55   0             -2180.7596     -3891.7685     -3784.4996     -3958.689      -3932.1168     -64.334504      36.548278      37.466172      17.693648      17.692155      17.692279      5538.3691    
        56   0             -2180.7634     -3341.2918     -3237.1096     -3406.7056     -3380.0602     -64.821434      36.969509      37.415902      17.691947      17.690376      17.690512      5536.7269    
        57   0             -2180.7666     -2791.7804     -2691.0431     -2855.4525     -2828.8457     -65.304259      37.387376      37.366127      17.690257      17.688597      17.688747      5535.0888    
        58   0             -2180.7692     -2243.6449     -2146.7998     -2305.2757     -2278.8591     -65.781953      37.801175      37.316009      17.68858       17.686818      17.686985      5533.4563    
        59   0             -2180.7713     -1697.6148     -1605.2741     -1756.7963     -1730.774      -66.25459       38.209429      37.265463      17.686924      17.685039      17.685226      5531.8315    
        60   0             -2180.7729     -1155.1607     -1068.2418     -1211.2825     -1185.958      -66.720168      38.611449      37.215346      17.685298      17.68326       17.683473      5530.2186    
        61   0             -2180.774      -619.44755     -539.7056      -671.35087     -647.28617     -67.17296       39.003433      37.166069      17.68373       17.681481      17.681732      5528.6271    
        62   0             -2180.7746     -100.53134     -32.277228     -145.36608     -123.9507      -67.589976      39.367765      37.118295      17.6823        17.679702      17.680016      5527.0877    
        63   0             -2180.7762      292.1249       316.66816      275.70838      283.99815     -67.708751      39.504408      37.073188      17.681905      17.677923      17.6785        5525.9339    
        64   0             -2180.7773     -158.39271     -151.1671      -162.98203     -161.029       -67.131852      39.035067      37.101806      17.683684      17.679133      17.679821      5527.2813    
        65   0             -2180.7799      343.67201      333.50549      350.06097      347.44958     -67.182027      39.128143      37.031128      17.68244       17.677354      17.678141      5525.8112    
        66   0             -2180.7816     -204.51852     -215.72063     -196.93879     -200.89613     -66.445035      38.527962      37.060487      17.684219      17.679084      17.679882      5527.4523    
        67   0             -2180.7845      320.97711      316.36965      323.72737      322.83432     -66.457398      38.591225      36.979304      17.68244       17.677539      17.678289      5525.9154    
        68   0             -2180.7864     -220.3114      -220.51158     -219.95952     -220.46311     -65.689501      37.967952      37.004906      17.684093      17.679318      17.680047      5527.5378    
        69   0             -2180.7893      331.01886      333.15732      329.32105      330.5782      -65.724414      38.050604      36.920736      17.682314      17.677638      17.678344      5525.9244    
        70   0             -2180.7914     -223.99435     -221.06129     -225.70046     -225.22131     -64.910129      37.391872      36.945774      17.684083      17.679417      17.680123      5527.5892    
        71   0             -2180.7945      339.46536      339.84533      338.9207       339.63006     -64.935908      37.469222      36.858166      17.682361      17.677638      17.678351      5525.941     
        72   0             -2180.7966     -211.43563     -211.44878     -211.21372     -211.6444      -64.113264      36.804407      36.88237       17.68414       17.679388      17.68011       5527.5941    
        73   0             -2180.7998      357.2354       355.87494      357.82289      358.00836     -64.121033      36.868031      36.790915      17.682379      17.67761       17.678331      5525.9317    
        74   0             -2180.8019     -197.84383     -198.49088     -197.21738     -197.82323     -63.29453       36.199143      36.815656      17.68415       17.679388      17.68011       5527.5971    
        75   0             -2180.8052      369.13142      368.4583       369.25836      369.67759     -63.267356      36.23565       36.719987      17.682371      17.677634      17.678347      5525.9416    
        76   0             -2180.8073     -185.54901     -185.2735      -185.54102     -185.83252     -62.450607      35.573435      36.745767      17.684135      17.679413      17.680126      5527.6052    
        77   0             -2180.8108      385.65103      385.31154      385.5466       386.09496     -62.388151      35.583145      36.644976      17.682356      17.67764       17.678348      5525.9393    
        78   0             -2180.8128     -170.0495      -169.76188     -170.06328     -170.32335     -61.578343      34.925563      36.671887      17.68413       17.679418      17.680127      5527.6053    
        79   0             -2180.8166      401.75675      401.11037      401.84329      402.31661     -61.469101      34.899201      36.56542       17.682358      17.677642      17.678348      5525.9403    
        80   0             -2180.8185     -154.23194     -154.25723     -154.0538      -154.38479     -60.670418      34.249462      36.593677      17.684131      17.67942       17.680127      5527.6064    
        81   0             -2180.8226      418.80195      418.14692      418.88238      419.37655     -60.504437      34.179165      36.480413      17.682352      17.677648      17.678349      5525.9409    
        82   0             -2180.8244     -137.30339     -137.25228     -137.19048     -137.46742     -59.717948      33.53813       36.509933      17.684124      17.679426      17.680128      5527.6065    
        83   0             -2180.8288      437.10329      436.49602      437.13992      437.67394     -59.47987       33.412026      36.388493      17.682345      17.677654      17.678351      5525.9409    
        84   0             -2180.8306     -119.36783     -119.2954      -119.28455     -119.52354     -58.706208      32.780231      36.419212      17.684117      17.679432      17.68013       5527.6068    
        85   0             -2180.8356      457.03424      456.35226      457.10701      457.64346     -58.371507      32.579379      36.287065      17.682338      17.677659      17.678351      5525.9405    
        86   0             -2180.8372     -99.777826     -99.786287     -99.658182     -99.889009     -57.611364      31.957436      36.319022      17.684111      17.679437      17.68013       5527.6065    
        87   0             -2180.8429      478.49859      477.83213      478.54781      479.11581     -57.136692      31.648008      36.171806      17.682332      17.677668      17.678354      5525.9422    
        88   0             -2180.8445     -78.652754     -78.637247     -78.566826     -78.754187     -56.390989      31.036983      36.204958      17.684105      17.679446      17.680133      5527.6082    
        89   0             -2180.8515      503.95326      503.20282      504.043        504.61397     -55.689737      30.552059      36.03355       17.682326      17.677677      17.678355      5525.9433    
        90   0             -2180.8529     -53.583274     -53.65477      -53.461158     -53.633895     -54.958944      29.95248       36.067861      17.684098      17.679455      17.680134      5527.6093    
        91   0             -2180.8625      535.52235      534.88906      535.5192       536.15879     -53.773826      29.09381       35.845736      17.682319      17.677698      17.678365      5525.9509    
        92   0             -2180.8639     -22.483863     -22.450449     -22.455201     -22.54594      -53.060127      28.507542      35.881152      17.684093      17.679475      17.680144      5527.6171    
        93   0             -2180.8849      605.03242      603.15862      605.81093      606.12772     -49.747872      26.013344      35.433756      17.682325      17.677713      17.678365      5525.9576    
        94   0             -2180.8862      46.724903      45.643126      47.435137      47.096448     -49.051706      25.441098      35.47          17.684095      17.679492      17.680144      5527.623     
        95   0             -2180.8892     -496.38623     -495.00664     -496.8617      -497.29034     -47.937694      24.541826      35.460011      17.685807      17.681271      17.68191       5529.2665    
        96   0             -2180.8905      68.581928      69.464591      67.980581      68.300612     -48.265354      24.83047       35.382704      17.684028      17.679497      17.680132      5527.5998    
        97   0             -2180.8968     -456.57899     -458.13187     -455.15456     -456.45055     -46.546075      23.460595      35.303512      17.685807      17.681195      17.681843      5529.222     
        98   0             -2180.898       108.85825      106.73993      110.20746      109.62737     -46.860761      23.738145      35.224107      17.684028      17.67942       17.680064      5527.5549    
        99   0             -2180.9036     -413.54469     -410.40612     -415.2548      -414.97315     -45.274735      22.46894       35.155361      17.685644      17.681199      17.68181       5529.1617    
       100   0             -2180.905       152.39414      154.87775      150.67369      151.63099     -45.555191      22.71845       35.071092      17.683868      17.679424      17.680031      5527.4952    
Loop time of 0.116809 on 1 procs for 100 steps with 500 atoms

107.0% CPU use with 1 MPI tasks x 1 OpenMP threads

Minimization stats:
  Stopping criterion = max iterations
  Energy initial, next-to-last, final = 
     -2179.66369034736  -2180.90358405799  -2180.90498147877
  Force two-norm initial, final = 207.40854 2.409311
  Force max component initial, final = 120.0574 0.53753376
  Final line search alpha, max atom move = 7.9779169e-05 4.2883996e-05
  Iterations, force evaluations = 100 100

MPI task timing breakdown:
Section |  min time  |  avg time  |  max time  |%varavg| %total
---------------------------------------------------------------
Pair    | 0.1091     | 0.1091     | 0.1091     |   0.0 | 93.40
Neigh   | 0          | 0          | 0          |   0.0 |  0.00
Comm    | 0.000602   | 0.000602   | 0.000602   |   0.0 |  0.52
Output  | 0.001472   | 0.001472   | 0.001472   |   0.0 |  1.26
Modify  | 0          | 0          | 0          |   0.0 |  0.00
Other   |            | 0.00564    |            |       |  4.83

Nlocal:            500 ave         500 max         500 min
Histogram: 1 0 0 0 0 0 0 0 0 0
Nghost:           1956 ave        1956 max        1956 min
Histogram: 1 0 0 0 0 0 0 0 0 0
Neighs:          33500 ave       33500 max       33500 min
Histogram: 1 0 0 0 0 0 0 0 0 0

Total # of neighbors = 33500
Ave neighs/atom = 67
Neighbor list builds = 0
Dangerous builds = 0
Displacing atoms ...
System init for write_restart ...
OMP_NUM_THREADS environment is not set. Defaulting to 1 thread. (src/comm.cpp:98)
  using 1 OpenMP thread(s) per MPI task
Loaded 1 plugins from F:\Lammps\LAMMPS 64-bit 2Aug2023\plugins

The 'box' command has been removed and will be ignored

Reading restart file ...
  restart file = 2 Aug 2023, LAMMPS = 2 Aug 2023
  restoring atom style atomic from restart
  triclinic box = (0.053066178 0.055288101 0.054984733) to (17.736934 17.734712 17.735015) with tilt (0 0 0)
  1 by 1 by 1 MPI processor grid
  pair style eam/alloy stores no restart info
  500 atoms
  read_restart CPU = 0.000 seconds
Changing box ...
  triclinic box = (0.053066178 0.055288101 0.054984733) to (17.736916 17.734712 17.735015) with tilt (0 0 0)
  triclinic box = (0.053066178 0.055288101 0.054984733) to (17.736916 17.734712 17.735015) with tilt (0 0 0)
  triclinic box = (0.053066178 0.055288101 0.054984733) to (17.736916 17.734712 17.735015) with tilt (0 0 0)
Neighbor list info ...
  update: every = 1 steps, delay = 0 steps, check = yes
  max neighbors/atom: 2000, page size: 100000
  master list distance cutoff = 6.80375
  ghost atom cutoff = 6.80375
  1 neighbor lists, perpetual/occasional/extra = 1 0 0
  (1) pair eam/alloy, perpetual
      attributes: half, newton on
      pair build: half/nsq/newton
      stencil: none
      bin: none
Setting up cg style minimization ...
  Unit style    : metal
  Current step  : 100
Per MPI rank memory allocation (min/avg/max) = 4.482 | 4.482 | 4.482 Mbytes
   Step          Temp          PotEng         Press           Pxx            Pyy            Pzz            Pxy            Pxz            Pyz             Lx             Ly             Lz           Volume    
       100   0             -2180.905       154.16719      157.31084      152.10259      153.08814     -45.588713      22.754147      35.087123      17.68385       17.679424      17.680031      5527.4897    
       101   0             -2181.0758      960.03226      946.71251      976.1502       957.23407     -0.7333926     -11.488086      28.588108      17.68385       17.679424      17.680031      5527.4897    
       102   0             -2181.1538      1645.2265      1615.1895      1690.6038      1629.8862      43.264433     -54.450523      15.09029       17.68385       17.679424      17.680031      5527.4897    
       103   0             -2181.1796      1760.2073      1752.8929      1815.0591      1712.67        62.295758     -81.833034     -10.101255      17.68385       17.679424      17.680031      5527.4897    
       104   0             -2181.1841      1888.4254      1881.3441      1942.2057      1841.7263      72.041295     -79.811367     -7.8476192      17.68385       17.679424      17.680031      5527.4897    
       105   0             -2181.1864      1780.6435      1776.7214      1829.4781      1735.7308      66.829662     -80.917992     -6.2262451      17.68385       17.679424      17.680031      5527.4897    
       106   0             -2181.1869      1767.3868      1763.277       1816.8306      1722.0528      63.13147      -82.930578     -9.6221269      17.68385       17.679424      17.680031      5527.4897    
       107   0             -2181.1871      1781.8486      1776.4468      1833.1041      1735.995       62.38421      -83.204147     -10.793313      17.68385       17.679424      17.680031      5527.4897    
       108   0             -2181.1871      1787.4754      1781.5569      1838.2975      1742.5718      64.105515     -82.935469     -10.760983      17.68385       17.679424      17.680031      5527.4897    
       109   0             -2181.1871      1783.0573      1777.4505      1832.7723      1738.9489      64.461819     -81.779693     -10.248342      17.68385       17.679424      17.680031      5527.4897    
       110   0             -2181.1872      1778.8596      1773.7616      1828.081       1734.7363      63.871267     -81.283008     -10.359651      17.68385       17.679424      17.680031      5527.4897    
       111   0             -2181.1872      1782.0806      1776.7864      1831.4197      1738.0359      63.600924     -81.580359     -9.8873168      17.68385       17.679424      17.680031      5527.4897    
       112   0             -2181.1872      1782.9477      1777.3752      1832.6647      1738.8031      63.679585     -81.497117     -9.8144079      17.68385       17.679424      17.680031      5527.4897    
       113   0             -2181.1872      1782.1581      1776.6058      1831.8197      1738.049       63.90375      -81.407924     -9.9396976      17.68385       17.679424      17.680031      5527.4897    
       114   0             -2181.1872      1781.718       1776.2557      1831.3093      1737.5889      63.880078     -81.478927     -9.8508383      17.68385       17.679424      17.680031      5527.4897    
       115   0             -2181.1872      1782.1932      1776.7866      1831.7801      1738.0127      63.940425     -81.574509     -9.7846721      17.68385       17.679424      17.680031      5527.4897    
       116   0             -2181.1872      1782.4125      1777.0401      1832.009       1738.1883      63.894335     -81.5481       -9.824554       17.68385       17.679424      17.680031      5527.4897    
       117   0             -2181.1872      1782.1008      1776.7537      1831.6407      1737.9079      63.906763     -81.500938     -9.8464784      17.68385       17.679424      17.680031      5527.4897    
       118   0             -2181.1872      1782.0075      1776.6499      1831.5369      1737.8359      63.904897     -81.491354     -9.8952954      17.68385       17.679424      17.680031      5527.4897    
       119   0             -2181.1872      1782.1103      1776.7373      1831.6371      1737.9565      63.919103     -81.508591     -9.931188       17.68385       17.679424      17.680031      5527.4897    
       120   0             -2181.1872      1782.1489      1776.7472      1831.6892      1738.0103      63.926604     -81.506396     -9.9359247      17.68385       17.679424      17.680031      5527.4897    
       121   0             -2181.1872      1782.1167      1776.7072      1831.6724      1737.9706      63.918785     -81.488146     -9.9299674      17.68385       17.679424      17.680031      5527.4897    
       122   0             -2181.1872      1782.1008      1776.6895      1831.6546      1737.9581      63.912901     -81.484412     -9.9333152      17.68385       17.679424      17.680031      5527.4897    
       123   0             -2181.1872      1782.1108      1776.6985      1831.6605      1737.9733      63.917507     -81.502213     -9.9356845      17.68385       17.679424      17.680031      5527.4897    
       124   0             -2181.1872      1782.1035      1776.6949      1831.6513      1737.9642      63.920992     -81.509275     -9.9351628      17.68385       17.679424      17.680031      5527.4897    
       125   0             -2181.1872      1782.0913      1776.684       1831.6396      1737.9502      63.920571     -81.511297     -9.9356312      17.68385       17.679424      17.680031      5527.4897    
       126   0             -2181.1872      1782.0973      1776.6888      1831.6462      1737.9568      63.918966     -81.513806     -9.9353218      17.68385       17.679424      17.680031      5527.4897    
       127   0             -2181.1872      1782.1053      1776.6963      1831.6536      1737.9659      63.919234     -81.514638     -9.9344591      17.68385       17.679424      17.680031      5527.4897    
       128   0             -2181.1872      1782.1059      1776.6975      1831.6529      1737.9671      63.919777     -81.514319     -9.9347016      17.68385       17.679424      17.680031      5527.4897    
       129   0             -2181.1872      1782.1034      1776.6957      1831.6499      1737.9646      63.919208     -81.513731     -9.9350661      17.68385       17.679424      17.680031      5527.4897    
       130   0             -2181.1872      1782.1027      1776.695       1831.6492      1737.9638      63.91932      -81.513778     -9.9355195      17.68385       17.679424      17.680031      5527.4897    
       131   0             -2181.1872      1782.1031      1776.695       1831.6497      1737.9644      63.919424     -81.513972     -9.9353422      17.68385       17.679424      17.680031      5527.4897    
       132   0             -2181.1872      1782.1036      1776.6954      1831.6503      1737.9651      63.919438     -81.514027     -9.9352588      17.68385       17.679424      17.680031      5527.4897    
       133   0             -2181.1872      1782.1031      1776.695       1831.6496      1737.9648      63.919446     -81.514082     -9.9351844      17.68385       17.679424      17.680031      5527.4897    
       134   0             -2181.1872      1782.1029      1776.6947      1831.6495      1737.9647      63.919309     -81.514006     -9.9352204      17.68385       17.679424      17.680031      5527.4897    
       135   0             -2181.1872      1782.103       1776.6946      1831.6496      1737.9648      63.919227     -81.513929     -9.9352229      17.68385       17.679424      17.680031      5527.4897    
       136   0             -2181.1872      1782.103       1776.6946      1831.6496      1737.9648      63.919224     -81.51393      -9.9351853      17.68385       17.679424      17.680031      5527.4897    
       137   0             -2181.1872      1782.103       1776.6946      1831.6496      1737.9648      63.919228     -81.51391      -9.9352129      17.68385       17.679424      17.680031      5527.4897    
       138   0             -2181.1872      1782.1031      1776.6947      1831.6496      1737.9649      63.919239     -81.513913     -9.9352144      17.68385       17.679424      17.680031      5527.4897    
       139   0             -2181.1872      1782.1031      1776.6947      1831.6496      1737.9649      63.919236     -81.513911     -9.9352112      17.68385       17.679424      17.680031      5527.4897    
       140   0             -2181.1872      1782.1031      1776.6947      1831.6496      1737.9649      63.919233     -81.513906     -9.9352156      17.68385       17.679424      17.680031      5527.4897    
       141   0             -2181.1872      1782.1031      1776.6947      1831.6497      1737.9649      63.919232     -81.513904     -9.9352181      17.68385       17.679424      17.680031      5527.4897    
       142   0             -2181.1872      1782.1031      1776.6947      1831.6497      1737.965       63.919233     -81.513905     -9.9352183      17.68385       17.679424      17.680031      5527.4897    
       143   0             -2181.1872      1782.1031      1776.6947      1831.6497      1737.965       63.919233     -81.513904     -9.9352181      17.68385       17.679424      17.680031      5527.4897    
       144   0             -2181.1872      1782.1031      1776.6947      1831.6496      1737.965       63.919232     -81.513901     -9.9352172      17.68385       17.679424      17.680031      5527.4897    
       145   0             -2181.1872      1782.1031      1776.6947      1831.6496      1737.965       63.919232     -81.513901     -9.9352164      17.68385       17.679424      17.680031      5527.4897    
       146   0             -2181.1872      1782.1031      1776.6947      1831.6496      1737.965       63.919232     -81.513901     -9.9352162      17.68385       17.679424      17.680031      5527.4897    
       147   0             -2181.1872      1782.1031      1776.6947      1831.6496      1737.965       63.919232     -81.513901     -9.9352162      17.68385       17.679424      17.680031      5527.4897    
       148   0             -2181.1872      1782.1031      1776.6947      1831.6496      1737.965       63.919232     -81.513901     -9.9352167      17.68385       17.679424      17.680031      5527.4897    
       149   0             -2181.1872      1782.1031      1776.6947      1831.6496      1737.965       63.919233     -81.513901     -9.9352166      17.68385       17.679424      17.680031      5527.4897    
       150   0             -2181.1872      1782.1031      1776.6947      1831.6496      1737.965       63.919232     -81.513901     -9.9352167      17.68385       17.679424      17.680031      5527.4897    
       151   0             -2181.1872      1782.1031      1776.6947      1831.6496      1737.965       63.919232     -81.513901     -9.9352167      17.68385       17.679424      17.680031      5527.4897    
       152   0             -2181.1872      1782.1031      1776.6947      1831.6496      1737.965       63.919232     -81.513901     -9.9352167      17.68385       17.679424      17.680031      5527.4897    
       153   0             -2181.1872      1782.1031      1776.6947      1831.6496      1737.965       63.919232     -81.513901     -9.9352167      17.68385       17.679424      17.680031      5527.4897    
       154   0             -2181.1872      1782.1031      1776.6947      1831.6496      1737.965       63.919232     -81.513901     -9.9352167      17.68385       17.679424      17.680031      5527.4897    
       155   0             -2181.1872      1782.1031      1776.6947      1831.6496      1737.965       63.919232     -81.513901     -9.9352167      17.68385       17.679424      17.680031      5527.4897    
       156   0             -2181.1872      1782.1031      1776.6947      1831.6496      1737.965       63.919232     -81.513901     -9.9352167      17.68385       17.679424      17.680031      5527.4897    
       157   0             -2181.1872      1782.1031      1776.6947      1831.6496      1737.965       63.919232     -81.513901     -9.9352167      17.68385       17.679424      17.680031      5527.4897    
       158   0             -2181.1872      1782.1031      1776.6947      1831.6496      1737.965       63.919232     -81.513901     -9.9352167      17.68385       17.679424      17.680031      5527.4897    
       159   0             -2181.1872      1782.1031      1776.6947      1831.6496      1737.965       63.919232     -81.513901     -9.9352167      17.68385       17.679424      17.680031      5527.4897    
       160   0             -2181.1872      1782.1031      1776.6947      1831.6496      1737.965       63.919232     -81.513901     -9.9352167      17.68385       17.679424      17.680031      5527.4897    
       161   0             -2181.1872      1782.1031      1776.6947      1831.6496      1737.965       63.919232     -81.513901     -9.9352167      17.68385       17.679424      17.680031      5527.4897    
Loop time of 0.143017 on 1 procs for 61 steps with 500 atoms

98.3% CPU use with 1 MPI tasks x 1 OpenMP threads

Minimization stats:
  Stopping criterion = force tolerance
  Energy initial, next-to-last, final = 
     -2180.90497174674  -2181.18719878294  -2181.18719878295
  Force two-norm initial, final = 2.2282665 6.5785334e-11
  Force max component initial, final = 0.21728577 1.0017265e-11
  Final line search alpha, max atom move = 1 1.0017265e-11
  Iterations, force evaluations = 61 120

MPI task timing breakdown:
Section |  min time  |  avg time  |  max time  |%varavg| %total
---------------------------------------------------------------
Pair    | 0.14037    | 0.14037    | 0.14037    |   0.0 | 98.15
Neigh   | 0          | 0          | 0          |   0.0 |  0.00
Comm    | 0.000706   | 0.000706   | 0.000706   |   0.0 |  0.49
Output  | 0.000961   | 0.000961   | 0.000961   |   0.0 |  0.67
Modify  | 0          | 0          | 0          |   0.0 |  0.00
Other   |            | 0.00098    |            |       |  0.69

Nlocal:            500 ave         500 max         500 min
Histogram: 1 0 0 0 0 0 0 0 0 0
Nghost:           1956 ave        1956 max        1956 min
Histogram: 1 0 0 0 0 0 0 0 0 0
Neighs:          33500 ave       33500 max       33500 min
Histogram: 1 0 0 0 0 0 0 0 0 0

Total # of neighbors = 33500
Ave neighs/atom = 67
Neighbor list builds = 0
Dangerous builds = 0
OMP_NUM_THREADS environment is not set. Defaulting to 1 thread. (src/comm.cpp:98)
  using 1 OpenMP thread(s) per MPI task
Loaded 1 plugins from F:\Lammps\LAMMPS 64-bit 2Aug2023\plugins

The 'box' command has been removed and will be ignored

Reading restart file ...
  restart file = 2 Aug 2023, LAMMPS = 2 Aug 2023
  restoring atom style atomic from restart
  triclinic box = (0.053066178 0.055288101 0.054984733) to (17.736934 17.734712 17.735015) with tilt (0 0 0)
  1 by 1 by 1 MPI processor grid
  pair style eam/alloy stores no restart info
  500 atoms
  read_restart CPU = 0.000 seconds
Changing box ...
  triclinic box = (0.053066178 0.055288101 0.054984733) to (17.736952 17.734712 17.735015) with tilt (0 0 0)
  triclinic box = (0.053066178 0.055288101 0.054984733) to (17.736952 17.734712 17.735015) with tilt (0 0 0)
  triclinic box = (0.053066178 0.055288101 0.054984733) to (17.736952 17.734712 17.735015) with tilt (0 0 0)
Neighbor list info ...
  update: every = 1 steps, delay = 0 steps, check = yes
  max neighbors/atom: 2000, page size: 100000
  master list distance cutoff = 6.80375
  ghost atom cutoff = 6.80375
  1 neighbor lists, perpetual/occasional/extra = 1 0 0
  (1) pair eam/alloy, perpetual
      attributes: half, newton on
      pair build: half/nsq/newton
      stencil: none
      bin: none
Setting up cg style minimization ...
  Unit style    : metal
  Current step  : 100
Per MPI rank memory allocation (min/avg/max) = 4.482 | 4.482 | 4.482 Mbytes
   Step          Temp          PotEng         Press           Pxx            Pyy            Pzz            Pxy            Pxz            Pyz             Lx             Ly             Lz           Volume    
       100   0             -2180.905       150.44361      152.36738      148.99175      149.97169     -45.58521       22.751338      35.087776      17.683885      17.679424      17.680031      5527.5007    
       101   0             -2181.0758      956.32368      941.78566      973.05351      954.13187     -0.7298191     -11.490916      28.589807      17.683885      17.679424      17.680031      5527.5007    
       102   0             -2181.1538      1641.529       1610.2682      1687.5212      1626.7976      43.267494     -54.452711      15.093004      17.683885      17.679424      17.680031      5527.5007    
       103   0             -2181.1796      1756.5689      1748.0284      1812.0396      1709.6386      62.302981     -81.840319     -10.101357      17.683885      17.679424      17.680031      5527.5007    
       104   0             -2181.1842      1884.7654      1876.4575      1939.1647      1838.6741      72.046402     -79.816654     -7.8469541      17.683885      17.679424      17.680031      5527.5007    
       105   0             -2181.1864      1776.9695      1771.8258      1826.4206      1732.6621      66.834386     -80.922752     -6.225557       17.683885      17.679424      17.680031      5527.5007    
       106   0             -2181.1869      1763.7211      1758.3893      1813.7819      1718.9921      63.136834     -82.935933     -9.6219143      17.683885      17.679424      17.680031      5527.5007    
       107   0             -2181.1871      1778.1864      1771.5624      1830.059       1732.9378      62.389463     -83.209877     -10.792931      17.683885      17.679424      17.680031      5527.5007    
       108   0             -2181.1871      1783.8118      1776.6713      1835.2508      1739.5133      64.110682     -82.940959     -10.760617      17.683885      17.679424      17.680031      5527.5007    
       109   0             -2181.1872      1779.3916      1772.5635      1829.7234      1735.8879      64.466827     -81.785058     -10.247983      17.683885      17.679424      17.680031      5527.5007    
       110   0             -2181.1872      1775.196       1768.8766      1825.0342      1731.6772      63.876302     -81.288581     -10.359477      17.683885      17.679424      17.680031      5527.5007    
       111   0             -2181.1872      1778.4178      1771.9022      1828.3735      1734.9778      63.606169     -81.585971     -9.887031       17.683885      17.679424      17.680031      5527.5007    
       112   0             -2181.1872      1779.284       1772.4903      1829.6177      1735.7441      63.684813     -81.502662     -9.8140726      17.683885      17.679424      17.680031      5527.5007    
       113   0             -2181.1872      1778.4941      1771.7205      1828.7723      1734.9896      63.908855     -81.413458     -9.9393382      17.683885      17.679424      17.680031      5527.5007    
       114   0             -2181.1872      1778.0543      1771.3706      1828.2624      1734.5299      63.885219     -81.484515     -9.8505086      17.683885      17.679424      17.680031      5527.5007    
       115   0             -2181.1872      1778.5295      1771.9015      1828.7333      1734.9539      63.945624     -81.580099     -9.7843568      17.683885      17.679424      17.680031      5527.5007    
       116   0             -2181.1872      1778.7486      1772.1547      1828.9619      1735.1292      63.899537     -81.553661     -9.8242116      17.683885      17.679424      17.680031      5527.5007    
       117   0             -2181.1872      1778.4369      1771.8683      1828.5936      1734.8488      63.91192      -81.506512     -9.8461367      17.683885      17.679424      17.680031      5527.5007    
       118   0             -2181.1872      1778.3438      1771.7646      1828.4898      1734.7769      63.910063     -81.496936     -9.8949572      17.683885      17.679424      17.680031      5527.5007    
       119   0             -2181.1872      1778.4465      1771.852       1828.5901      1734.8975      63.924276     -81.514172     -9.9308514      17.683885      17.679424      17.680031      5527.5007    
       120   0             -2181.1872      1778.4851      1771.8619      1828.6421      1734.9513      63.931774     -81.511973     -9.9355804      17.683885      17.679424      17.680031      5527.5007    
       121   0             -2181.1872      1778.4529      1771.8219      1828.6253      1734.9115      63.923949     -81.493723     -9.9296258      17.683885      17.679424      17.680031      5527.5007    
       122   0             -2181.1872      1778.437       1771.8042      1828.6076      1734.8991      63.91807      -81.489994     -9.9329767      17.683885      17.679424      17.680031      5527.5007    
       123   0             -2181.1872      1778.447       1771.8132      1828.6135      1734.9143      63.922679     -81.507789     -9.9353438      17.683885      17.679424      17.680031      5527.5007    
       124   0             -2181.1872      1778.4397      1771.8096      1828.6042      1734.9051      63.926163     -81.514852     -9.9348205      17.683885      17.679424      17.680031      5527.5007    
       125   0             -2181.1872      1778.4275      1771.7987      1828.5926      1734.8912      63.925741     -81.516875     -9.9352894      17.683885      17.679424      17.680031      5527.5007    
       126   0             -2181.1872      1778.4335      1771.8035      1828.5992      1734.8977      63.924136     -81.519383     -9.9349805      17.683885      17.679424      17.680031      5527.5007    
       127   0             -2181.1872      1778.4415      1771.811       1828.6066      1734.9068      63.924405     -81.520215     -9.9341176      17.683885      17.679424      17.680031      5527.5007    
       128   0             -2181.1872      1778.4421      1771.8122      1828.6059      1734.9081      63.924947     -81.519896     -9.9343597      17.683885      17.679424      17.680031      5527.5007    
       129   0             -2181.1872      1778.4396      1771.8103      1828.6028      1734.9055      63.924378     -81.519309     -9.9347243      17.683885      17.679424      17.680031      5527.5007    
       130   0             -2181.1872      1778.4389      1771.8097      1828.6022      1734.9047      63.92449      -81.519356     -9.9351778      17.683885      17.679424      17.680031      5527.5007    
       131   0             -2181.1872      1778.4392      1771.8097      1828.6027      1734.9053      63.924595     -81.519549     -9.9350005      17.683885      17.679424      17.680031      5527.5007    
       132   0             -2181.1872      1778.4398      1771.8101      1828.6032      1734.9061      63.924609     -81.519605     -9.934917       17.683885      17.679424      17.680031      5527.5007    
       133   0             -2181.1872      1778.4393      1771.8096      1828.6026      1734.9057      63.924616     -81.519659     -9.9348427      17.683885      17.679424      17.680031      5527.5007    
       134   0             -2181.1872      1778.4391      1771.8094      1828.6024      1734.9057      63.924479     -81.519584     -9.9348787      17.683885      17.679424      17.680031      5527.5007    
       135   0             -2181.1872      1778.4392      1771.8093      1828.6025      1734.9057      63.924397     -81.519507     -9.9348812      17.683885      17.679424      17.680031      5527.5007    
       136   0             -2181.1872      1778.4392      1771.8093      1828.6026      1734.9058      63.924394     -81.519507     -9.9348435      17.683885      17.679424      17.680031      5527.5007    
       137   0             -2181.1872      1778.4392      1771.8093      1828.6026      1734.9058      63.924398     -81.519488     -9.9348712      17.683885      17.679424      17.680031      5527.5007    
       138   0             -2181.1872      1778.4393      1771.8094      1828.6026      1734.9058      63.924409     -81.51949      -9.9348727      17.683885      17.679424      17.680031      5527.5007    
       139   0             -2181.1872      1778.4393      1771.8094      1828.6026      1734.9059      63.924407     -81.519489     -9.9348694      17.683885      17.679424      17.680031      5527.5007    
       140   0             -2181.1872      1778.4393      1771.8094      1828.6026      1734.9059      63.924404     -81.519483     -9.9348739      17.683885      17.679424      17.680031      5527.5007    
       141   0             -2181.1872      1778.4393      1771.8094      1828.6026      1734.9059      63.924402     -81.519481     -9.9348764      17.683885      17.679424      17.680031      5527.5007    
       142   0             -2181.1872      1778.4393      1771.8094      1828.6026      1734.9059      63.924404     -81.519483     -9.9348765      17.683885      17.679424      17.680031      5527.5007    
       143   0             -2181.1872      1778.4393      1771.8094      1828.6026      1734.9059      63.924403     -81.519482     -9.9348764      17.683885      17.679424      17.680031      5527.5007    
       144   0             -2181.1872      1778.4393      1771.8094      1828.6026      1734.9059      63.924402     -81.519479     -9.9348755      17.683885      17.679424      17.680031      5527.5007    
       145   0             -2181.1872      1778.4393      1771.8094      1828.6026      1734.9059      63.924402     -81.519479     -9.9348747      17.683885      17.679424      17.680031      5527.5007    
       146   0             -2181.1872      1778.4393      1771.8094      1828.6026      1734.9059      63.924403     -81.519479     -9.9348744      17.683885      17.679424      17.680031      5527.5007    
       147   0             -2181.1872      1778.4393      1771.8094      1828.6026      1734.9059      63.924403     -81.519479     -9.9348745      17.683885      17.679424      17.680031      5527.5007    
       148   0             -2181.1872      1778.4393      1771.8094      1828.6026      1734.9059      63.924403     -81.519479     -9.934875       17.683885      17.679424      17.680031      5527.5007    
       149   0             -2181.1872      1778.4393      1771.8094      1828.6026      1734.9059      63.924403     -81.519479     -9.9348749      17.683885      17.679424      17.680031      5527.5007    
       150   0             -2181.1872      1778.4393      1771.8094      1828.6026      1734.9059      63.924403     -81.519479     -9.934875       17.683885      17.679424      17.680031      5527.5007    
       151   0             -2181.1872      1778.4393      1771.8094      1828.6026      1734.9059      63.924403     -81.519479     -9.934875       17.683885      17.679424      17.680031      5527.5007    
       152   0             -2181.1872      1778.4393      1771.8094      1828.6026      1734.9059      63.924403     -81.519479     -9.934875       17.683885      17.679424      17.680031      5527.5007    
       153   0             -2181.1872      1778.4393      1771.8094      1828.6026      1734.9059      63.924403     -81.519479     -9.934875       17.683885      17.679424      17.680031      5527.5007    
       154   0             -2181.1872      1778.4393      1771.8094      1828.6026      1734.9059      63.924403     -81.519479     -9.934875       17.683885      17.679424      17.680031      5527.5007    
       155   0             -2181.1872      1778.4393      1771.8094      1828.6026      1734.9059      63.924403     -81.519479     -9.934875       17.683885      17.679424      17.680031      5527.5007    
       156   0             -2181.1872      1778.4393      1771.8094      1828.6026      1734.9059      63.924403     -81.519479     -9.934875       17.683885      17.679424      17.680031      5527.5007    
       157   0             -2181.1872      1778.4393      1771.8094      1828.6026      1734.9059      63.924403     -81.519479     -9.934875       17.683885      17.679424      17.680031      5527.5007    
       158   0             -2181.1872      1778.4393      1771.8094      1828.6026      1734.9059      63.924403     -81.519479     -9.934875       17.683885      17.679424      17.680031      5527.5007    
       159   0             -2181.1872      1778.4393      1771.8094      1828.6026      1734.9059      63.924403     -81.519479     -9.934875       17.683885      17.679424      17.680031      5527.5007    
       160   0             -2181.1872      1778.4393      1771.8094      1828.6026      1734.9059      63.924403     -81.519479     -9.934875       17.683885      17.679424      17.680031      5527.5007    
       161   0             -2181.1872      1778.4393      1771.8094      1828.6026      1734.9059      63.924403     -81.519479     -9.934875       17.683885      17.679424      17.680031      5527.5007    
Loop time of 0.152636 on 1 procs for 61 steps with 500 atoms

102.4% CPU use with 1 MPI tasks x 1 OpenMP threads

Minimization stats:
  Stopping criterion = force tolerance
  Energy initial, next-to-last, final = 
     -2180.90497281512  -2181.18721102524  -2181.18721102524
  Force two-norm initial, final = 2.2283163 6.5785135e-11
  Force max component initial, final = 0.21729053 1.0043355e-11
  Final line search alpha, max atom move = 1 1.0043355e-11
  Iterations, force evaluations = 61 120

MPI task timing breakdown:
Section |  min time  |  avg time  |  max time  |%varavg| %total
---------------------------------------------------------------
Pair    | 0.14971    | 0.14971    | 0.14971    |   0.0 | 98.08
Neigh   | 0          | 0          | 0          |   0.0 |  0.00
Comm    | 0.000819   | 0.000819   | 0.000819   |   0.0 |  0.54
Output  | 0.00101    | 0.00101    | 0.00101    |   0.0 |  0.66
Modify  | 0          | 0          | 0          |   0.0 |  0.00
Other   |            | 0.001097   |            |       |  0.72

Nlocal:            500 ave         500 max         500 min
Histogram: 1 0 0 0 0 0 0 0 0 0
Nghost:           1956 ave        1956 max        1956 min
Histogram: 1 0 0 0 0 0 0 0 0 0
Neighs:          33500 ave       33500 max       33500 min
Histogram: 1 0 0 0 0 0 0 0 0 0

Total # of neighbors = 33500
Ave neighs/atom = 67
Neighbor list builds = 0
Dangerous builds = 0
OMP_NUM_THREADS environment is not set. Defaulting to 1 thread. (src/comm.cpp:98)
  using 1 OpenMP thread(s) per MPI task
Loaded 1 plugins from F:\Lammps\LAMMPS 64-bit 2Aug2023\plugins

The 'box' command has been removed and will be ignored

Reading restart file ...
  restart file = 2 Aug 2023, LAMMPS = 2 Aug 2023
  restoring atom style atomic from restart
  triclinic box = (0.053066178 0.055288101 0.054984733) to (17.736934 17.734712 17.735015) with tilt (0 0 0)
  1 by 1 by 1 MPI processor grid
  pair style eam/alloy stores no restart info
  500 atoms
  read_restart CPU = 0.000 seconds
Changing box ...
  triclinic box = (0.053066178 0.055288101 0.054984733) to (17.736934 17.734694 17.735015) with tilt (0 0 0)
  triclinic box = (0.053066178 0.055288101 0.054984733) to (17.736934 17.734694 17.735015) with tilt (0 0 0)
Neighbor list info ...
  update: every = 1 steps, delay = 0 steps, check = yes
  max neighbors/atom: 2000, page size: 100000
  master list distance cutoff = 6.80375
  ghost atom cutoff = 6.80375
  1 neighbor lists, perpetual/occasional/extra = 1 0 0
  (1) pair eam/alloy, perpetual
      attributes: half, newton on
      pair build: half/nsq/newton
      stencil: none
      bin: none
Setting up cg style minimization ...
  Unit style    : metal
  Current step  : 100
Per MPI rank memory allocation (min/avg/max) = 4.482 | 4.482 | 4.482 Mbytes
   Step          Temp          PotEng         Press           Pxx            Pyy            Pzz            Pxy            Pxz            Pyz             Lx             Ly             Lz           Volume    
       100   0             -2180.905       154.16883      156.39453      153.02093      153.09102     -45.589084      22.754476      35.086844      17.683868      17.679406      17.680031      5527.4897    
       101   0             -2181.0758      960.03803      945.80186      977.07018      957.24204     -0.73351528    -11.487922      28.587614      17.683868      17.679406      17.680031      5527.4897    
       102   0             -2181.1538      1645.2261      1614.2689      1691.5199      1629.8894      43.264258     -54.449923      15.08959       17.683868      17.679406      17.680031      5527.4897    
       103   0             -2181.1796      1760.2067      1751.9741      1815.9735      1712.6726      62.296002     -81.832705     -10.103592      17.683868      17.679406      17.680031      5527.4897    
       104   0             -2181.1841      1888.4232      1880.4216      1943.1202      1841.7278      72.041084     -79.810937     -7.8487404      17.683868      17.679406      17.680031      5527.4897    
       105   0             -2181.1864      1780.6412      1775.8008      1830.3908      1735.732       66.829197     -80.917675     -6.2276771      17.683868      17.679406      17.680031      5527.4897    
       106   0             -2181.1869      1767.3852      1762.3572      1817.7439      1722.0545      63.131055     -82.93005      -9.6236223      17.683868      17.679406      17.680031      5527.4897    
       107   0             -2181.1871      1781.8474      1775.5276      1834.0175      1735.9971      62.383828     -83.203752     -10.794867      17.683868      17.679406      17.680031      5527.4897    
       108   0             -2181.1871      1787.4738      1780.6373      1839.2106      1742.5736      64.105107     -82.935065     -10.762529      17.683868      17.679406      17.680031      5527.4897    
       109   0             -2181.1871      1783.0559      1776.5314      1833.6853      1738.951       64.461458     -81.779365     -10.249875      17.683868      17.679406      17.680031      5527.4897    
       110   0             -2181.1872      1778.8581      1772.8424      1828.9938      1734.7382      63.870863     -81.28267      -10.36116       17.683868      17.679406      17.680031      5527.4897    
       111   0             -2181.1872      1782.0792      1775.8674      1832.3324      1738.0379      63.600598     -81.580047     -9.8888396      17.683868      17.679406      17.680031      5527.4897    
       112   0             -2181.1872      1782.9462      1776.4562      1833.5773      1738.8051      63.679212     -81.496822     -9.8159243      17.683868      17.679406      17.680031      5527.4897    
       113   0             -2181.1872      1782.1566      1775.6867      1832.7322      1738.051       63.903386     -81.407626     -9.9412082      17.683868      17.679406      17.680031      5527.4897    
       114   0             -2181.1872      1781.7164      1775.3366      1832.2218      1737.5908      63.879705     -81.478625     -9.8523464      17.683868      17.679406      17.680031      5527.4897    
       115   0             -2181.1872      1782.1916      1775.8674      1832.6927      1738.0147      63.940051     -81.574199     -9.7861954      17.683868      17.679406      17.680031      5527.4897    
       116   0             -2181.1872      1782.4109      1776.1209      1832.9215      1738.1903      63.893963     -81.547794     -9.8260771      17.683868      17.679406      17.680031      5527.4897    
       117   0             -2181.1872      1782.0992      1775.8345      1832.5532      1737.9099      63.906391     -81.500633     -9.8480007      17.683868      17.679406      17.680031      5527.4897    
       118   0             -2181.1872      1782.006       1775.7307      1832.4494      1737.8379      63.904524     -81.491048     -9.8968159      17.683868      17.679406      17.680031      5527.4897    
       119   0             -2181.1872      1782.1087      1775.8181      1832.5496      1737.9585      63.918729     -81.508285     -9.9327064      17.683868      17.679406      17.680031      5527.4897    
       120   0             -2181.1872      1782.1474      1775.828       1832.6017      1738.0123      63.92623      -81.506089     -9.9374428      17.683868      17.679406      17.680031      5527.4897    
       121   0             -2181.1872      1782.1152      1775.788       1832.5849      1737.9725      63.918411     -81.487839     -9.9314857      17.683868      17.679406      17.680031      5527.4897    
       122   0             -2181.1872      1782.0992      1775.7704      1832.5671      1737.9601      63.912527     -81.484105     -9.9348338      17.683868      17.679406      17.680031      5527.4897    
       123   0             -2181.1872      1782.1092      1775.7793      1832.573       1737.9753      63.917133     -81.501905     -9.9372016      17.683868      17.679406      17.680031      5527.4897    
       124   0             -2181.1872      1782.1019      1775.7757      1832.5638      1737.9662      63.920619     -81.508967     -9.9366801      17.683868      17.679406      17.680031      5527.4897    
       125   0             -2181.1872      1782.0897      1775.7648      1832.5521      1737.9522      63.920197     -81.51099      -9.9371485      17.683868      17.679406      17.680031      5527.4897    
       126   0             -2181.1872      1782.0957      1775.7696      1832.5587      1737.9588      63.918592     -81.513498     -9.936839       17.683868      17.679406      17.680031      5527.4897    
       127   0             -2181.1872      1782.1037      1775.7771      1832.5662      1737.9679      63.91886      -81.51433      -9.9359763      17.683868      17.679406      17.680031      5527.4897    
       128   0             -2181.1872      1782.1043      1775.7783      1832.5654      1737.9691      63.919403     -81.514011     -9.9362187      17.683868      17.679406      17.680031      5527.4897    
       129   0             -2181.1872      1782.1018      1775.7765      1832.5624      1737.9666      63.918834     -81.513424     -9.9365832      17.683868      17.679406      17.680031      5527.4897    
       130   0             -2181.1872      1782.1011      1775.7758      1832.5617      1737.9658      63.918946     -81.513471     -9.9370366      17.683868      17.679406      17.680031      5527.4897    
       131   0             -2181.1872      1782.1015      1775.7758      1832.5622      1737.9664      63.91905      -81.513664     -9.9368593      17.683868      17.679406      17.680031      5527.4897    
       132   0             -2181.1872      1782.102       1775.7762      1832.5628      1737.9671      63.919064     -81.51372      -9.9367758      17.683868      17.679406      17.680031      5527.4897    
       133   0             -2181.1872      1782.1016      1775.7758      1832.5622      1737.9667      63.919072     -81.513774     -9.9367015      17.683868      17.679406      17.680031      5527.4897    
       134   0             -2181.1872      1782.1014      1775.7755      1832.562       1737.9667      63.918935     -81.513698     -9.9367374      17.683868      17.679406      17.680031      5527.4897    
       135   0             -2181.1872      1782.1014      1775.7754      1832.5621      1737.9668      63.918853     -81.513622     -9.93674        17.683868      17.679406      17.680031      5527.4897    
       136   0             -2181.1872      1782.1014      1775.7754      1832.5621      1737.9668      63.91885      -81.513622     -9.9367024      17.683868      17.679406      17.680031      5527.4897    
       137   0             -2181.1872      1782.1015      1775.7754      1832.5621      1737.9668      63.918853     -81.513602     -9.93673        17.683868      17.679406      17.680031      5527.4897    
       138   0             -2181.1872      1782.1015      1775.7755      1832.5621      1737.9669      63.918865     -81.513605     -9.9367315      17.683868      17.679406      17.680031      5527.4897    
       139   0             -2181.1872      1782.1015      1775.7755      1832.5622      1737.9669      63.918862     -81.513603     -9.9367282      17.683868      17.679406      17.680031      5527.4897    
       140   0             -2181.1872      1782.1015      1775.7755      1832.5622      1737.9669      63.918859     -81.513598     -9.9367327      17.683868      17.679406      17.680031      5527.4897    
       141   0             -2181.1872      1782.1015      1775.7755      1832.5622      1737.9669      63.918858     -81.513596     -9.9367352      17.683868      17.679406      17.680031      5527.4897    
       142   0             -2181.1872      1782.1015      1775.7755      1832.5622      1737.9669      63.918859     -81.513598     -9.9367354      17.683868      17.679406      17.680031      5527.4897    
       143   0             -2181.1872      1782.1015      1775.7755      1832.5622      1737.9669      63.918859     -81.513596     -9.9367352      17.683868      17.679406      17.680031      5527.4897    
       144   0             -2181.1872      1782.1015      1775.7755      1832.5622      1737.9669      63.918858     -81.513594     -9.9367343      17.683868      17.679406      17.680031      5527.4897    
       145   0             -2181.1872      1782.1015      1775.7755      1832.5622      1737.9669      63.918858     -81.513594     -9.9367335      17.683868      17.679406      17.680031      5527.4897    
       146   0             -2181.1872      1782.1015      1775.7755      1832.5622      1737.9669      63.918858     -81.513594     -9.9367332      17.683868      17.679406      17.680031      5527.4897    
       147   0             -2181.1872      1782.1015      1775.7755      1832.5622      1737.9669      63.918858     -81.513594     -9.9367333      17.683868      17.679406      17.680031      5527.4897    
       148   0             -2181.1872      1782.1015      1775.7755      1832.5622      1737.9669      63.918858     -81.513593     -9.9367338      17.683868      17.679406      17.680031      5527.4897    
       149   0             -2181.1872      1782.1015      1775.7755      1832.5622      1737.9669      63.918858     -81.513594     -9.9367337      17.683868      17.679406      17.680031      5527.4897    
       150   0             -2181.1872      1782.1015      1775.7755      1832.5622      1737.9669      63.918858     -81.513594     -9.9367338      17.683868      17.679406      17.680031      5527.4897    
       151   0             -2181.1872      1782.1015      1775.7755      1832.5622      1737.9669      63.918858     -81.513594     -9.9367338      17.683868      17.679406      17.680031      5527.4897    
       152   0             -2181.1872      1782.1015      1775.7755      1832.5622      1737.9669      63.918858     -81.513594     -9.9367338      17.683868      17.679406      17.680031      5527.4897    
       153   0             -2181.1872      1782.1015      1775.7755      1832.5622      1737.9669      63.918858     -81.513594     -9.9367338      17.683868      17.679406      17.680031      5527.4897    
       154   0             -2181.1872      1782.1015      1775.7755      1832.5622      1737.9669      63.918858     -81.513594     -9.9367338      17.683868      17.679406      17.680031      5527.4897    
       155   0             -2181.1872      1782.1015      1775.7755      1832.5622      1737.9669      63.918858     -81.513594     -9.9367338      17.683868      17.679406      17.680031      5527.4897    
       156   0             -2181.1872      1782.1015      1775.7755      1832.5622      1737.9669      63.918858     -81.513594     -9.9367338      17.683868      17.679406      17.680031      5527.4897    
       157   0             -2181.1872      1782.1015      1775.7755      1832.5622      1737.9669      63.918858     -81.513594     -9.9367338      17.683868      17.679406      17.680031      5527.4897    
       158   0             -2181.1872      1782.1015      1775.7755      1832.5622      1737.9669      63.918858     -81.513594     -9.9367338      17.683868      17.679406      17.680031      5527.4897    
       159   0             -2181.1872      1782.1015      1775.7755      1832.5622      1737.9669      63.918858     -81.513594     -9.9367338      17.683868      17.679406      17.680031      5527.4897    
       160   0             -2181.1872      1782.1015      1775.7755      1832.5622      1737.9669      63.918858     -81.513594     -9.9367338      17.683868      17.679406      17.680031      5527.4897    
       161   0             -2181.1872      1782.1015      1775.7755      1832.5622      1737.9669      63.918858     -81.513594     -9.9367338      17.683868      17.679406      17.680031      5527.4897    
Loop time of 0.144437 on 1 procs for 61 steps with 500 atoms

108.2% CPU use with 1 MPI tasks x 1 OpenMP threads

Minimization stats:
  Stopping criterion = force tolerance
  Energy initial, next-to-last, final = 
     -2180.90497176154  -2181.18719859017  -2181.18719859018
  Force two-norm initial, final = 2.2282656 6.5788457e-11
  Force max component initial, final = 0.21728451 1.0040219e-11
  Final line search alpha, max atom move = 1 1.0040219e-11
  Iterations, force evaluations = 61 120

MPI task timing breakdown:
Section |  min time  |  avg time  |  max time  |%varavg| %total
---------------------------------------------------------------
Pair    | 0.14184    | 0.14184    | 0.14184    |   0.0 | 98.20
Neigh   | 0          | 0          | 0          |   0.0 |  0.00
Comm    | 0.000706   | 0.000706   | 0.000706   |   0.0 |  0.49
Output  | 0.000942   | 0.000942   | 0.000942   |   0.0 |  0.65
Modify  | 0          | 0          | 0          |   0.0 |  0.00
Other   |            | 0.000949   |            |       |  0.66

Nlocal:            500 ave         500 max         500 min
Histogram: 1 0 0 0 0 0 0 0 0 0
Nghost:           1956 ave        1956 max        1956 min
Histogram: 1 0 0 0 0 0 0 0 0 0
Neighs:          33500 ave       33500 max       33500 min
Histogram: 1 0 0 0 0 0 0 0 0 0

Total # of neighbors = 33500
Ave neighs/atom = 67
Neighbor list builds = 0
Dangerous builds = 0
OMP_NUM_THREADS environment is not set. Defaulting to 1 thread. (src/comm.cpp:98)
  using 1 OpenMP thread(s) per MPI task
Loaded 1 plugins from F:\Lammps\LAMMPS 64-bit 2Aug2023\plugins

The 'box' command has been removed and will be ignored

Reading restart file ...
  restart file = 2 Aug 2023, LAMMPS = 2 Aug 2023
  restoring atom style atomic from restart
  triclinic box = (0.053066178 0.055288101 0.054984733) to (17.736934 17.734712 17.735015) with tilt (0 0 0)
  1 by 1 by 1 MPI processor grid
  pair style eam/alloy stores no restart info
  500 atoms
  read_restart CPU = 0.000 seconds
Changing box ...
  triclinic box = (0.053066178 0.055288101 0.054984733) to (17.736934 17.73473 17.735015) with tilt (0 0 0)
  triclinic box = (0.053066178 0.055288101 0.054984733) to (17.736934 17.73473 17.735015) with tilt (0 0 0)
Neighbor list info ...
  update: every = 1 steps, delay = 0 steps, check = yes
  max neighbors/atom: 2000, page size: 100000
  master list distance cutoff = 6.80375
  ghost atom cutoff = 6.80375
  1 neighbor lists, perpetual/occasional/extra = 1 0 0
  (1) pair eam/alloy, perpetual
      attributes: half, newton on
      pair build: half/nsq/newton
      stencil: none
      bin: none
Setting up cg style minimization ...
  Unit style    : metal
  Current step  : 100
Per MPI rank memory allocation (min/avg/max) = 4.482 | 4.482 | 4.482 Mbytes
   Step          Temp          PotEng         Press           Pxx            Pyy            Pzz            Pxy            Pxz            Pyz             Lx             Ly             Lz           Volume    
       100   0             -2180.905       150.44196      153.28369      148.0734       149.9688      -45.584839      22.751009      35.088056      17.683868      17.679441      17.680031      5527.5007    
       101   0             -2181.0758      956.31791      942.69631      972.13352      954.1239      -0.72969621    -11.49108       28.590302      17.683868      17.679441      17.680031      5527.5007    
       102   0             -2181.1538      1641.5294      1611.1887      1686.6052      1626.7944      43.267668     -54.453311      15.093704      17.683868      17.679441      17.680031      5527.5007    
       103   0             -2181.1796      1756.5695      1748.9472      1811.1252      1709.636       62.302738     -81.840649     -10.099016      17.683868      17.679441      17.680031      5527.5007    
       104   0             -2181.1842      1884.7676      1877.38        1938.2502      1838.6727      72.046614     -79.817084     -7.8458289      17.683868      17.679441      17.680031      5527.5007    
       105   0             -2181.1864      1776.9717      1772.7464      1825.5078      1732.6609      66.83485      -80.92307      -6.2241243      17.683868      17.679441      17.680031      5527.5007    
       106   0             -2181.1869      1763.7227      1759.3091      1812.8686      1718.9904      63.137249     -82.936461     -9.6204188      17.683868      17.679441      17.680031      5527.5007    
       107   0             -2181.1871      1778.1877      1772.4816      1829.1457      1732.9356      62.389844     -83.210271     -10.791376      17.683868      17.679441      17.680031      5527.5007    
       108   0             -2181.1871      1783.8134      1777.5909      1834.3377      1739.5115      64.11109      -82.941363     -10.759072      17.683868      17.679441      17.680031      5527.5007    
       109   0             -2181.1872      1779.393       1773.4827      1828.8104      1735.8859      64.467189     -81.785386     -10.24645       17.683868      17.679441      17.680031      5527.5007    
       110   0             -2181.1872      1775.1975      1769.7957      1824.1214      1731.6753      63.876705     -81.288919     -10.357968      17.683868      17.679441      17.680031      5527.5007    
       111   0             -2181.1872      1778.4193      1772.8212      1827.4608      1734.9758      63.606495     -81.586283     -9.8855079      17.683868      17.679441      17.680031      5527.5007    
       112   0             -2181.1872      1779.2855      1773.4093      1828.7051      1735.7422      63.685186     -81.502957     -9.8125563      17.683868      17.679441      17.680031      5527.5007    
       113   0             -2181.1872      1778.4957      1772.6396      1827.8598      1734.9876      63.909219     -81.413756     -9.9378273      17.683868      17.679441      17.680031      5527.5007    
       114   0             -2181.1872      1778.0558      1772.2897      1827.3498      1734.5279      63.885593     -81.484817     -9.8490001      17.683868      17.679441      17.680031      5527.5007    
       115   0             -2181.1872      1778.5311      1772.8207      1827.8208      1734.9519      63.945998     -81.580409     -9.7828331      17.683868      17.679441      17.680031      5527.5007    
       116   0             -2181.1872      1778.7502      1773.0739      1828.0494      1735.1273      63.899909     -81.553968     -9.8226883      17.683868      17.679441      17.680031      5527.5007    
       117   0             -2181.1872      1778.4385      1772.7875      1827.6811      1734.8468      63.912292     -81.506817     -9.844615       17.683868      17.679441      17.680031      5527.5007    
       118   0             -2181.1872      1778.3453      1772.6838      1827.5773      1734.7749      63.910436     -81.497242     -9.8934368      17.683868      17.679441      17.680031      5527.5007    
       119   0             -2181.1872      1778.4481      1772.7712      1827.6775      1734.8955      63.924649     -81.514478     -9.9293327      17.683868      17.679441      17.680031      5527.5007    
       120   0             -2181.1872      1778.4867      1772.7811      1827.7296      1734.9493      63.932149     -81.512279     -9.9340619      17.683868      17.679441      17.680031      5527.5007    
       121   0             -2181.1872      1778.4544      1772.7411      1827.7128      1734.9095      63.924323     -81.494031     -9.9281071      17.683868      17.679441      17.680031      5527.5007    
       122   0             -2181.1872      1778.4385      1772.7234      1827.6951      1734.8971      63.918444     -81.490301     -9.9314578      17.683868      17.679441      17.680031      5527.5007    
       123   0             -2181.1872      1778.4485      1772.7324      1827.701       1734.9123      63.923053     -81.508096     -9.9338264      17.683868      17.679441      17.680031      5527.5007    
       124   0             -2181.1872      1778.4412      1772.7288      1827.6917      1734.9031      63.926536     -81.515159     -9.9333029      17.683868      17.679441      17.680031      5527.5007    
       125   0             -2181.1872      1778.4291      1772.7179      1827.6801      1734.8892      63.926115     -81.517182     -9.9337718      17.683868      17.679441      17.680031      5527.5007    
       126   0             -2181.1872      1778.435       1772.7227      1827.6867      1734.8958      63.92451      -81.51969      -9.9334629      17.683868      17.679441      17.680031      5527.5007    
       127   0             -2181.1872      1778.443       1772.7302      1827.6941      1734.9049      63.924779     -81.520522     -9.9326         17.683868      17.679441      17.680031      5527.5007    
       128   0             -2181.1872      1778.4436      1772.7314      1827.6933      1734.9061      63.925321     -81.520203     -9.9328421      17.683868      17.679441      17.680031      5527.5007    
       129   0             -2181.1872      1778.4411      1772.7295      1827.6903      1734.9035      63.924753     -81.519616     -9.9332068      17.683868      17.679441      17.680031      5527.5007    
       130   0             -2181.1872      1778.4404      1772.7289      1827.6896      1734.9028      63.924864     -81.519662     -9.9336603      17.683868      17.679441      17.680031      5527.5007    
       131   0             -2181.1872      1778.4408      1772.7289      1827.6902      1734.9034      63.924969     -81.519855     -9.9334829      17.683868      17.679441      17.680031      5527.5007    
       132   0             -2181.1872      1778.4414      1772.7293      1827.6907      1734.9041      63.924983     -81.519911     -9.9333995      17.683868      17.679441      17.680031      5527.5007    
       133   0             -2181.1872      1778.4409      1772.7288      1827.6901      1734.9037      63.92499      -81.519966     -9.9333252      17.683868      17.679441      17.680031      5527.5007    
[...]
       155   0             -2181.1872      1780.2684      1774.2493      1830.1232      1736.4327      65.104331     -81.515799     -9.9344935      17.683868      17.679424      17.680031      5527.4952    
       156   0             -2181.1872      1780.2684      1774.2493      1830.1232      1736.4327      65.104331     -81.515799     -9.9344935      17.683868      17.679424      17.680031      5527.4952    
       157   0             -2181.1872      1780.2684      1774.2493      1830.1232      1736.4327      65.104331     -81.515799     -9.9344935      17.683868      17.679424      17.680031      5527.4952    
       158   0             -2181.1872      1780.2684      1774.2493      1830.1232      1736.4327      65.104331     -81.515799     -9.9344935      17.683868      17.679424      17.680031      5527.4952    
       159   0             -2181.1872      1780.2684      1774.2493      1830.1232      1736.4327      65.104331     -81.515799     -9.9344935      17.683868      17.679424      17.680031      5527.4952    
       160   0             -2181.1872      1780.2684      1774.2493      1830.1232      1736.4327      65.104331     -81.515799     -9.9344935      17.683868      17.679424      17.680031      5527.4952    
       161   0             -2181.1872      1780.2684      1774.2493      1830.1232      1736.4327      65.104331     -81.515799     -9.9344935      17.683868      17.679424      17.680031      5527.4952    
Loop time of 0.141329 on 1 procs for 61 steps with 500 atoms

99.5% CPU use with 1 MPI tasks x 1 OpenMP threads

Minimization stats:
  Stopping criterion = force tolerance
  Energy initial, next-to-last, final = 
     -2180.90497244043  -2181.18720468572  -2181.18720468571
  Force two-norm initial, final = 2.22829 6.5789293e-11
  Force max component initial, final = 0.21728804 1.0012824e-11
  Final line search alpha, max atom move = 1 1.0012824e-11
  Iterations, force evaluations = 61 120

MPI task timing breakdown:
Section |  min time  |  avg time  |  max time  |%varavg| %total
---------------------------------------------------------------
Pair    | 0.13875    | 0.13875    | 0.13875    |   0.0 | 98.17
Neigh   | 0          | 0          | 0          |   0.0 |  0.00
Comm    | 0.000695   | 0.000695   | 0.000695   |   0.0 |  0.49
Output  | 0.00092    | 0.00092    | 0.00092    |   0.0 |  0.65
Modify  | 0          | 0          | 0          |   0.0 |  0.00
Other   |            | 0.000966   |            |       |  0.68

Nlocal:            500 ave         500 max         500 min
Histogram: 1 0 0 0 0 0 0 0 0 0
Nghost:           1956 ave        1956 max        1956 min
Histogram: 1 0 0 0 0 0 0 0 0 0
Neighs:          33500 ave       33500 max       33500 min
Histogram: 1 0 0 0 0 0 0 0 0 0

Total # of neighbors = 33500
Ave neighs/atom = 67
Neighbor list builds = 0
Dangerous builds = 0
OMP_NUM_THREADS environment is not set. Defaulting to 1 thread. (src/comm.cpp:98)
  using 1 OpenMP thread(s) per MPI task
Loaded 1 plugins from F:\Lammps\LAMMPS 64-bit 2Aug2023\plugins

The 'box' command has been removed and will be ignored

Reading restart file ...
  restart file = 2 Aug 2023, LAMMPS = 2 Aug 2023
  restoring atom style atomic from restart
  triclinic box = (0.053066178 0.055288101 0.054984733) to (17.736934 17.734712 17.735015) with tilt (0 0 0)
  1 by 1 by 1 MPI processor grid
  pair style eam/alloy stores no restart info
  500 atoms
  read_restart CPU = 0.000 seconds
Changing box ...
  triclinic box = (0.053066178 0.055288101 0.054984733) to (17.736934 17.734712 17.735015) with tilt (1.7679424e-05 0 0)
Neighbor list info ...
  update: every = 1 steps, delay = 0 steps, check = yes
  max neighbors/atom: 2000, page size: 100000
  master list distance cutoff = 6.80375
  ghost atom cutoff = 6.80375
  1 neighbor lists, perpetual/occasional/extra = 1 0 0
  (1) pair eam/alloy, perpetual
      attributes: half, newton on
      pair build: half/nsq/newton
      stencil: none
      bin: none
Setting up cg style minimization ...
  Unit style    : metal
  Current step  : 100
Per MPI rank memory allocation (min/avg/max) = 4.482 | 4.482 | 4.482 Mbytes
   Step          Temp          PotEng         Press           Pxx            Pyy            Pzz            Pxy            Pxz            Pyz             Lx             Ly             Lz           Volume    
       100   0             -2180.905       152.30709      154.84077      150.54929      151.53119     -46.777301      22.752667      35.087425      17.683868      17.679424      17.680031      5527.4952    
       101   0             -2181.0758      958.17984      944.25094      974.60407      955.68451     -1.9161655     -11.489616      28.588785      17.683868      17.679424      17.680031      5527.4952    
       102   0             -2181.1538      1643.3754      1612.7266      1689.0599      1628.3398      42.082376     -54.451572      15.091365      17.683868      17.679424      17.680031      5527.4952    
       103   0             -2181.1796      1758.3975      1750.4698      1813.559       1711.1638      61.118206     -81.83774      -10.101894      17.683868      17.679424      17.680031      5527.4952    
       104   0             -2181.1842      1886.5991      1878.9042      1940.6889      1840.2043      70.860332     -79.814918     -7.8478389      17.683868      17.679424      17.680031      5527.4952    
       105   0             -2181.1864      1778.8074      1774.2747      1827.9503      1734.1973      65.649439     -80.921254     -6.2264228      17.683868      17.679424      17.680031      5527.4952    
       106   0             -2181.1869      1765.5566      1760.8357      1815.3091      1720.525       61.951439     -82.934187     -9.6226061      17.683868      17.679424      17.680031      5527.4952    
       107   0             -2181.1871      1780.0209      1774.0078      1831.5851      1734.4696      61.204281     -83.207949     -10.793708      17.683868      17.679424      17.680031      5527.4952    
       108   0             -2181.1871      1785.6464      1779.1168      1836.7771      1741.0453      62.925465     -82.939095     -10.761365      17.683868      17.679424      17.680031      5527.4952    
       109   0             -2181.1872      1781.2269      1775.0094      1831.2504      1737.4208      63.281738     -81.783245     -10.248716      17.683868      17.679424      17.680031      5527.4952    
       110   0             -2181.1872      1777.0306      1771.3218      1826.5605      1733.2094      62.691202     -81.286679     -10.360144      17.683868      17.679424      17.680031      5527.4952    
       111   0             -2181.1872      1780.2522      1774.3471      1829.8997      1736.5097      62.420991     -81.584061     -9.8877266      17.683868      17.679424      17.680031      5527.4952    
       112   0             -2181.1872      1781.1186      1774.9354      1831.1441      1737.2763      62.49968      -81.50077      -9.8147864      17.683868      17.679424      17.680031      5527.4952    
       113   0             -2181.1872      1780.3288      1774.1658      1830.2989      1736.5219      62.723799     -81.411574     -9.94006        17.683868      17.679424      17.680031      5527.4952    
       114   0             -2181.1872      1779.8889      1773.8159      1829.7888      1736.0621      62.70015      -81.482613     -9.8512275      17.683868      17.679424      17.680031      5527.4952    
       115   0             -2181.1872      1780.3642      1774.3468      1830.2597      1736.486       62.760529     -81.578198     -9.7850694      17.683868      17.679424      17.680031      5527.4952    
       116   0             -2181.1872      1780.5833      1774.6001      1830.4884      1736.6615      62.714433     -81.551768     -9.8249327      17.683868      17.679424      17.680031      5527.4952    
       117   0             -2181.1872      1780.2716      1774.3137      1830.1201      1736.381       62.72683      -81.504614     -9.8468577      17.683868      17.679424      17.680031      5527.4952    
       118   0             -2181.1872      1780.1784      1774.2099      1830.0163      1736.3091      62.724967     -81.495035     -9.8956783      17.683868      17.679424      17.680031      5527.4952    
       119   0             -2181.1872      1780.2812      1774.2973      1830.1165      1736.4297      62.739176     -81.512272     -9.9315729      17.683868      17.679424      17.680031      5527.4952    
       120   0             -2181.1872      1780.3198      1774.3073      1830.1686      1736.4835      62.746678     -81.510075     -9.9363041      17.683868      17.679424      17.680031      5527.4952    
       121   0             -2181.1872      1780.2876      1774.2672      1830.1518      1736.4437      62.738854     -81.491825     -9.9303489      17.683868      17.679424      17.680031      5527.4952    
       122   0             -2181.1872      1780.2716      1774.2496      1830.1341      1736.4313      62.732972     -81.488094     -9.9336983      17.683868      17.679424      17.680031      5527.4952    
       123   0             -2181.1872      1780.2817      1774.2585      1830.14        1736.4465      62.73758      -81.505891     -9.9360664      17.683868      17.679424      17.680031      5527.4952    
       124   0             -2181.1872      1780.2743      1774.255       1830.1307      1736.4373      62.741065     -81.512954     -9.9355437      17.683868      17.679424      17.680031      5527.4952    
       125   0             -2181.1872      1780.2622      1774.2441      1830.1191      1736.4234      62.740643     -81.514976     -9.9360126      17.683868      17.679424      17.680031      5527.4952    
       126   0             -2181.1872      1780.2682      1774.2489      1830.1257      1736.4299      62.739038     -81.517484     -9.9357035      17.683868      17.679424      17.680031      5527.4952    
       127   0             -2181.1872      1780.2762      1774.2563      1830.1331      1736.439       62.739306     -81.518316     -9.9348406      17.683868      17.679424      17.680031      5527.4952    
       128   0             -2181.1872      1780.2767      1774.2576      1830.1323      1736.4403      62.739849     -81.517998     -9.9350829      17.683868      17.679424      17.680031      5527.4952    
       129   0             -2181.1872      1780.2742      1774.2557      1830.1293      1736.4377      62.73928      -81.51741      -9.9354475      17.683868      17.679424      17.680031      5527.4952    
       130   0             -2181.1872      1780.2735      1774.255       1830.1286      1736.4369      62.739392     -81.517457     -9.935901       17.683868      17.679424      17.680031      5527.4952    
       131   0             -2181.1872      1780.2739      1774.2551      1830.1292      1736.4375      62.739497     -81.51765      -9.9357236      17.683868      17.679424      17.680031      5527.4952    
       132   0             -2181.1872      1780.2745      1774.2555      1830.1297      1736.4383      62.739511     -81.517706     -9.9356401      17.683868      17.679424      17.680031      5527.4952    
       133   0             -2181.1872      1780.274       1774.255       1830.1291      1736.4379      62.739518     -81.51776      -9.9355658      17.683868      17.679424      17.680031      5527.4952    
       134   0             -2181.1872      1780.2738      1774.2547      1830.1289      1736.4379      62.739381     -81.517684     -9.9356018      17.683868      17.679424      17.680031      5527.4952    
       135   0             -2181.1872      1780.2739      1774.2546      1830.129       1736.4379      62.739299     -81.517608     -9.9356043      17.683868      17.679424      17.680031      5527.4952    
       136   0             -2181.1872      1780.2739      1774.2547      1830.1291      1736.438       62.739297     -81.517608     -9.9355667      17.683868      17.679424      17.680031      5527.4952    
       137   0             -2181.1872      1780.2739      1774.2547      1830.129       1736.438       62.7393       -81.517588     -9.9355943      17.683868      17.679424      17.680031      5527.4952    
       138   0             -2181.1872      1780.2739      1774.2547      1830.1291      1736.438       62.739311     -81.517591     -9.9355958      17.683868      17.679424      17.680031      5527.4952    
       139   0             -2181.1872      1780.274       1774.2547      1830.1291      1736.4381      62.739309     -81.51759      -9.9355925      17.683868      17.679424      17.680031      5527.4952    
       140   0             -2181.1872      1780.274       1774.2548      1830.1291      1736.4381      62.739306     -81.517584     -9.935597       17.683868      17.679424      17.680031      5527.4952    
       141   0             -2181.1872      1780.274       1774.2548      1830.1291      1736.4381      62.739304     -81.517582     -9.9355995      17.683868      17.679424      17.680031      5527.4952    
       142   0             -2181.1872      1780.274       1774.2548      1830.1291      1736.4381      62.739306     -81.517584     -9.9355997      17.683868      17.679424      17.680031      5527.4952    
       143   0             -2181.1872      1780.274       1774.2548      1830.1291      1736.4381      62.739305     -81.517583     -9.9355995      17.683868      17.679424      17.680031      5527.4952    
       144   0             -2181.1872      1780.274       1774.2548      1830.1291      1736.4381      62.739304     -81.51758      -9.9355986      17.683868      17.679424      17.680031      5527.4952    
       145   0             -2181.1872      1780.274       1774.2548      1830.1291      1736.4381      62.739304     -81.51758      -9.9355978      17.683868      17.679424      17.680031      5527.4952    
       146   0             -2181.1872      1780.274       1774.2548      1830.1291      1736.4381      62.739305     -81.51758      -9.9355976      17.683868      17.679424      17.680031      5527.4952    
       147   0             -2181.1872      1780.274       1774.2548      1830.1291      1736.4381      62.739305     -81.51758      -9.9355976      17.683868      17.679424      17.680031      5527.4952    
       148   0             -2181.1872      1780.274       1774.2548      1830.1291      1736.4381      62.739305     -81.517579     -9.9355981      17.683868      17.679424      17.680031      5527.4952    
       149   0             -2181.1872      1780.274       1774.2548      1830.1291      1736.4381      62.739305     -81.51758      -9.935598       17.683868      17.679424      17.680031      5527.4952    
       150   0             -2181.1872      1780.274       1774.2548      1830.1291      1736.4381      62.739305     -81.51758      -9.9355981      17.683868      17.679424      17.680031      5527.4952    
       151   0             -2181.1872      1780.274       1774.2548      1830.1291      1736.4381      62.739305     -81.51758      -9.9355981      17.683868      17.679424      17.680031      5527.4952    
       152   0             -2181.1872      1780.274       1774.2548      1830.1291      1736.4381      62.739305     -81.51758      -9.9355981      17.683868      17.679424      17.680031      5527.4952    
       153   0             -2181.1872      1780.274       1774.2548      1830.1291      1736.4381      62.739305     -81.51758      -9.9355981      17.683868      17.679424      17.680031      5527.4952    
       154   0             -2181.1872      1780.274       1774.2548      1830.1291      1736.4381      62.739305     -81.51758      -9.9355981      17.683868      17.679424      17.680031      5527.4952    
       155   0             -2181.1872      1780.274       1774.2548      1830.1291      1736.4381      62.739305     -81.51758      -9.9355981      17.683868      17.679424      17.680031      5527.4952    
       156   0             -2181.1872      1780.274       1774.2548      1830.1291      1736.4381      62.739305     -81.51758      -9.9355981      17.683868      17.679424      17.680031      5527.4952    
       157   0             -2181.1872      1780.274       1774.2548      1830.1291      1736.4381      62.739305     -81.51758      -9.9355981      17.683868      17.679424      17.680031      5527.4952    
       158   0             -2181.1872      1780.274       1774.2548      1830.1291      1736.4381      62.739305     -81.51758      -9.9355981      17.683868      17.679424      17.680031      5527.4952    
       159   0             -2181.1872      1780.274       1774.2548      1830.1291      1736.4381      62.739305     -81.51758      -9.9355981      17.683868      17.679424      17.680031      5527.4952    
       160   0             -2181.1872      1780.274       1774.2548      1830.1291      1736.4381      62.739305     -81.51758      -9.9355981      17.683868      17.679424      17.680031      5527.4952    
       161   0             -2181.1872      1780.274       1774.2548      1830.1291      1736.4381      62.739305     -81.51758      -9.9355981      17.683868      17.679424      17.680031      5527.4952    
Loop time of 0.142616 on 1 procs for 61 steps with 500 atoms

98.6% CPU use with 1 MPI tasks x 1 OpenMP threads

Minimization stats:
  Stopping criterion = force tolerance
  Energy initial, next-to-last, final = 
     -2180.90497212586   -2181.1872051268   -2181.1872051268
  Force two-norm initial, final = 2.2282928 6.5770557e-11
  Force max component initial, final = 0.21728826 1.0025369e-11
  Final line search alpha, max atom move = 1 1.0025369e-11
  Iterations, force evaluations = 61 120

MPI task timing breakdown:
Section |  min time  |  avg time  |  max time  |%varavg| %total
---------------------------------------------------------------
Pair    | 0.13983    | 0.13983    | 0.13983    |   0.0 | 98.05
Neigh   | 0          | 0          | 0          |   0.0 |  0.00
Comm    | 0.000757   | 0.000757   | 0.000757   |   0.0 |  0.53
Output  | 0.000962   | 0.000962   | 0.000962   |   0.0 |  0.67
Modify  | 0          | 0          | 0          |   0.0 |  0.00
Other   |            | 0.001066   |            |       |  0.75

Nlocal:            500 ave         500 max         500 min
Histogram: 1 0 0 0 0 0 0 0 0 0
Nghost:           1956 ave        1956 max        1956 min
Histogram: 1 0 0 0 0 0 0 0 0 0
Neighs:          33500 ave       33500 max       33500 min
Histogram: 1 0 0 0 0 0 0 0 0 0

Total # of neighbors = 33500
Ave neighs/atom = 67
Neighbor list builds = 0
Dangerous builds = 0
=========================================
Components of the Elastic Constant Tensor
=========================================
Elastic Constant C11all = 244.265243902497 GPa
Elastic Constant C22all = 243.603907063007 GPa
Elastic Constant C33all = 244.141909037993 GPa
Elastic Constant C12all = 152.349146858258 GPa
Elastic Constant C13all = 152.95494633125 GPa
Elastic Constant C23all = 153.155893584248 GPa
Elastic Constant C44all = 118.55954410216 GPa
Elastic Constant C55all = 118.353382603 GPa
Elastic Constant C66all = 118.25128759615 GPa
Elastic Constant C14all = -0.0165902847777488 GPa
Elastic Constant C15all = 0.287038423350168 GPa
Elastic Constant C16all = -0.264913673623141 GPa
Elastic Constant C24all = -0.167826532561321 GPa
Elastic Constant C25all = 0.313652720951268 GPa
Elastic Constant C26all = -0.295932416623146 GPa
Elastic Constant C34all = -0.0341945888189912 GPa
Elastic Constant C35all = 0.233279751651025 GPa
Elastic Constant C36all = -0.264138787120374 GPa
Elastic Constant C45all = -0.0606123155373552 GPa
Elastic Constant C46all = 0.0593077904327401 GPa
Elastic Constant C56all = 0.089031957050338 GPa
=========================================
Average properties for a cubic crystal
=========================================
Bulk Modulus = 183.214559283445 GPa
Shear Modulus 1 = 118.38807143377 GPa
Shear Modulus 2 = 45.59184553829 GPa
Poisson Ratio = 0.385108052829056
Total wall time: 0:00:02
