LAMMPS (2 Aug 2023 - Update 3)
OMP_NUM_THREADS environment is not set. Defaulting to 1 thread. (src/comm.cpp:98)
  using 1 OpenMP thread(s) per MPI task
Loaded 1 plugins from F:\Lammps\LAMMPS 64-bit 2Aug2023\plugins
Reading data file ...
  orthogonal box = (0 0 0) to (17.79 17.79 17.79)
  1 by 1 by 1 MPI processor grid
  reading atoms ...
  500 atoms
  read_data CPU = 0.001 seconds
Changing box ...
  triclinic box = (0 0 0) to (17.79 17.79 17.79) with tilt (0 0 0)
Neighbor list info ...
  update: every = 1 steps, delay = 0 steps, check = yes
  max neighbors/atom: 2000, page size: 100000
  master list distance cutoff = 6.80375
  ghost atom cutoff = 6.80375
  1 neighbor lists, perpetual/occasional/extra = 1 0 0
  (1) pair eam/alloy, perpetual
      attributes: half, newton on
      pair build: half/nsq/newton
      stencil: none
      bin: none
Setting up cg style minimization ...
  Unit style    : metal
  Current step  : 0
WARNING: Energy due to 3 extra global DOFs will be included in minimizer energies
 (src/min.cpp:228)
Per MPI rank memory allocation (min/avg/max) = 4.492 | 4.492 | 4.492 Mbytes
   Step          Temp          PotEng         Press           Pxx            Pyy            Pzz            Pxy            Pxz            Pyz             Lx             Ly             Lz           Volume    
         0   0             -2180.1029     -30078.895     -30001.128     -30078.17      -30157.387      91.254542     -65.69681      -125.834        17.79          17.79          17.79          5630.2521    
         1   0             -2180.1342     -29532.356     -29454.171     -29532.21      -29610.686      90.671748     -65.147108     -125.65631      17.78823       17.788226      17.788221      5628.5676    
         2   0             -2180.165      -28985.435     -28906.834     -28985.871     -29063.6        90.084957     -64.596183     -125.47171      17.786461      17.786451      17.786442      5626.8835    
         3   0             -2180.1952     -28438.126     -28359.111     -28439.145     -28516.122      89.494054     -64.043886     -125.27999      17.784691      17.784677      17.784663      5625.1998    
         4   0             -2180.2248     -27890.45      -27811.022     -27892.054     -27968.275      88.899172     -63.490428     -125.08166      17.782922      17.782903      17.782884      5623.5166    
         5   0             -2180.2538     -27342.484     -27262.649     -27344.671     -27420.134      88.301412     -62.936849     -124.88041      17.781153      17.781129      17.781105      5621.8337    
         6   0             -2180.2822     -26794.262     -26714.025     -26797.028     -26871.732      87.700942     -62.383522     -124.67763      17.779384      17.779355      17.779326      5620.1512    
         7   0             -2180.3101     -26245.784     -26165.155     -26249.128     -26323.07       87.097798     -61.830726     -124.47341      17.777616      17.777581      17.777547      5618.4692    
         8   0             -2180.3374     -25697.014     -25615.997     -25700.936     -25774.11       86.492062     -61.276876     -124.26532      17.775847      17.775807      17.775768      5616.7876    
         9   0             -2180.364      -25147.901     -25066.501     -25152.401     -25224.8        85.882175     -60.721504     -124.04993      17.774079      17.774033      17.773989      5615.1065    
        10   0             -2180.3901     -24598.427     -24516.649     -24603.506     -24675.126      85.268211     -60.166227     -123.8265       17.772311      17.772259      17.77221       5613.4257    
        11   0             -2180.4157     -24048.612     -23966.461     -24054.269     -24125.106      84.650204     -59.611225     -123.59603      17.770544      17.770485      17.770431      5611.7454    
        12   0             -2180.4406     -23498.484     -23415.968     -23504.717     -23574.768      84.028928     -59.057588     -123.36041      17.768777      17.768711      17.768652      5610.0656    
        13   0             -2180.4649     -22948.069     -22865.195     -22954.875     -23024.136      83.404377     -58.504275     -123.12077      17.76701       17.766938      17.766873      5608.3862    
        14   0             -2180.4887     -22397.383     -22314.162     -22404.759     -22473.228      82.776874     -57.948105     -122.87549      17.765243      17.765164      17.765094      5606.7072    
        15   0             -2180.5119     -21846.404     -21762.845     -21854.346     -21922.02       82.145538     -57.388283     -122.62341      17.763477      17.76339       17.763315      5605.0287    
        16   0             -2180.5345     -21295.099     -21211.212     -21303.604     -21370.483      81.510102     -56.824696     -122.36423      17.76171       17.761617      17.761536      5603.3507    
        17   0             -2180.5565     -20743.464     -20659.257     -20752.525     -20818.608      80.87038      -56.258751     -122.09925      17.759945      17.759843      17.759757      5601.6731    
        18   0             -2180.578      -20191.497     -20106.98      -20201.113     -20266.397      80.22569      -55.693064     -121.8311       17.758179      17.75807       17.757978      5599.996     
        19   0             -2180.5988     -19639.273     -19554.454     -19649.444     -19713.922      79.575954     -55.128361     -121.56061      17.756414      17.756297      17.756199      5598.3194    
        20   0             -2180.6191     -19086.806     -19001.695     -19097.528     -19161.194      78.921477     -54.565073     -121.28788      17.75465       17.754524      17.75442       5596.6432    
        21   0             -2180.6388     -18534.122     -18448.733     -18545.392     -18608.24       78.26458      -54.002181     -121.0113       17.752886      17.752751      17.752641      5594.9676    
        22   0             -2180.6579     -17981.158     -17895.506     -17992.971     -18054.995      77.606072     -53.437809     -120.72895      17.751122      17.750978      17.750862      5593.2925    
        23   0             -2180.6764     -17427.925     -17342.022     -17440.276     -17501.476      76.946206     -52.872508     -120.44048      17.749359      17.749205      17.749083      5591.6178    
        24   0             -2180.6943     -16874.426     -16788.286     -16887.309     -16947.682      76.284994     -52.306266     -120.14599      17.747596      17.747432      17.747304      5589.9437    
        25   0             -2180.7117     -16320.699     -16234.332     -16334.109     -16393.655      75.619163     -51.740498     -119.8477       17.745834      17.745659      17.745525      5588.2702    
        26   0             -2180.7284     -15766.776     -15680.204     -15780.709     -15839.415      74.948651     -51.17573      -119.54579      17.744072      17.743887      17.743746      5586.5972    
        27   0             -2180.7446     -15212.633     -15125.877     -15227.083     -15284.94       74.273069     -50.610379     -119.24076      17.742311      17.742114      17.741967      5584.9247    
        28   0             -2180.7602     -14658.268     -14571.353     -14673.228     -14730.224      73.592275     -50.043463     -118.9318       17.74055       17.740342      17.740188      5583.2529    
        29   0             -2180.7752     -14103.687     -14016.627     -14119.15      -14175.285      72.908535     -49.473803     -118.61808      17.738791      17.73857       17.738409      5581.5816    
        30   0             -2180.7897     -13548.91      -13461.723     -13564.869     -13620.139      72.222431     -48.90128      -118.29971      17.737032      17.736798      17.73663       5579.9109    
        31   0             -2180.8035     -12993.963     -12906.665     -13010.409     -13064.814      71.534571     -48.326991     -117.97688      17.735273      17.735026      17.734851      5578.2409    
        32   0             -2180.8168     -12438.841     -12351.459     -12455.768     -12509.295      70.845223     -47.751987     -117.65047      17.733516      17.733255      17.733072      5576.5715    
        33   0             -2180.8295     -11883.519     -11796.085     -11900.918     -11953.553      70.152097     -47.178317     -117.32171      17.731759      17.731483      17.731293      5574.9028    
        34   0             -2180.8416     -11328.009     -11240.558     -11345.871     -11397.599      69.454912     -46.606054     -116.99059      17.730004      17.729712      17.729514      5573.2349    
        35   0             -2180.8531     -10772.327     -10684.892     -10790.642     -10841.447      68.753578     -46.035333     -116.65727      17.728249      17.727941      17.727735      5571.5677    
        36   0             -2180.864      -10216.554     -10129.164     -10235.312     -10285.187      68.048358     -45.463687     -116.3205       17.726496      17.726171      17.725956      5569.9012    
        37   0             -2180.8744     -9660.7378     -9573.429      -9679.9228     -9728.8614      67.33989      -44.889474     -115.97912      17.724744      17.7244        17.724177      5568.2356    
        38   0             -2180.8842     -9104.8995     -9017.7137     -9124.4965     -9172.4884      66.628327     -44.312393     -115.63305      17.722994      17.72263       17.722398      5566.5709    
        39   0             -2180.8934     -8549.0158     -8462.013      -8569.0056     -8616.0287      65.913188     -43.732667     -115.28253      17.721245      17.720861      17.720619      5564.9071    
        40   0             -2180.902      -7993.0451     -7906.2849     -8013.4091     -8059.4412      65.195878     -43.153636     -114.9295       17.719498      17.719091      17.71884       5563.2444    
        41   0             -2180.91       -7436.9783     -7350.5247     -7457.6973     -7502.7128      64.475873     -42.575147     -114.57504      17.717752      17.717322      17.717061      5561.5827    
        42   0             -2180.9174     -6880.8759     -6794.7906     -6901.9287     -6945.9084      63.753089     -41.99696      -114.21894      17.71601       17.715554      17.715282      5559.9223    
        43   0             -2180.9243     -6324.8642     -6239.2196     -6346.2295     -6389.1435      63.026878     -41.418601     -113.86109      17.714269      17.713786      17.713503      5558.2632    
        44   0             -2180.9306     -5769.0157     -5683.902      -5790.6654     -5832.4798      62.297071     -40.838537     -113.49972      17.712532      17.712019      17.711724      5556.6056    
        45   0             -2180.9363     -5213.4416     -5128.9687     -5235.3434     -5276.0126      61.564957     -40.257532     -113.13389      17.710799      17.710253      17.709945      5554.9497    
        46   0             -2180.9414     -4658.1749     -4574.4875     -4680.2844     -4719.7529      60.831982     -39.675652     -112.76362      17.709069      17.708488      17.708166      5553.2957    
        47   0             -2180.946      -4103.3142     -4020.5713     -4125.5815     -4163.7897      60.098317     -39.092689     -112.38874      17.707345      17.706724      17.706387      5551.6441    
        48   0             -2180.95       -3549.0383     -3467.4378     -3571.4016     -3608.2754      59.363365     -38.508951     -112.01112      17.705627      17.704961      17.704608      5549.9953    
        49   0             -2180.9534     -2995.5705     -2915.3635     -3017.949      -3053.399       58.626912     -37.92354      -111.63142      17.703918      17.7032        17.702829      5548.35      
        50   0             -2180.9563     -2443.2743     -2364.8052     -2465.56       -2499.4578      57.889911     -37.336817     -111.25061      17.702219      17.701442      17.70105       5546.7092    
        51   0             -2180.9586     -1892.7161     -1816.4658     -1914.7571     -1946.9254      57.153858     -36.748338     -110.86818      17.700536      17.699687      17.699271      5545.0747    
        52   0             -2180.9603     -1344.9118     -1271.6095     -1366.4786     -1396.6471      56.421512     -36.156712     -110.48289      17.698877      17.697938      17.697492      5543.4495    
        53   0             -2180.9615     -801.99776     -732.88452     -822.69795     -850.4108       55.696828     -35.559693     -110.09509      17.697257      17.696197      17.695713      5541.8399    
        54   0             -2180.9623     -269.92571     -207.68582     -288.91602     -313.17528      54.992728     -34.949707     -109.7056       17.695724      17.694476      17.693934      5540.2639    
        55   0             -2180.963       217.42377      261.80434      203.595        186.87196      54.385665     -34.28079      -109.32044      17.694545      17.692835      17.692155      5538.8238    
        56   0             -2180.9645     -127.53338     -119.17611     -129.88163     -133.54239      55.01051      -34.230633     -109.46933      17.696324      17.693724      17.692785      5539.8562    
        57   0             -2180.9665      373.11332      366.0458       375.18011      378.11404      54.552529     -33.154613     -108.9717       17.695064      17.692068      17.691006      5538.3865    
        58   0             -2180.968      -164.58186     -176.20817     -160.65991     -156.87751      55.457057     -33.303126     -109.25022      17.696843      17.693754      17.692662      5539.9897    
        59   0             -2180.9711      358.19217      354.98767      359.08684      360.50201      55.120003     -31.875204     -108.64551      17.695064      17.692181      17.691135      5538.4624    
        60   0             -2180.9727     -188.12018     -188.73857     -187.59906     -188.0229       56.058568     -31.983713     -108.91491      17.696734      17.693938      17.692914      5540.0922    
        61   0             -2180.9761      361.07028      364.65032      359.84119      358.71932      55.717105     -30.446738     -108.26991      17.694955      17.69226       17.69125       5538.4888    
        62   0             -2180.9779     -198.12339     -195.35972     -198.66339     -200.34706      56.694399     -30.508158     -108.5326       17.696732      17.694039      17.693026      5540.1581    
        63   0             -2180.9814      361.55948      362.28451      361.21249      361.18146      56.350727     -28.922472     -107.87008      17.69504       17.692292      17.691247      5538.5246    
        64   0             -2180.9833     -191.34955     -192.5448      -190.66683     -190.83702      57.32978      -28.945212     -108.11913      17.696819      17.694045      17.692989      5540.176     
        65   0             -2180.9869      379.39417      378.72432      379.47281      379.98538      56.98807      -27.308785     -107.43588      17.695045      17.69228       17.69121       5538.5108    
        66   0             -2180.9889     -178.95021     -180.19664     -178.25823     -178.39577      57.981483     -27.315598     -107.68169      17.696816      17.694059      17.692988      5540.1786    
        67   0             -2180.9925      385.2478       385.8981       384.91197      384.93331      57.67151      -25.630403     -106.98591      17.695037      17.692324      17.691249      5538.5343    
        68   0             -2180.9945     -173.16864     -173.04895     -172.91113     -173.54585      58.658168     -25.647235     -107.23323      17.696806      17.694103      17.693027      5540.2019    
        69   0             -2180.9983      398.76343      399.44485      398.40485      398.44059      58.36419      -23.885735     -106.51158      17.69503       17.692339      17.691248      5538.5365    
        70   0             -2181.0003     -159.92359     -160.20962     -159.55566     -160.00549      59.347881     -23.903331     -106.75819      17.696809      17.694116      17.693021      5540.2047    
        71   0             -2181.0043      412.64549      412.90534      412.40873      412.62239      59.084785     -22.061152     -106.01175      17.695033      17.692352      17.691242      5538.5395    
        72   0             -2181.0062     -146.61733     -147.18098     -146.17494     -146.49605      60.061271     -22.091358     -106.26081      17.696811      17.694131      17.693017      5540.209     
        73   0             -2181.0105      424.29558      424.80059      423.975        424.11116      59.838036     -20.155918     -105.4865       17.695032      17.692379      17.691253      5538.5511    
        74   0             -2181.0124     -135.05689     -135.28135     -134.73217     -135.15716      60.804122     -20.204238     -105.73929      17.696808      17.694158      17.69303       5540.2202    
        75   0             -2181.017       438.78131      439.27311      438.45394      438.61687      60.621308     -18.151368     -104.92803      17.695029      17.692398      17.691254      5538.5566    
        76   0             -2181.0187     -120.9438      -121.25409     -120.60725     -120.97006      61.578835     -18.214543     -105.18384      17.696807      17.694177      17.693031      5540.2263    
        77   0             -2181.0237      453.50272      453.96501      453.17486      453.3683       61.449977     -16.018861     -104.3285       17.695028      17.69242       17.691258      5538.5644    
        78   0             -2181.0254     -106.43685     -106.73786     -106.11654     -106.45614      62.396896     -16.101251     -104.58849      17.696805      17.694199      17.693034      5540.2341    
        79   0             -2181.0308      468.86514      469.39784      468.50386      468.6937       62.33695      -13.721451     -103.67627      17.695026      17.692447      17.691264      5538.5742    
        80   0             -2181.0324     -91.361281     -91.580262     -91.081656     -91.421924      63.27252      -13.824802     -103.94095      17.696804      17.694226      17.693041      5540.244     
        81   0             -2181.0385      486.5029       486.97489      486.14809      486.38573      63.304419     -11.191123     -102.94979      17.695025      17.692472      17.691267      5538.5828    
        82   0             -2181.0401     -74.033313     -74.30639      -73.752585     -74.040963      64.228321     -11.315906     -103.21919      17.696803      17.694251      17.693044      5540.2528    
        83   0             -2181.0472      505.01671      505.66286      504.59323      504.79404      64.403225     -8.2973035     -102.1096       17.695024      17.692508      17.691279      5538.5974    
        84   0             -2181.0486     -55.874611     -55.962922     -55.669316     -55.991594      65.313697     -8.4479438     -102.3847       17.696803      17.694287      17.693056      5540.2676    
        85   0             -2181.0575      529.9061       530.06891      529.61697      530.03241      65.732571     -4.7457576     -101.06319      17.69503       17.69254       17.691277      5538.6088    
        86   0             -2181.0589     -31.287163     -31.812753     -30.965651     -31.083084      66.629327     -4.921575      -101.34372      17.696808      17.694319      17.693055      5540.2789    
        87   0             -2181.0727      546.39007      549.76842      545.07342      544.32837      67.742499      0.6036491     -99.46655       17.695029      17.692679      17.691393      5538.688     
        88   0             -2181.0739     -13.305981     -10.966107     -13.909463     -15.042373      68.615133      0.38847642    -99.755654      17.696808      17.694449      17.69316       5540.3524    
        89   0             -2181.0963      444.35487      406.5187       456.11661      470.4293       71.091332      9.1880676     -96.896444      17.69632       17.693029      17.691381      5539.1979    
        90   0             -2181.0972     -89.827799     -121.40767     -79.684695     -68.39103       71.901731      8.9380459     -97.180244      17.697878      17.69476       17.69316       5540.7847    
        91   0             -2181.0999      120.11211      148.33265      111.26877      100.73493      72.050453      10.250195     -96.672897      17.696099      17.694493      17.693303      5540.1891    
        92   0             -2181.1009     -357.98943     -344.06434     -362.03201     -367.87194      72.821056      10.182707     -96.878582      17.697878      17.695928      17.694639      5541.6136    
        93   0             -2181.1024      134.13732      130.24571      135.36864      136.79761      72.354883      11.196935     -96.372536      17.696689      17.694285      17.69286       5540.17      
        94   0             -2181.1045     -371.11457     -384.37048     -366.58944     -362.38379      73.323998      11.554431     -96.450869      17.698468      17.695849      17.694356      5541.6853    
        95   0             -2181.1062      197.82773      185.07756      201.8341       206.57152      72.803799      12.753563     -95.851471      17.696691      17.694078      17.692577      5540.0169    
        96   0             -2181.1094     -303.95428     -304.39235     -303.48705     -303.98345      73.92727       13.541517     -95.784143      17.698053      17.695774      17.694356      5541.5316    
        97   0             -2181.1112      230.49904      236.37842      228.62774      226.49097      73.487512      14.797429     -95.17679       17.696274      17.69415       17.692765      5539.9675    
        98   0             -2181.115      -309.85377     -301.40876     -312.21209     -315.94046      74.753308      15.83086      -95.044067      17.697949      17.695918      17.694544      5541.6029    
        99   0             -2181.1175      252.41841      259.17812      250.21829      247.85882      74.358178      17.350012     -94.340451      17.696241      17.694166      17.692765      5539.9623    
       100   0             -2181.1217     -246.99267     -249.60101     -245.93219     -245.44481      75.621503      18.6016       -94.120268      17.69802       17.695738      17.694262      5541.4806    
Loop time of 0.116511 on 1 procs for 100 steps with 500 atoms

107.3% CPU use with 1 MPI tasks x 1 OpenMP threads

Minimization stats:
  Stopping criterion = max iterations
  Energy initial, next-to-last, final = 
     -2180.10289114959  -2181.11747626464  -2181.12169336239
  Force two-norm initial, final = 183.1045 2.3405886
  Force max component initial, final = 105.9769 0.86778685
  Final line search alpha, max atom move = 0.00026076785 0.00022629091
  Iterations, force evaluations = 100 100

MPI task timing breakdown:
Section |  min time  |  avg time  |  max time  |%varavg| %total
---------------------------------------------------------------
Pair    | 0.10866    | 0.10866    | 0.10866    |   0.0 | 93.26
Neigh   | 0          | 0          | 0          |   0.0 |  0.00
Comm    | 0.000606   | 0.000606   | 0.000606   |   0.0 |  0.52
Output  | 0.001384   | 0.001384   | 0.001384   |   0.0 |  1.19
Modify  | 0          | 0          | 0          |   0.0 |  0.00
Other   |            | 0.005859   |            |       |  5.03

Nlocal:            500 ave         500 max         500 min
Histogram: 1 0 0 0 0 0 0 0 0 0
Nghost:           1956 ave        1956 max        1956 min
Histogram: 1 0 0 0 0 0 0 0 0 0
Neighs:          33500 ave       33500 max       33500 min
Histogram: 1 0 0 0 0 0 0 0 0 0

Total # of neighbors = 33500
Ave neighs/atom = 67
Neighbor list builds = 0
Dangerous builds = 0
Displacing atoms ...
System init for write_restart ...
OMP_NUM_THREADS environment is not set. Defaulting to 1 thread. (src/comm.cpp:98)
  using 1 OpenMP thread(s) per MPI task
Loaded 1 plugins from F:\Lammps\LAMMPS 64-bit 2Aug2023\plugins

The 'box' command has been removed and will be ignored

Reading restart file ...
  restart file = 2 Aug 2023, LAMMPS = 2 Aug 2023
  restoring atom style atomic from restart
  triclinic box = (0.045990148 0.047130842 0.047869029) to (17.74401 17.742869 17.742131) with tilt (0 0 0)
  1 by 1 by 1 MPI processor grid
  pair style eam/alloy stores no restart info
  500 atoms
  read_restart CPU = 0.000 seconds
Changing box ...
  triclinic box = (0.045990148 0.047130842 0.047869029) to (17.743992 17.742869 17.742131) with tilt (0 0 0)
  triclinic box = (0.045990148 0.047130842 0.047869029) to (17.743992 17.742869 17.742131) with tilt (0 0 0)
  triclinic box = (0.045990148 0.047130842 0.047869029) to (17.743992 17.742869 17.742131) with tilt (0 0 0)
Neighbor list info ...
  update: every = 1 steps, delay = 0 steps, check = yes
  max neighbors/atom: 2000, page size: 100000
  master list distance cutoff = 6.80375
  ghost atom cutoff = 6.80375
  1 neighbor lists, perpetual/occasional/extra = 1 0 0
  (1) pair eam/alloy, perpetual
      attributes: half, newton on
      pair build: half/nsq/newton
      stencil: none
      bin: none
Setting up cg style minimization ...
  Unit style    : metal
  Current step  : 100
Per MPI rank memory allocation (min/avg/max) = 4.483 | 4.483 | 4.483 Mbytes
   Step          Temp          PotEng         Press           Pxx            Pyy            Pzz            Pxy            Pxz            Pyz             Lx             Ly             Lz           Volume    
       100   0             -2181.1217     -245.07894     -247.06079     -244.37269     -243.80334      75.533126      18.64649      -94.080963      17.698002      17.695738      17.694262      5541.475     
       101   0             -2181.2597      499.70919      482.24448      525.48208      491.40101      106.50056      114.85258     -60.796513      17.698002      17.695738      17.694262      5541.475     
       102   0             -2181.2994      650.28674      623.17094      685.23451      642.45476      109.59228      162.75499     -16.101453      17.698002      17.695738      17.694262      5541.475     
       103   0             -2181.3066      707.2842       671.73226      742.96675      707.15359      114.91134      161.46955     -15.316807      17.698002      17.695738      17.694262      5541.475     
       104   0             -2181.3098      600.77756      566.96044      629.96936      605.40287      109.97483      152.35223     -9.378386       17.698002      17.695738      17.694262      5541.475     
       105   0             -2181.3108      622.3179       592.66645      651.07724      623.21002      111.20032      155.84426     -5.8171782      17.698002      17.695738      17.694262      5541.475     
       106   0             -2181.3111      641.2039       615.00405      668.30279      640.30486      110.58543      157.86803     -5.367629       17.698002      17.695738      17.694262      5541.475     
       107   0             -2181.3112      634.11344      608.43464      660.59165      633.31405      110.27413      156.22311     -6.4687944      17.698002      17.695738      17.694262      5541.475     
       108   0             -2181.3112      633.3132       607.53048      659.62454      632.78457      110.09755      155.94707     -6.557085       17.698002      17.695738      17.694262      5541.475     
       109   0             -2181.3113      636.40688      610.36539      663.20877      635.64649      110.73346      156.32425     -6.5573007      17.698002      17.695738      17.694262      5541.475     
       110   0             -2181.3113      633.72524      608.07157      660.56233      632.5418       110.65979      156.40101     -6.3817921      17.698002      17.695738      17.694262      5541.475     
       111   0             -2181.3113      632.87448      607.79706      659.68807      631.13831      110.84606      155.88955     -6.3044037      17.698002      17.695738      17.694262      5541.475     
       112   0             -2181.3113      634.47709      609.85325      661.06013      632.51788      111.02602      156.1692      -6.1181901      17.698002      17.695738      17.694262      5541.475     
       113   0             -2181.3113      634.22437      609.70162      660.79599      632.1755       110.79881      156.40955     -6.337372       17.698002      17.695738      17.694262      5541.475     
       114   0             -2181.3113      633.71         609.24047      660.29197      631.59755      110.73365      156.41907     -6.359775       17.698002      17.695738      17.694262      5541.475     
       115   0             -2181.3113      633.85719      609.4295       660.43276      631.70931      110.79959      156.34702     -6.3142314      17.698002      17.695738      17.694262      5541.475     
       116   0             -2181.3113      633.96289      609.56928      660.51997      631.79941      110.78773      156.31272     -6.3465187      17.698002      17.695738      17.694262      5541.475     
       117   0             -2181.3113      633.88078      609.49177      660.44856      631.70201      110.78487      156.31595     -6.3497433      17.698002      17.695738      17.694262      5541.475     
       118   0             -2181.3113      633.90119      609.51073      660.47742      631.71542      110.79986      156.30572     -6.3496495      17.698002      17.695738      17.694262      5541.475     
       119   0             -2181.3113      633.95756      609.57433      660.52897      631.76937      110.80223      156.30167     -6.3560623      17.698002      17.695738      17.694262      5541.475     
       120   0             -2181.3113      633.94955      609.56229      660.52218      631.76419      110.79503      156.30291     -6.363548       17.698002      17.695738      17.694262      5541.475     
       121   0             -2181.3113      633.95697      609.57321      660.52421      631.77348      110.7936       156.30903     -6.3656129      17.698002      17.695738      17.694262      5541.475     
       122   0             -2181.3113      633.95956      609.58183      660.52613      631.77073      110.79508      156.31571     -6.365975       17.698002      17.695738      17.694262      5541.475     
       123   0             -2181.3113      633.94648      609.57682      660.50944      631.75318      110.79376      156.31356     -6.3656991      17.698002      17.695738      17.694262      5541.475     
       124   0             -2181.3113      633.94109      609.57318      660.50288      631.7472       110.79292      156.31228     -6.3670353      17.698002      17.695738      17.694262      5541.475     
       125   0             -2181.3113      633.94416      609.57598      660.50586      631.75064      110.79315      156.31309     -6.3675215      17.698002      17.695738      17.694262      5541.475     
       126   0             -2181.3113      633.94275      609.57506      660.50385      631.74936      110.79294      156.31291     -6.3688829      17.698002      17.695738      17.694262      5541.475     
       127   0             -2181.3113      633.94213      609.57529      660.50295      631.74816      110.79304      156.31237     -6.3684698      17.698002      17.695738      17.694262      5541.475     
       128   0             -2181.3113      633.94246      609.57598      660.50334      631.74808      110.79327      156.31249     -6.3683364      17.698002      17.695738      17.694262      5541.475     
       129   0             -2181.3113      633.94267      609.57616      660.50338      631.74847      110.79313      156.3125      -6.3682066      17.698002      17.695738      17.694262      5541.475     
       130   0             -2181.3113      633.94256      609.57617      660.50296      631.74855      110.79308      156.31235     -6.3682257      17.698002      17.695738      17.694262      5541.475     
       131   0             -2181.3113      633.94268      609.57638      660.50296      631.7487       110.79304      156.31238     -6.3680584      17.698002      17.695738      17.694262      5541.475     
       132   0             -2181.3113      633.94274      609.5765       660.50293      631.7488       110.79308      156.31234     -6.3680387      17.698002      17.695738      17.694262      5541.475     
       133   0             -2181.3113      633.94265      609.57648      660.50275      631.74872      110.79311      156.31238     -6.3681252      17.698002      17.695738      17.694262      5541.475     
       134   0             -2181.3113      633.94256      609.57642      660.50258      631.74867      110.79311      156.31236     -6.3681787      17.698002      17.695738      17.694262      5541.475     
       135   0             -2181.3113      633.94261      609.57649      660.5026       631.74873      110.79308      156.31241     -6.3681467      17.698002      17.695738      17.694262      5541.475     
       136   0             -2181.3113      633.94262      609.57652      660.5026       631.74874      110.79307      156.31241     -6.368147       17.698002      17.695738      17.694262      5541.475     
       137   0             -2181.3113      633.94262      609.57652      660.50261      631.74872      110.79308      156.3124      -6.3681407      17.698002      17.695738      17.694262      5541.475     
       138   0             -2181.3113      633.94261      609.57652      660.50261      631.7487       110.79309      156.3124      -6.3681352      17.698002      17.695738      17.694262      5541.475     
       139   0             -2181.3113      633.94261      609.57651      660.50261      631.7487       110.79309      156.3124      -6.3681362      17.698002      17.695738      17.694262      5541.475     
       140   0             -2181.3113      633.94261      609.57652      660.50261      631.7487       110.79309      156.3124      -6.3681349      17.698002      17.695738      17.694262      5541.475     
       141   0             -2181.3113      633.94261      609.57652      660.50261      631.74871      110.79309      156.3124      -6.3681347      17.698002      17.695738      17.694262      5541.475     
       142   0             -2181.3113      633.94261      609.57652      660.50261      631.74871      110.79309      156.3124      -6.3681343      17.698002      17.695738      17.694262      5541.475     
       143   0             -2181.3113      633.94261      609.57652      660.50261      631.74871      110.79309      156.3124      -6.3681334      17.698002      17.695738      17.694262      5541.475     
       144   0             -2181.3113      633.94261      609.57652      660.50261      631.74871      110.79309      156.3124      -6.3681331      17.698002      17.695738      17.694262      5541.475     
       145   0             -2181.3113      633.94261      609.57652      660.50261      631.74871      110.79309      156.3124      -6.3681331      17.698002      17.695738      17.694262      5541.475     
       146   0             -2181.3113      633.94261      609.57652      660.50261      631.74871      110.79309      156.3124      -6.3681328      17.698002      17.695738      17.694262      5541.475     
       147   0             -2181.3113      633.94261      609.57652      660.50261      631.74871      110.79309      156.3124      -6.3681328      17.698002      17.695738      17.694262      5541.475     
       148   0             -2181.3113      633.94261      609.57652      660.50261      631.74871      110.79309      156.3124      -6.3681329      17.698002      17.695738      17.694262      5541.475     
       149   0             -2181.3113      633.94261      609.57652      660.50261      631.74871      110.79309      156.3124      -6.3681327      17.698002      17.695738      17.694262      5541.475     
       150   0             -2181.3113      633.94261      609.57652      660.50261      631.74871      110.79309      156.3124      -6.3681328      17.698002      17.695738      17.694262      5541.475     
       151   0             -2181.3113      633.94261      609.57652      660.50261      631.74871      110.79309      156.3124      -6.3681328      17.698002      17.695738      17.694262      5541.475     
       152   0             -2181.3113      633.94261      609.57652      660.50261      631.74871      110.79309      156.3124      -6.3681329      17.698002      17.695738      17.694262      5541.475     
       153   0             -2181.3113      633.94261      609.57652      660.50261      631.74871      110.79309      156.3124      -6.3681329      17.698002      17.695738      17.694262      5541.475     
       154   0             -2181.3113      633.94261      609.57652      660.50261      631.74871      110.79309      156.3124      -6.3681329      17.698002      17.695738      17.694262      5541.475     
       155   0             -2181.3113      633.94261      609.57652      660.50261      631.74871      110.79309      156.3124      -6.3681329      17.698002      17.695738      17.694262      5541.475     
       156   0             -2181.3113      633.94261      609.57652      660.50261      631.74871      110.79309      156.3124      -6.3681329      17.698002      17.695738      17.694262      5541.475     
       157   0             -2181.3113      633.94261      609.57652      660.50261      631.74871      110.79309      156.3124      -6.3681329      17.698002      17.695738      17.694262      5541.475     
       158   0             -2181.3113      633.94261      609.57652      660.50261      631.74871      110.79309      156.3124      -6.3681329      17.698002      17.695738      17.694262      5541.475     
       159   0             -2181.3113      633.94261      609.57652      660.50261      631.74871      110.79309      156.3124      -6.3681329      17.698002      17.695738      17.694262      5541.475     
Loop time of 0.138971 on 1 procs for 59 steps with 500 atoms

89.9% CPU use with 1 MPI tasks x 1 OpenMP threads

Minimization stats:
  Stopping criterion = force tolerance
  Energy initial, next-to-last, final = 
     -2181.12169249655  -2181.31128354439   -2181.3112835444
  Force two-norm initial, final = 1.8070858 6.3374212e-11
  Force max component initial, final = 0.15130738 5.5847688e-12
  Final line search alpha, max atom move = 1 5.5847688e-12
  Iterations, force evaluations = 59 117

MPI task timing breakdown:
Section |  min time  |  avg time  |  max time  |%varavg| %total
---------------------------------------------------------------
Pair    | 0.13641    | 0.13641    | 0.13641    |   0.0 | 98.15
Neigh   | 0          | 0          | 0          |   0.0 |  0.00
Comm    | 0.000706   | 0.000706   | 0.000706   |   0.0 |  0.51
Output  | 0.000902   | 0.000902   | 0.000902   |   0.0 |  0.65
Modify  | 0          | 0          | 0          |   0.0 |  0.00
Other   |            | 0.000957   |            |       |  0.69

Nlocal:            500 ave         500 max         500 min
Histogram: 1 0 0 0 0 0 0 0 0 0
Nghost:           1956 ave        1956 max        1956 min
Histogram: 1 0 0 0 0 0 0 0 0 0
Neighs:          33500 ave       33500 max       33500 min
Histogram: 1 0 0 0 0 0 0 0 0 0

Total # of neighbors = 33500
Ave neighs/atom = 67
Neighbor list builds = 0
Dangerous builds = 0
OMP_NUM_THREADS environment is not set. Defaulting to 1 thread. (src/comm.cpp:98)
  using 1 OpenMP thread(s) per MPI task
Loaded 1 plugins from F:\Lammps\LAMMPS 64-bit 2Aug2023\plugins

The 'box' command has been removed and will be ignored

Reading restart file ...
  restart file = 2 Aug 2023, LAMMPS = 2 Aug 2023
  restoring atom style atomic from restart
  triclinic box = (0.045990148 0.047130842 0.047869029) to (17.74401 17.742869 17.742131) with tilt (0 0 0)
  1 by 1 by 1 MPI processor grid
  pair style eam/alloy stores no restart info
  500 atoms
  read_restart CPU = 0.000 seconds
Changing box ...
  triclinic box = (0.045990148 0.047130842 0.047869029) to (17.744028 17.742869 17.742131) with tilt (0 0 0)
  triclinic box = (0.045990148 0.047130842 0.047869029) to (17.744028 17.742869 17.742131) with tilt (0 0 0)
  triclinic box = (0.045990148 0.047130842 0.047869029) to (17.744028 17.742869 17.742131) with tilt (0 0 0)
Neighbor list info ...
  update: every = 1 steps, delay = 0 steps, check = yes
  max neighbors/atom: 2000, page size: 100000
  master list distance cutoff = 6.80375
  ghost atom cutoff = 6.80375
  1 neighbor lists, perpetual/occasional/extra = 1 0 0
  (1) pair eam/alloy, perpetual
      attributes: half, newton on
      pair build: half/nsq/newton
      stencil: none
      bin: none
Setting up cg style minimization ...
  Unit style    : metal
  Current step  : 100
Per MPI rank memory allocation (min/avg/max) = 4.483 | 4.483 | 4.483 Mbytes
   Step          Temp          PotEng         Press           Pxx            Pyy            Pzz            Pxy            Pxz            Pyz             Lx             Ly             Lz           Volume    
       100   0             -2181.1217     -248.82778     -252.04629     -247.50283     -246.93422      75.537143      18.641827     -94.084166      17.698037      17.695738      17.694262      5541.4861    
       101   0             -2181.2597      495.96053      477.27509      522.34279      488.26372      106.50163      114.8428      -60.802093      17.698037      17.695738      17.694262      5541.4861    
       102   0             -2181.2994      646.65878      618.32933      682.21378      639.43322      109.5977       162.75809     -16.102342      17.698037      17.695738      17.694262      5541.4861    
       103   0             -2181.3066      703.59373      666.82849      739.88112      704.07158      114.91313      161.46456     -15.31979       17.698037      17.695738      17.694262      5541.4861    
       104   0             -2181.3098      597.07481      562.04432      626.87191      602.30821      109.97632      152.34806     -9.3815173      17.698037      17.695738      17.694262      5541.4861    
       105   0             -2181.3108      618.6377       587.77334      648.00222      620.13753      111.20344      155.84343     -5.8185783      17.698037      17.695738      17.694262      5541.4861    
       106   0             -2181.3111      637.51471      610.1016       665.21867      637.22386      110.58792      157.86546     -5.3700656      17.698037      17.695738      17.694262      5541.4861    
       107   0             -2181.3112      630.42034      603.52857      657.50347      630.22896      110.27637      156.22026     -6.4713138      17.698037      17.695738      17.694262      5541.4861    
       108   0             -2181.3112      629.62419      602.62858      656.54047      629.70353      110.10019      155.94477     -6.5593582      17.698037      17.695738      17.694262      5541.4861    
       109   0             -2181.3113      632.71758      605.46328      660.12425      632.56523      110.73603      156.32187     -6.5597342      17.698037      17.695738      17.694262      5541.4861    
       110   0             -2181.3113      630.03366      603.16726      657.47548      629.45824      110.66216      156.3984      -6.384337       17.698037      17.695738      17.694262      5541.4861    
       111   0             -2181.3113      629.18449      602.89447      656.60274      628.05627      110.84858      155.88715     -6.3068043      17.698037      17.695738      17.694262      5541.4861    
       112   0             -2181.3113      630.78719      604.9508       657.97483      629.43594      111.02856      156.16685     -6.1206347      17.698037      17.695738      17.694262      5541.4861    
       113   0             -2181.3113      630.5336       604.79831      657.70977      629.09273      110.80125      156.40713     -6.33991        17.698037      17.695738      17.694262      5541.4861    
       114   0             -2181.3113      630.01968      604.3376       657.20623      628.5152       110.73615      156.41668     -6.3622415      17.698037      17.695738      17.694262      5541.4861    
       115   0             -2181.3113      630.16702      604.52675      657.34718      628.62713      110.80209      156.34467     -6.3166965      17.698037      17.695738      17.694262      5541.4861    
       116   0             -2181.3113      630.27248      604.66628      657.43415      628.717        110.79021      156.31033     -6.3490153      17.698037      17.695738      17.694262      5541.4861    
       117   0             -2181.3113      630.19041      604.58882      657.36277      628.61963      110.78737      156.31356     -6.3522221      17.698037      17.695738      17.694262      5541.4861    
       118   0             -2181.3113      630.2109       604.60786      657.39173      628.63313      110.80236      156.30335     -6.3521232      17.698037      17.695738      17.694262      5541.4861    
       119   0             -2181.3113      630.26721      604.6714       657.44321      628.68702      110.80473      156.29929     -6.3585477      17.698037      17.695738      17.694262      5541.4861    
       120   0             -2181.3113      630.2592       604.65935      657.43641      628.68183      110.79753      156.30052     -6.3660302      17.698037      17.695738      17.694262      5541.4861    
       121   0             -2181.3113      630.26665      604.6703       657.43848      628.69116      110.7961       156.30665     -6.3680916      17.698037      17.695738      17.694262      5541.4861    
       122   0             -2181.3113      630.26923      604.67891      657.44039      628.68839      110.79757      156.31333     -6.368457       17.698037      17.695738      17.694262      5541.4861    
       123   0             -2181.3113      630.25614      604.67389      657.42368      628.67084      110.79625      156.31118     -6.3681806      17.698037      17.695738      17.694262      5541.4861    
       124   0             -2181.3113      630.25075      604.67026      657.41714      628.66486      110.79542      156.3099      -6.3695156      17.698037      17.695738      17.694262      5541.4861    
       125   0             -2181.3113      630.25382      604.67305      657.42011      628.6683       110.79565      156.31071     -6.3700023      17.698037      17.695738      17.694262      5541.4861    
       126   0             -2181.3113      630.25241      604.67213      657.4181       628.66701      110.79543      156.31052     -6.3713641      17.698037      17.695738      17.694262      5541.4861    
       127   0             -2181.3113      630.2518       604.67237      657.4172       628.66582      110.79554      156.30998     -6.3709506      17.698037      17.695738      17.694262      5541.4861    
       128   0             -2181.3113      630.25213      604.67305      657.41759      628.66574      110.79577      156.31011     -6.3708173      17.698037      17.695738      17.694262      5541.4861    
       129   0             -2181.3113      630.25233      604.67323      657.41763      628.66613      110.79562      156.31012     -6.3706876      17.698037      17.695738      17.694262      5541.4861    
       130   0             -2181.3113      630.25222      604.67325      657.41722      628.66621      110.79558      156.30997     -6.3707066      17.698037      17.695738      17.694262      5541.4861    
       131   0             -2181.3113      630.25234      604.67345      657.41721      628.66636      110.79554      156.30999     -6.3705393      17.698037      17.695738      17.694262      5541.4861    
       132   0             -2181.3113      630.2524       604.67357      657.41718      628.66646      110.79557      156.30995     -6.3705197      17.698037      17.695738      17.694262      5541.4861    
       133   0             -2181.3113      630.25231      604.67355      657.417        628.66638      110.79561      156.30999     -6.3706061      17.698037      17.695738      17.694262      5541.4861    
       134   0             -2181.3113      630.25222      604.67349      657.41683      628.66633      110.79561      156.30998     -6.3706595      17.698037      17.695738      17.694262      5541.4861    
       135   0             -2181.3113      630.25227      604.67356      657.41685      628.66639      110.79557      156.31002     -6.3706276      17.698037      17.695738      17.694262      5541.4861    
       136   0             -2181.3113      630.25228      604.67359      657.41685      628.66641      110.79557      156.31003     -6.3706279      17.698037      17.695738      17.694262      5541.4861    
       137   0             -2181.3113      630.25228      604.6736       657.41686      628.66638      110.79558      156.31002     -6.3706215      17.698037      17.695738      17.694262      5541.4861    
       138   0             -2181.3113      630.25227      604.67359      657.41686      628.66636      110.79558      156.31002     -6.3706161      17.698037      17.695738      17.694262      5541.4861    
       139   0             -2181.3113      630.25227      604.67359      657.41686      628.66636      110.79559      156.31002     -6.3706171      17.698037      17.695738      17.694262      5541.4861    
       140   0             -2181.3113      630.25227      604.67359      657.41686      628.66637      110.79558      156.31001     -6.3706158      17.698037      17.695738      17.694262      5541.4861    
       141   0             -2181.3113      630.25228      604.67359      657.41686      628.66637      110.79558      156.31002     -6.3706156      17.698037      17.695738      17.694262      5541.4861    
       142   0             -2181.3113      630.25228      604.6736       657.41686      628.66637      110.79558      156.31002     -6.3706152      17.698037      17.695738      17.694262      5541.4861    
       143   0             -2181.3113      630.25228      604.6736       657.41686      628.66637      110.79559      156.31002     -6.3706143      17.698037      17.695738      17.694262      5541.4861    
       144   0             -2181.3113      630.25228      604.6736       657.41686      628.66637      110.79559      156.31002     -6.370614       17.698037      17.695738      17.694262      5541.4861    
       145   0             -2181.3113      630.25228      604.6736       657.41686      628.66637      110.79558      156.31002     -6.3706139      17.698037      17.695738      17.694262      5541.4861    
       146   0             -2181.3113      630.25228      604.6736       657.41686      628.66637      110.79559      156.31002     -6.3706137      17.698037      17.695738      17.694262      5541.4861    
       147   0             -2181.3113      630.25228      604.6736       657.41686      628.66637      110.79558      156.31002     -6.3706137      17.698037      17.695738      17.694262      5541.4861    
       148   0             -2181.3113      630.25228      604.6736       657.41686      628.66637      110.79558      156.31002     -6.3706137      17.698037      17.695738      17.694262      5541.4861    
       149   0             -2181.3113      630.25228      604.6736       657.41686      628.66637      110.79558      156.31002     -6.3706136      17.698037      17.695738      17.694262      5541.4861    
       150   0             -2181.3113      630.25228      604.6736       657.41686      628.66637      110.79558      156.31002     -6.3706137      17.698037      17.695738      17.694262      5541.4861    
       151   0             -2181.3113      630.25228      604.6736       657.41686      628.66637      110.79558      156.31002     -6.3706137      17.698037      17.695738      17.694262      5541.4861    
       152   0             -2181.3113      630.25228      604.6736       657.41686      628.66637      110.79558      156.31002     -6.3706137      17.698037      17.695738      17.694262      5541.4861    
       153   0             -2181.3113      630.25228      604.6736       657.41686      628.66637      110.79559      156.31002     -6.3706137      17.698037      17.695738      17.694262      5541.4861    
       154   0             -2181.3113      630.25228      604.6736       657.41686      628.66637      110.79559      156.31002     -6.3706137      17.698037      17.695738      17.694262      5541.4861    
       155   0             -2181.3113      630.25228      604.6736       657.41686      628.66637      110.79558      156.31002     -6.3706138      17.698037      17.695738      17.694262      5541.4861    
       156   0             -2181.3113      630.25228      604.6736       657.41686      628.66637      110.79558      156.31002     -6.3706138      17.698037      17.695738      17.694262      5541.4861    
       157   0             -2181.3113      630.25228      604.6736       657.41686      628.66637      110.79558      156.31002     -6.3706138      17.698037      17.695738      17.694262      5541.4861    
       158   0             -2181.3113      630.25228      604.6736       657.41686      628.66637      110.79558      156.31002     -6.3706138      17.698037      17.695738      17.694262      5541.4861    
       159   0             -2181.3113      630.25228      604.6736       657.41686      628.66637      110.79558      156.31002     -6.3706138      17.698037      17.695738      17.694262      5541.4861    
Loop time of 0.138791 on 1 procs for 59 steps with 500 atoms

90.1% CPU use with 1 MPI tasks x 1 OpenMP threads

Minimization stats:
  Stopping criterion = force tolerance
  Energy initial, next-to-last, final = 
      -2181.1216907703  -2181.31128774412  -2181.31128774413
  Force two-norm initial, final = 1.8071244 6.3391415e-11
  Force max component initial, final = 0.15131698 5.5984106e-12
  Final line search alpha, max atom move = 1 5.5984106e-12
  Iterations, force evaluations = 59 117

MPI task timing breakdown:
Section |  min time  |  avg time  |  max time  |%varavg| %total
---------------------------------------------------------------
Pair    | 0.13614    | 0.13614    | 0.13614    |   0.0 | 98.09
Neigh   | 0          | 0          | 0          |   0.0 |  0.00
Comm    | 0.000755   | 0.000755   | 0.000755   |   0.0 |  0.54
Output  | 0.000925   | 0.000925   | 0.000925   |   0.0 |  0.67
Modify  | 0          | 0          | 0          |   0.0 |  0.00
Other   |            | 0.000971   |            |       |  0.70

Nlocal:            500 ave         500 max         500 min
Histogram: 1 0 0 0 0 0 0 0 0 0
Nghost:           1956 ave        1956 max        1956 min
Histogram: 1 0 0 0 0 0 0 0 0 0
Neighs:          33500 ave       33500 max       33500 min
Histogram: 1 0 0 0 0 0 0 0 0 0

Total # of neighbors = 33500
Ave neighs/atom = 67
Neighbor list builds = 0
Dangerous builds = 0
OMP_NUM_THREADS environment is not set. Defaulting to 1 thread. (src/comm.cpp:98)
  using 1 OpenMP thread(s) per MPI task
Loaded 1 plugins from F:\Lammps\LAMMPS 64-bit 2Aug2023\plugins

The 'box' command has been removed and will be ignored

Reading restart file ...
  restart file = 2 Aug 2023, LAMMPS = 2 Aug 2023
  restoring atom style atomic from restart
  triclinic box = (0.045990148 0.047130842 0.047869029) to (17.74401 17.742869 17.742131) with tilt (0 0 0)
  1 by 1 by 1 MPI processor grid
  pair style eam/alloy stores no restart info
  500 atoms
  read_restart CPU = 0.000 seconds
Changing box ...
  triclinic box = (0.045990148 0.047130842 0.047869029) to (17.74401 17.742851 17.742131) with tilt (0 0 0)
  triclinic box = (0.045990148 0.047130842 0.047869029) to (17.74401 17.742851 17.742131) with tilt (0 0 0)
Neighbor list info ...
  update: every = 1 steps, delay = 0 steps, check = yes
  max neighbors/atom: 2000, page size: 100000
  master list distance cutoff = 6.80375
  ghost atom cutoff = 6.80375
  1 neighbor lists, perpetual/occasional/extra = 1 0 0
  (1) pair eam/alloy, perpetual
      attributes: half, newton on
      pair build: half/nsq/newton
      stencil: none
      bin: none
Setting up cg style minimization ...
  Unit style    : metal
  Current step  : 100
Per MPI rank memory allocation (min/avg/max) = 4.483 | 4.483 | 4.483 Mbytes
   Step          Temp          PotEng         Press           Pxx            Pyy            Pzz            Pxy            Pxz            Pyz             Lx             Ly             Lz           Volume    
       100   0             -2181.1217     -245.08231     -247.98847     -243.45305     -243.8054       75.532293      18.645348     -94.081589      17.69802       17.695721      17.694262      5541.475     
       101   0             -2181.2597      499.69374      481.31421      526.38103      491.38597      106.49851      114.84824     -60.796789      17.69802       17.695721      17.694262      5541.475     
       102   0             -2181.2994      650.30297      622.27812      686.16054      642.47025      109.59136      162.7529      -16.099992      17.69802       17.695721      17.694262      5541.475     
       103   0             -2181.3066      707.28242      670.82219      743.8732       707.15185      114.90933      161.46556     -15.315755      17.69802       17.695721      17.694262      5541.475     
       104   0             -2181.3098      600.77299      566.04785      630.87277      605.39837      109.97261      152.34902     -9.3773875      17.69802       17.695721      17.694262      5541.475     
       105   0             -2181.3108      622.31964      591.7602       651.9871       623.21162      111.19855      155.8419      -5.8157212      17.69802       17.695721      17.694262      5541.475     
       106   0             -2181.3111      641.20306      614.09522      669.20995      640.30402      110.58339      157.86518     -5.3664625      17.69802       17.695721      17.694262      5541.475     
       107   0             -2181.3112      634.11141      607.52485      661.49736      633.31203      110.27201      156.22027     -6.4676552      17.69802       17.695721      17.694262      5541.475     
       108   0             -2181.3112      633.31231      606.6219       660.53134      632.78368      110.09554      155.94439     -6.5558573      17.69802       17.695721      17.694262      5541.475     
       109   0             -2181.3113      636.40591      609.45681      664.11537      635.64555      110.73147      156.32155     -6.5561385      17.69802       17.695721      17.694262      5541.475     
       110   0             -2181.3113      633.72354      607.16241      661.46805      632.54015      110.65773      156.39826     -6.3806539      17.69802       17.695721      17.694262      5541.475     
       111   0             -2181.3113      632.87324      606.88846      660.59413      631.13712      110.84405      155.88686     -6.3032354      17.69802       17.695721      17.694262      5541.475     
       112   0             -2181.3113      634.47589      608.94475      661.96616      632.51675      111.02402      156.16654     -6.1170457      17.69802       17.695721      17.694262      5541.475     
       113   0             -2181.3113      634.22291      608.79289      661.70172      632.17413      110.79677      156.40688     -6.3362552      17.69802       17.695721      17.694262      5541.475     
       114   0             -2181.3113      633.70866      608.33185      661.19784      631.5963       110.73164      156.41641     -6.3586497      17.69802       17.695721      17.694262      5541.475     
       115   0             -2181.3113      633.8559       608.5209       661.33868      631.70811      110.79758      156.34436     -6.3131024      17.69802       17.695721      17.694262      5541.475     
       116   0             -2181.3113      633.96153      608.66062      661.42584      631.79814      110.7857       156.31005     -6.3453999      17.69802       17.695721      17.694262      5541.475     
       117   0             -2181.3113      633.87944      608.58313      661.35444      631.70076      110.78286      156.31328     -6.3486185      17.69802       17.695721      17.694262      5541.475     
       118   0             -2181.3113      633.89987      608.6021       661.38333      631.71419      110.79784      156.30305     -6.3485232      17.69802       17.695721      17.694262      5541.475     
       119   0             -2181.3113      633.95623      608.66569      661.43487      631.76812      110.80022      156.299       -6.3549384      17.69802       17.695721      17.694262      5541.475     
       120   0             -2181.3113      633.94822      608.65365      661.42808      631.76294      110.79302      156.30024     -6.3624232      17.69802       17.695721      17.694262      5541.475     
       121   0             -2181.3113      633.95564      608.66458      661.43011      631.77224      110.79158      156.30636     -6.3644875      17.69802       17.695721      17.694262      5541.475     
       122   0             -2181.3113      633.95824      608.67319      661.43203      631.76948      110.79306      156.31304     -6.3648499      17.69802       17.695721      17.694262      5541.475     
       123   0             -2181.3113      633.94515      608.66818      661.41533      631.75194      110.79174      156.31089     -6.3645741      17.69802       17.695721      17.694262      5541.475     
       124   0             -2181.3113      633.93976      608.66454      661.40878      631.74595      110.79091      156.30961     -6.3659098      17.69802       17.695721      17.694262      5541.475     
       125   0             -2181.3113      633.94283      608.66734      661.41175      631.74939      110.79113      156.31042     -6.366396       17.69802       17.695721      17.694262      5541.475     
       126   0             -2181.3113      633.94142      608.66642      661.40974      631.74811      110.79092      156.31024     -6.3677575      17.69802       17.695721      17.694262      5541.475     
       127   0             -2181.3113      633.9408       608.66665      661.40885      631.74691      110.79102      156.30969     -6.3673443      17.69802       17.695721      17.694262      5541.475     
       128   0             -2181.3113      633.94114      608.66734      661.40924      631.74683      110.79125      156.30982     -6.3672109      17.69802       17.695721      17.694262      5541.475     
       129   0             -2181.3113      633.94134      608.66752      661.40928      631.74723      110.79111      156.30983     -6.3670812      17.69802       17.695721      17.694262      5541.475     
       130   0             -2181.3113      633.94123      608.66753      661.40886      631.74731      110.79107      156.30968     -6.3671002      17.69802       17.695721      17.694262      5541.475     
       131   0             -2181.3113      633.94135      608.66774      661.40886      631.74746      110.79102      156.30971     -6.3669329      17.69802       17.695721      17.694262      5541.475     
       132   0             -2181.3113      633.94141      608.66786      661.40882      631.74756      110.79106      156.30967     -6.3669133      17.69802       17.695721      17.694262      5541.475     
       133   0             -2181.3113      633.94132      608.66784      661.40865      631.74748      110.7911       156.30971     -6.3669997      17.69802       17.695721      17.694262      5541.475     
       134   0             -2181.3113      633.94123      608.66778      661.40848      631.74743      110.79109      156.30969     -6.3670532      17.69802       17.695721      17.694262      5541.475     
       135   0             -2181.3113      633.94128      608.66785      661.40849      631.74749      110.79106      156.30974     -6.3670212      17.69802       17.695721      17.694262      5541.475     
       136   0             -2181.3113      633.94129      608.66788      661.4085       631.7475       110.79106      156.30974     -6.3670215      17.69802       17.695721      17.694262      5541.475     
       137   0             -2181.3113      633.94129      608.66788      661.40851      631.74747      110.79107      156.30973     -6.3670152      17.69802       17.695721      17.694262      5541.475     
       138   0             -2181.3113      633.94128      608.66788      661.40851      631.74746      110.79107      156.30973     -6.3670097      17.69802       17.695721      17.694262      5541.475     
       139   0             -2181.3113      633.94128      608.66787      661.40851      631.74746      110.79107      156.30973     -6.3670107      17.69802       17.695721      17.694262      5541.475     
       140   0             -2181.3113      633.94128      608.66788      661.40851      631.74746      110.79107      156.30973     -6.3670094      17.69802       17.695721      17.694262      5541.475     
       141   0             -2181.3113      633.94128      608.66788      661.40851      631.74746      110.79107      156.30973     -6.3670092      17.69802       17.695721      17.694262      5541.475     
       142   0             -2181.3113      633.94129      608.66788      661.40851      631.74747      110.79107      156.30973     -6.3670088      17.69802       17.695721      17.694262      5541.475     
       143   0             -2181.3113      633.94128      608.66788      661.40851      631.74746      110.79107      156.30973     -6.3670079      17.69802       17.695721      17.694262      5541.475     
       144   0             -2181.3113      633.94128      608.66788      661.40851      631.74746      110.79107      156.30973     -6.3670076      17.69802       17.695721      17.694262      5541.475     
       145   0             -2181.3113      633.94128      608.66788      661.40851      631.74746      110.79107      156.30973     -6.3670076      17.69802       17.695721      17.694262      5541.475     
       146   0             -2181.3113      633.94128      608.66788      661.4085       631.74746      110.79107      156.30973     -6.3670073      17.69802       17.695721      17.694262      5541.475     
       147   0             -2181.3113      633.94128      608.66788      661.40851      631.74746      110.79107      156.30973     -6.3670073      17.69802       17.695721      17.694262      5541.475     
       148   0             -2181.3113      633.94128      608.66788      661.40851      631.74747      110.79107      156.30973     -6.3670074      17.69802       17.695721      17.694262      5541.475     
       149   0             -2181.3113      633.94128      608.66788      661.40851      631.74746      110.79107      156.30973     -6.3670072      17.69802       17.695721      17.694262      5541.475     
       150   0             -2181.3113      633.94128      608.66788      661.40851      631.74746      110.79107      156.30973     -6.3670073      17.69802       17.695721      17.694262      5541.475     
       151   0             -2181.3113      633.94128      608.66788      661.40851      631.74747      110.79107      156.30973     -6.3670073      17.69802       17.695721      17.694262      5541.475     
       152   0             -2181.3113      633.94128      608.66788      661.40851      631.74747      110.79107      156.30973     -6.3670074      17.69802       17.695721      17.694262      5541.475     
       153   0             -2181.3113      633.94128      608.66788      661.40851      631.74747      110.79107      156.30973     -6.3670074      17.69802       17.695721      17.694262      5541.475     
       154   0             -2181.3113      633.94128      608.66788      661.40851      631.74747      110.79107      156.30973     -6.3670074      17.69802       17.695721      17.694262      5541.475     
       155   0             -2181.3113      633.94128      608.66788      661.40851      631.74747      110.79107      156.30973     -6.3670074      17.69802       17.695721      17.694262      5541.475     
       156   0             -2181.3113      633.94128      608.66788      661.40851      631.74747      110.79107      156.30973     -6.3670074      17.69802       17.695721      17.694262      5541.475     
       157   0             -2181.3113      633.94128      608.66788      661.40851      631.74747      110.79107      156.30973     -6.3670074      17.69802       17.695721      17.694262      5541.475     
       158   0             -2181.3113      633.94128      608.66788      661.40851      631.74747      110.79107      156.30973     -6.3670074      17.69802       17.695721      17.694262      5541.475     
       159   0             -2181.3113      633.94128      608.66788      661.40851      631.74747      110.79107      156.30973     -6.3670074      17.69802       17.695721      17.694262      5541.475     
Loop time of 0.137818 on 1 procs for 59 steps with 500 atoms

102.0% CPU use with 1 MPI tasks x 1 OpenMP threads

Minimization stats:
  Stopping criterion = force tolerance
  Energy initial, next-to-last, final = 
     -2181.12169248407  -2181.31128336512  -2181.31128336512
  Force two-norm initial, final = 1.8070845 6.3381252e-11
  Force max component initial, final = 0.15131001 5.6002009e-12
  Final line search alpha, max atom move = 1 5.6002009e-12
  Iterations, force evaluations = 59 117

MPI task timing breakdown:
Section |  min time  |  avg time  |  max time  |%varavg| %total
---------------------------------------------------------------
Pair    | 0.13528    | 0.13528    | 0.13528    |   0.0 | 98.16
Neigh   | 0          | 0          | 0          |   0.0 |  0.00
Comm    | 0.000708   | 0.000708   | 0.000708   |   0.0 |  0.51
Output  | 0.000904   | 0.000904   | 0.000904   |   0.0 |  0.66
Modify  | 0          | 0          | 0          |   0.0 |  0.00
Other   |            | 0.000929   |            |       |  0.67

Nlocal:            500 ave         500 max         500 min
Histogram: 1 0 0 0 0 0 0 0 0 0
Nghost:           1956 ave        1956 max        1956 min
Histogram: 1 0 0 0 0 0 0 0 0 0
Neighs:          33500 ave       33500 max       33500 min
Histogram: 1 0 0 0 0 0 0 0 0 0

Total # of neighbors = 33500
Ave neighs/atom = 67
Neighbor list builds = 0
Dangerous builds = 0
OMP_NUM_THREADS environment is not set. Defaulting to 1 thread. (src/comm.cpp:98)
  using 1 OpenMP thread(s) per MPI task
Loaded 1 plugins from F:\Lammps\LAMMPS 64-bit 2Aug2023\plugins

The 'box' command has been removed and will be ignored

Reading restart file ...
  restart file = 2 Aug 2023, LAMMPS = 2 Aug 2023
  restoring atom style atomic from restart
  triclinic box = (0.045990148 0.047130842 0.047869029) to (17.74401 17.742869 17.742131) with tilt (0 0 0)
  1 by 1 by 1 MPI processor grid
  pair style eam/alloy stores no restart info
  500 atoms
  read_restart CPU = 0.000 seconds
Changing box ...
  triclinic box = (0.045990148 0.047130842 0.047869029) to (17.74401 17.742887 17.742131) with tilt (0 0 0)
  triclinic box = (0.045990148 0.047130842 0.047869029) to (17.74401 17.742887 17.742131) with tilt (0 0 0)
Neighbor list info ...
  update: every = 1 steps, delay = 0 steps, check = yes
  max neighbors/atom: 2000, page size: 100000
  master list distance cutoff = 6.80375
  ghost atom cutoff = 6.80375
  1 neighbor lists, perpetual/occasional/extra = 1 0 0
  (1) pair eam/alloy, perpetual
      attributes: half, newton on
      pair build: half/nsq/newton
      stencil: none
      bin: none
Setting up cg style minimization ...
  Unit style    : metal
  Current step  : 100
Per MPI rank memory allocation (min/avg/max) = 4.483 | 4.483 | 4.483 Mbytes
   Step          Temp          PotEng         Press           Pxx            Pyy            Pzz            Pxy            Pxz            Pyz             Lx             Ly             Lz           Volume    
       100   0             -2181.1217     -248.82441     -251.1186      -248.42247     -246.93216      75.537977      18.642969     -94.08354       17.69802       17.695756      17.694262      5541.4861    
       101   0             -2181.2597      495.97598      478.20536      521.44383      488.27876      106.50368      114.84713     -60.801818      17.69802       17.695756      17.694262      5541.4861    
       102   0             -2181.2994      646.64255      619.22216      681.28774      639.41773      109.59863      162.76019     -16.103803      17.69802       17.695756      17.694262      5541.4861    
       103   0             -2181.3066      703.59552      667.73856      738.97467      704.07332      114.91515      161.46854     -15.320843      17.69802       17.695756      17.694262      5541.4861    
       104   0             -2181.3098      597.07938      562.95691      625.96851      602.31272      109.97854      152.35126     -9.3825159      17.69802       17.695756      17.694262      5541.4861    
       105   0             -2181.3108      618.63596      588.67959      647.09236      620.13593      111.20521      155.84579     -5.820035       17.69802       17.695756      17.694262      5541.4861    
       106   0             -2181.3111      637.51554      611.01043      664.3115       637.2247       110.58996      157.8683      -5.3712319      17.69802       17.695756      17.694262      5541.4861    
       107   0             -2181.3112      630.42237      604.43836      656.59776      630.23098      110.27849      156.22309     -6.4724525      17.69802       17.695756      17.694262      5541.4861    
       108   0             -2181.3112      629.62508      603.53716      655.63367      629.70441      110.10221      155.94745     -6.560586       17.69802       17.695756      17.694262      5541.4861    
       109   0             -2181.3113      632.71856      606.37186      659.21764      632.56616      110.73803      156.32457     -6.5608964      17.69802       17.695756      17.694262      5541.4861    
       110   0             -2181.3113      630.03536      604.07643      656.56976      629.45989      110.66422      156.40115     -6.3854753      17.69802       17.695756      17.694262      5541.4861    
       111   0             -2181.3113      629.18574      603.80307      655.69668      628.05746      110.85058      155.88984     -6.3079728      17.69802       17.695756      17.694262      5541.4861    
       112   0             -2181.3113      630.78839      605.85931      657.0688       629.43706      111.03056      156.16951     -6.1217792      17.69802       17.695756      17.694262      5541.4861    
       113   0             -2181.3113      630.53506      605.70704      656.80404      629.0941       110.8033       156.4098      -6.3410266      17.69802       17.695756      17.694262      5541.4861    
       114   0             -2181.3113      630.02101      605.24621      656.30036      628.51645      110.73817      156.41935     -6.3633668      17.69802       17.695756      17.694262      5541.4861    
       115   0             -2181.3113      630.16831      605.43535      656.44125      628.62833      110.80411      156.34733     -6.3178256      17.69802       17.695756      17.694262      5541.4861    
       116   0             -2181.3113      630.27383      605.57495      656.52828      628.71827      110.79223      156.31301     -6.3501342      17.69802       17.695756      17.694262      5541.4861    
       117   0             -2181.3113      630.19175      605.49746      656.45689      628.62089      110.78939      156.31623     -6.3533472      17.69802       17.695756      17.694262      5541.4861    
       118   0             -2181.3113      630.21222      605.51648      656.48581      628.63436      110.80437      156.30602     -6.3532495      17.69802       17.695756      17.694262      5541.4861    
       119   0             -2181.3113      630.26854      605.58004      656.53731      628.68827      110.80674      156.30196     -6.3596717      17.69802       17.695756      17.694262      5541.4861    
       120   0             -2181.3113      630.26053      605.56799      656.53052      628.68308      110.79954      156.3032      -6.3671554      17.69802       17.695756      17.694262      5541.4861    
       121   0             -2181.3113      630.26797      605.57894      656.53257      628.6924       110.79811      156.30932     -6.3692173      17.69802       17.695756      17.694262      5541.4861    
       122   0             -2181.3113      630.27056      605.58755      656.53448      628.68963      110.79959      156.316       -6.3695824      17.69802       17.695756      17.694262      5541.4861    
       123   0             -2181.3113      630.25747      605.58253      656.51778      628.67209      110.79827      156.31385     -6.3693058      17.69802       17.695756      17.694262      5541.4861    
       124   0             -2181.3113      630.25208      605.5789       656.51124      628.6661       110.79743      156.31257     -6.3706413      17.69802       17.695756      17.694262      5541.4861    
       125   0             -2181.3113      630.25515      605.58169      656.51421      628.66954      110.79766      156.31338     -6.3711279      17.69802       17.695756      17.694262      5541.4861    
       126   0             -2181.3113      630.25374      605.58077      656.5122       628.66826      110.79745      156.31319     -6.3724897      17.69802       17.695756      17.694262      5541.4861    
       127   0             -2181.3113      630.25312      605.58101      656.5113       628.66706      110.79755      156.31265     -6.3720763      17.69802       17.695756      17.694262      5541.4861    
       128   0             -2181.3113      630.25346      605.58169      656.51169      628.66698      110.79778      156.31278     -6.371943       17.69802       17.695756      17.694262      5541.4861    
       129   0             -2181.3113      630.25366      605.58187      656.51173      628.66738      110.79764      156.31279     -6.3718132      17.69802       17.695756      17.694262      5541.4861    
       130   0             -2181.3113      630.25355      605.58189      656.51132      628.66746      110.7976       156.31264     -6.3718322      17.69802       17.695756      17.694262      5541.4861    
       131   0             -2181.3113      630.25367      605.58209      656.51131      628.66761      110.79755      156.31266     -6.3716649      17.69802       17.695756      17.694262      5541.4861    
       132   0             -2181.3113      630.25373      605.58221      656.51128      628.66771      110.79759      156.31262     -6.3716453      17.69802       17.695756      17.694262      5541.4861    
       133   0             -2181.3113      630.25364      605.5822       656.5111       628.66763      110.79763      156.31266     -6.3717317      17.69802       17.695756      17.694262      5541.4861    
       134   0             -2181.3113      630.25355      605.58213      656.51093      628.66758      110.79762      156.31265     -6.3717852      17.69802       17.695756      17.694262      5541.4861    
       135   0             -2181.3113      630.2536       605.5822       656.51095      628.66764      110.79759      156.31269     -6.3717532      17.69802       17.695756      17.694262      5541.4861    
       136   0             -2181.3113      630.25361      605.58223      656.51096      628.66765      110.79759      156.3127      -6.3717535      17.69802       17.695756      17.694262      5541.4861    
       137   0             -2181.3113      630.25361      605.58224      656.51096      628.66762      110.79759      156.31269     -6.3717472      17.69802       17.695756      17.694262      5541.4861    
       138   0             -2181.3113      630.2536       605.58223      656.51096      628.6676       110.7976       156.31269     -6.3717418      17.69802       17.695756      17.694262      5541.4861    
       139   0             -2181.3113      630.2536       605.58223      656.51096      628.66761      110.7976       156.31269     -6.3717428      17.69802       17.695756      17.694262      5541.4861    
[...]
       151   0             -2181.3113      632.09504      607.12359      658.95647      630.20506      111.96197      156.31119     -6.3715673      17.69802       17.695738      17.694262      5541.4806    
       152   0             -2181.3113      632.09504      607.12359      658.95647      630.20506      111.96197      156.31119     -6.3715673      17.69802       17.695738      17.694262      5541.4806    
       153   0             -2181.3113      632.09504      607.12359      658.95647      630.20506      111.96197      156.31119     -6.3715673      17.69802       17.695738      17.694262      5541.4806    
       154   0             -2181.3113      632.09504      607.12359      658.95647      630.20506      111.96197      156.31119     -6.3715673      17.69802       17.695738      17.694262      5541.4806    
       155   0             -2181.3113      632.09504      607.12359      658.95647      630.20506      111.96197      156.31119     -6.3715673      17.69802       17.695738      17.694262      5541.4806    
       156   0             -2181.3113      632.09504      607.12359      658.95647      630.20506      111.96197      156.31119     -6.3715673      17.69802       17.695738      17.694262      5541.4806    
       157   0             -2181.3113      632.09504      607.12359      658.95647      630.20506      111.96197      156.31119     -6.3715673      17.69802       17.695738      17.694262      5541.4806    
       158   0             -2181.3113      632.09504      607.12359      658.95647      630.20506      111.96197      156.31119     -6.3715673      17.69802       17.695738      17.694262      5541.4806    
       159   0             -2181.3113      632.09504      607.12359      658.95647      630.20506      111.96197      156.31119     -6.3715673      17.69802       17.695738      17.694262      5541.4806    
Loop time of 0.138969 on 1 procs for 59 steps with 500 atoms

101.2% CPU use with 1 MPI tasks x 1 OpenMP threads

Minimization stats:
  Stopping criterion = force tolerance
  Energy initial, next-to-last, final = 
     -2181.12169137445  -2181.31128526326  -2181.31128526327
  Force two-norm initial, final = 1.8071043 6.3368368e-11
  Force max component initial, final = 0.15131224 5.5913885e-12
  Final line search alpha, max atom move = 1 5.5913885e-12
  Iterations, force evaluations = 59 117

MPI task timing breakdown:
Section |  min time  |  avg time  |  max time  |%varavg| %total
---------------------------------------------------------------
Pair    | 0.1363     | 0.1363     | 0.1363     |   0.0 | 98.08
Neigh   | 0          | 0          | 0          |   0.0 |  0.00
Comm    | 0.000757   | 0.000757   | 0.000757   |   0.0 |  0.54
Output  | 0.000925   | 0.000925   | 0.000925   |   0.0 |  0.67
Modify  | 0          | 0          | 0          |   0.0 |  0.00
Other   |            | 0.000989   |            |       |  0.71

Nlocal:            500 ave         500 max         500 min
Histogram: 1 0 0 0 0 0 0 0 0 0
Nghost:           1956 ave        1956 max        1956 min
Histogram: 1 0 0 0 0 0 0 0 0 0
Neighs:          33500 ave       33500 max       33500 min
Histogram: 1 0 0 0 0 0 0 0 0 0

Total # of neighbors = 33500
Ave neighs/atom = 67
Neighbor list builds = 0
Dangerous builds = 0
OMP_NUM_THREADS environment is not set. Defaulting to 1 thread. (src/comm.cpp:98)
  using 1 OpenMP thread(s) per MPI task
Loaded 1 plugins from F:\Lammps\LAMMPS 64-bit 2Aug2023\plugins

The 'box' command has been removed and will be ignored

Reading restart file ...
  restart file = 2 Aug 2023, LAMMPS = 2 Aug 2023
  restoring atom style atomic from restart
  triclinic box = (0.045990148 0.047130842 0.047869029) to (17.74401 17.742869 17.742131) with tilt (0 0 0)
  1 by 1 by 1 MPI processor grid
  pair style eam/alloy stores no restart info
  500 atoms
  read_restart CPU = 0.000 seconds
Changing box ...
  triclinic box = (0.045990148 0.047130842 0.047869029) to (17.74401 17.742869 17.742131) with tilt (1.7695738e-05 0 0)
Neighbor list info ...
  update: every = 1 steps, delay = 0 steps, check = yes
  max neighbors/atom: 2000, page size: 100000
  master list distance cutoff = 6.80375
  ghost atom cutoff = 6.80375
  1 neighbor lists, perpetual/occasional/extra = 1 0 0
  (1) pair eam/alloy, perpetual
      attributes: half, newton on
      pair build: half/nsq/newton
      stencil: none
      bin: none
Setting up cg style minimization ...
  Unit style    : metal
  Current step  : 100
Per MPI rank memory allocation (min/avg/max) = 4.483 | 4.483 | 4.483 Mbytes
   Step          Temp          PotEng         Press           Pxx            Pyy            Pzz            Pxy            Pxz            Pyz             Lx             Ly             Lz           Volume    
       100   0             -2181.1217     -246.95082     -249.55138     -245.93492     -245.36617      74.355294      18.644122     -94.081978      17.69802       17.695738      17.694262      5541.4806    
       101   0             -2181.2597      497.83792      479.76193      523.91593      489.83589      105.33038      114.84776     -60.79786       17.69802       17.695738      17.694262      5541.4806    
       102   0             -2181.2994      648.47478      620.75114      683.72696      640.94622      108.42707      162.75657     -16.099343      17.69802       17.695738      17.694262      5541.4806    
       103   0             -2181.3066      705.44118      669.28155      741.42694      705.61505      113.74455      161.46714     -15.3159        17.69802       17.695738      17.694262      5541.4806    
       104   0             -2181.3098      598.92862      564.50389      628.42389      603.85808      108.808        152.35028     -9.3777456      17.69802       17.695738      17.694262      5541.4806    
       105   0             -2181.3108      620.47997      590.22113      649.54271      621.67607      110.03382      155.84391     -5.8157554      17.69802       17.695738      17.694262      5541.4806    
       106   0             -2181.3111      639.36174      612.55431      666.76404      638.76686      109.41876      157.86679     -5.3666807      17.69802       17.695738      17.694262      5541.4806    
       107   0             -2181.3112      632.2693       605.98309      659.05085      631.77397      109.10748      156.22171     -6.4678816      17.69802       17.695738      17.694262      5541.4806    
       108   0             -2181.3112      631.47109      605.08098      658.08579      631.2465       108.93107      155.94594     -6.5560259      17.69802       17.695738      17.694262      5541.4806    
       109   0             -2181.3113      634.56463      607.91578      661.66979      634.10833      109.56697      156.32308     -6.5563144      17.69802       17.695738      17.694262      5541.4806    
       110   0             -2181.3113      631.88187      605.6209       659.02219      631.00251      109.4933       156.39973     -6.3808666      17.69802       17.695738      17.694262      5541.4806    
       111   0             -2181.3113      631.03187      605.3472       658.14866      629.59975      109.67966      155.88836     -6.3034082      17.69802       17.695738      17.694262      5541.4806    
       112   0             -2181.3113      632.63453      607.40349      659.52074      630.97937      109.85965      156.16804     -6.1172242      17.69802       17.695738      17.694262      5541.4806    
       113   0             -2181.3113      632.38139      607.25144      659.25616      630.63659      109.63242      156.40836     -6.3364444      17.69802       17.695738      17.694262      5541.4806    
       114   0             -2181.3113      631.86723      606.7905       658.75236      630.05884      109.56729      156.41789     -6.3588139      17.69802       17.695738      17.694262      5541.4806    
       115   0             -2181.3113      632.01451      606.97959      658.89323      630.17069      109.63323      156.34586     -6.3132686      17.69802       17.695738      17.694262      5541.4806    
       116   0             -2181.3113      632.12008      607.11925      658.98032      630.26068      109.62135      156.31154     -6.3455718      17.69802       17.695738      17.694262      5541.4806    
       117   0             -2181.3113      632.038        607.04176      658.90893      630.16329      109.6185       156.31477     -6.348789       17.69802       17.695738      17.694262      5541.4806    
       118   0             -2181.3113      632.05845      607.06076      658.93784      630.17675      109.63348      156.30455     -6.3486916      17.69802       17.695738      17.694262      5541.4806    
       119   0             -2181.3113      632.11479      607.12433      658.98935      630.23067      109.63585      156.3005      -6.3551107      17.69802       17.695738      17.694262      5541.4806    
       120   0             -2181.3113      632.10678      607.11229      658.98256      630.22548      109.62865      156.30173     -6.3625947      17.69802       17.695738      17.694262      5541.4806    
       121   0             -2181.3113      632.11421      607.12323      658.98461      630.23479      109.62722      156.30785     -6.3646583      17.69802       17.695738      17.694262      5541.4806    
       122   0             -2181.3113      632.1168       607.13184      658.98652      630.23203      109.62869      156.31454     -6.365022       17.69802       17.695738      17.694262      5541.4806    
       123   0             -2181.3113      632.10371      607.12682      658.96982      630.21448      109.62737      156.31239     -6.364746       17.69802       17.695738      17.694262      5541.4806    
       124   0             -2181.3113      632.09832      607.12319      658.96327      630.2085       109.62654      156.31111     -6.3660816      17.69802       17.695738      17.694262      5541.4806    
       125   0             -2181.3113      632.10139      607.12598      658.96625      630.21194      109.62676      156.31191     -6.3665679      17.69802       17.695738      17.694262      5541.4806    
       126   0             -2181.3113      632.09998      607.12506      658.96424      630.21066      109.62655      156.31173     -6.3679296      17.69802       17.695738      17.694262      5541.4806    
       127   0             -2181.3113      632.09937      607.1253       658.96334      630.20946      109.62665      156.31119     -6.3675163      17.69802       17.695738      17.694262      5541.4806    
       128   0             -2181.3113      632.0997       607.12598      658.96373      630.20938      109.62689      156.31131     -6.3673829      17.69802       17.695738      17.694262      5541.4806    
       129   0             -2181.3113      632.0999       607.12616      658.96377      630.20978      109.62674      156.31133     -6.3672532      17.69802       17.695738      17.694262      5541.4806    
       130   0             -2181.3113      632.0998       607.12618      658.96335      630.20985      109.6267       156.31118     -6.3672722      17.69802       17.695738      17.694262      5541.4806    
       131   0             -2181.3113      632.09991      607.12638      658.96335      630.21001      109.62666      156.3112      -6.3671049      17.69802       17.695738      17.694262      5541.4806    
       132   0             -2181.3113      632.09998      607.1265       658.96332      630.21011      109.62669      156.31116     -6.3670853      17.69802       17.695738      17.694262      5541.4806    
       133   0             -2181.3113      632.09988      607.12649      658.96314      630.21002      109.62673      156.3112      -6.3671717      17.69802       17.695738      17.694262      5541.4806    
       134   0             -2181.3113      632.09979      607.12642      658.96297      630.20997      109.62672      156.31119     -6.3672252      17.69802       17.695738      17.694262      5541.4806    
       135   0             -2181.3113      632.09984      607.1265       658.96299      630.21004      109.62669      156.31123     -6.3671932      17.69802       17.695738      17.694262      5541.4806    
       136   0             -2181.3113      632.09985      607.12652      658.96299      630.21005      109.62669      156.31124     -6.3671935      17.69802       17.695738      17.694262      5541.4806    
       137   0             -2181.3113      632.09985      607.12653      658.963        630.21002      109.6267       156.31123     -6.3671872      17.69802       17.695738      17.694262      5541.4806    
       138   0             -2181.3113      632.09984      607.12652      658.963        630.21         109.6267       156.31123     -6.3671818      17.69802       17.695738      17.694262      5541.4806    
       139   0             -2181.3113      632.09984      607.12652      658.963        630.21001      109.6267       156.31123     -6.3671827      17.69802       17.695738      17.694262      5541.4806    
       140   0             -2181.3113      632.09984      607.12652      658.963        630.21001      109.6267       156.31122     -6.3671814      17.69802       17.695738      17.694262      5541.4806    
       141   0             -2181.3113      632.09985      607.12653      658.963        630.21001      109.6267       156.31122     -6.3671813      17.69802       17.695738      17.694262      5541.4806    
       142   0             -2181.3113      632.09985      607.12653      658.963        630.21001      109.6267       156.31123     -6.3671809      17.69802       17.695738      17.694262      5541.4806    
       143   0             -2181.3113      632.09985      607.12653      658.963        630.21001      109.6267       156.31123     -6.3671799      17.69802       17.695738      17.694262      5541.4806    
       144   0             -2181.3113      632.09985      607.12653      658.963        630.21001      109.6267       156.31123     -6.3671796      17.69802       17.695738      17.694262      5541.4806    
       145   0             -2181.3113      632.09985      607.12653      658.963        630.21001      109.6267       156.31123     -6.3671796      17.69802       17.695738      17.694262      5541.4806    
       146   0             -2181.3113      632.09985      607.12653      658.963        630.21001      109.6267       156.31123     -6.3671793      17.69802       17.695738      17.694262      5541.4806    
       147   0             -2181.3113      632.09985      607.12653      658.963        630.21001      109.6267       156.31123     -6.3671794      17.69802       17.695738      17.694262      5541.4806    
       148   0             -2181.3113      632.09985      607.12653      658.963        630.21001      109.6267       156.31123     -6.3671794      17.69802       17.695738      17.694262      5541.4806    
       149   0             -2181.3113      632.09985      607.12653      658.963        630.21001      109.6267       156.31123     -6.3671792      17.69802       17.695738      17.694262      5541.4806    
       150   0             -2181.3113      632.09985      607.12653      658.963        630.21001      109.6267       156.31123     -6.3671794      17.69802       17.695738      17.694262      5541.4806    
       151   0             -2181.3113      632.09985      607.12653      658.963        630.21001      109.6267       156.31123     -6.3671794      17.69802       17.695738      17.694262      5541.4806    
       152   0             -2181.3113      632.09985      607.12653      658.963        630.21001      109.6267       156.31123     -6.3671794      17.69802       17.695738      17.694262      5541.4806    
       153   0             -2181.3113      632.09985      607.12653      658.963        630.21001      109.6267       156.31123     -6.3671794      17.69802       17.695738      17.694262      5541.4806    
       154   0             -2181.3113      632.09985      607.12653      658.963        630.21001      109.6267       156.31123     -6.3671794      17.69802       17.695738      17.694262      5541.4806    
       155   0             -2181.3113      632.09985      607.12653      658.963        630.21001      109.6267       156.31123     -6.3671794      17.69802       17.695738      17.694262      5541.4806    
       156   0             -2181.3113      632.09985      607.12653      658.963        630.21001      109.6267       156.31123     -6.3671794      17.69802       17.695738      17.694262      5541.4806    
       157   0             -2181.3113      632.09985      607.12653      658.963        630.21001      109.6267       156.31123     -6.3671794      17.69802       17.695738      17.694262      5541.4806    
       158   0             -2181.3113      632.09985      607.12653      658.963        630.21001      109.6267       156.31123     -6.3671794      17.69802       17.695738      17.694262      5541.4806    
       159   0             -2181.3113      632.09985      607.12653      658.963        630.21001      109.6267       156.31123     -6.3671794      17.69802       17.695738      17.694262      5541.4806    
Loop time of 0.138656 on 1 procs for 59 steps with 500 atoms

101.4% CPU use with 1 MPI tasks x 1 OpenMP threads

Minimization stats:
  Stopping criterion = force tolerance
  Energy initial, next-to-last, final = 
     -2181.12169189696   -2181.3112860297   -2181.3112860297
  Force two-norm initial, final = 1.807106 6.337872e-11
  Force max component initial, final = 0.15131213 5.6002147e-12
  Final line search alpha, max atom move = 1 5.6002147e-12
  Iterations, force evaluations = 59 117

MPI task timing breakdown:
Section |  min time  |  avg time  |  max time  |%varavg| %total
---------------------------------------------------------------
Pair    | 0.13611    | 0.13611    | 0.13611    |   0.0 | 98.16
Neigh   | 0          | 0          | 0          |   0.0 |  0.00
Comm    | 0.000677   | 0.000677   | 0.000677   |   0.0 |  0.49
Output  | 0.000915   | 0.000915   | 0.000915   |   0.0 |  0.66
Modify  | 0          | 0          | 0          |   0.0 |  0.00
Other   |            | 0.000958   |            |       |  0.69

Nlocal:            500 ave         500 max         500 min
Histogram: 1 0 0 0 0 0 0 0 0 0
Nghost:           1956 ave        1956 max        1956 min
Histogram: 1 0 0 0 0 0 0 0 0 0
Neighs:          33500 ave       33500 max       33500 min
Histogram: 1 0 0 0 0 0 0 0 0 0

Total # of neighbors = 33500
Ave neighs/atom = 67
Neighbor list builds = 0
Dangerous builds = 0
=========================================
Components of the Elastic Constant Tensor
=========================================
Elastic Constant C11all = 245.146276313048 GPa
Elastic Constant C22all = 244.877254612598 GPa
Elastic Constant C33all = 245.238978486799 GPa
Elastic Constant C12all = 154.284820610897 GPa
Elastic Constant C13all = 154.115774989525 GPa
Elastic Constant C23all = 153.994010431503 GPa
Elastic Constant C44all = 116.75018172754 GPa
Elastic Constant C55all = 116.84735052105 GPa
Elastic Constant C66all = 116.76330239475 GPa
Elastic Constant C14all = 0.124362538178048 GPa
Elastic Constant C15all = 0.103571674178056 GPa
Elastic Constant C16all = -0.135938137652488 GPa
Elastic Constant C24all = 0.237239119190235 GPa
Elastic Constant C25all = -0.155672867900648 GPa
Elastic Constant C26all = -0.32643005509874 GPa
Elastic Constant C34all = 0.261574843123071 GPa
Elastic Constant C35all = 0.0788450608997664 GPa
Elastic Constant C36all = -0.242038172223261 GPa
Elastic Constant C45all = 0.0630169111623218 GPa
Elastic Constant C46all = -0.227210361002676 GPa
Elastic Constant C56all = -0.00166560552486317 GPa
=========================================
Average properties for a cubic crystal
=========================================
Bulk Modulus = 184.450191275144 GPa
Shear Modulus 1 = 116.786944881113 GPa
Shear Modulus 2 = 45.4779838967535 GPa
Poisson Ratio = 0.386082627547669
Total wall time: 0:00:02
