LAMMPS (2 Aug 2023 - Update 3)
OMP_NUM_THREADS environment is not set. Defaulting to 1 thread. (src/comm.cpp:98)
  using 1 OpenMP thread(s) per MPI task
Loaded 1 plugins from F:\Lammps\LAMMPS 64-bit 2Aug2023\plugins
Reading data file ...
  orthogonal box = (0 0 0) to (17.79 17.79 17.79)
  1 by 1 by 1 MPI processor grid
  reading atoms ...
  500 atoms
  read_data CPU = 0.001 seconds
Changing box ...
  triclinic box = (0 0 0) to (17.79 17.79 17.79) with tilt (0 0 0)
Neighbor list info ...
  update: every = 1 steps, delay = 0 steps, check = yes
  max neighbors/atom: 2000, page size: 100000
  master list distance cutoff = 6.80375
  ghost atom cutoff = 6.80375
  1 neighbor lists, perpetual/occasional/extra = 1 0 0
  (1) pair eam/alloy, perpetual
      attributes: half, newton on
      pair build: half/nsq/newton
      stencil: none
      bin: none
Setting up cg style minimization ...
  Unit style    : metal
  Current step  : 0
WARNING: Energy due to 3 extra global DOFs will be included in minimizer energies
 (src/min.cpp:228)
Per MPI rank memory allocation (min/avg/max) = 4.492 | 4.492 | 4.492 Mbytes
   Step          Temp          PotEng         Press           Pxx            Pyy            Pzz            Pxy            Pxz            Pyz             Lx             Ly             Lz           Volume    
         0   0             -2179.7749     -32624.765     -32578.196     -32514.808     -32781.291      32.785301     -32.962641     -105.69491      17.79          17.79          17.79          5630.2521    
         1   0             -2179.8088     -32081.988     -32034.98      -31972.471     -32238.513      32.624258     -33.151472     -105.3223       17.788232      17.788235      17.788221      5628.5713    
         2   0             -2179.8422     -31538.81      -31491.37      -31429.738     -31695.321      32.467185     -33.338593     -104.9463       17.786464      17.786471      17.786442      5626.8909    
         3   0             -2179.875      -30995.228     -30947.364     -30886.607     -31151.713      32.313359     -33.524161     -104.56727      17.784697      17.784707      17.784663      5625.211     
         4   0             -2179.9072     -30451.262     -30402.982     -30343.097     -30607.707      32.162297     -33.708567     -104.18487      17.782929      17.782943      17.782884      5623.5316    
         5   0             -2179.9388     -29906.997     -29858.307     -29799.294     -30063.389      32.012462     -33.891452     -103.79783      17.781162      17.78118       17.781105      5621.8527    
         6   0             -2179.9699     -29362.482     -29313.391     -29255.248     -29518.806      31.865666     -34.071634     -103.4056       17.779395      17.779416      17.779326      5620.1742    
         7   0             -2180.0003     -28817.722     -28768.239     -28710.966     -28973.962      31.722235     -34.248679     -103.00813      17.777629      17.777653      17.777547      5618.4963    
         8   0             -2180.0302     -28272.672     -28222.805     -28166.401     -28428.809      31.583062     -34.422665     -102.60546      17.775862      17.77589       17.775768      5616.8188    
         9   0             -2180.0596     -27727.273     -27677.028     -27621.496     -27883.295      31.447073     -34.593842     -102.1995       17.774096      17.774128      17.773989      5615.1419    
        10   0             -2180.0883     -27181.499     -27130.881     -27076.221     -27337.394      31.312873     -34.762692     -101.7902       17.772331      17.772365      17.77221       5613.4654    
        11   0             -2180.1165     -26635.374     -26584.391     -26530.599     -26791.133      31.17977      -34.928946     -101.37712      17.770565      17.770603      17.770431      5611.7895    
        12   0             -2180.144      -26088.949     -26037.611     -25984.685     -26244.551      31.047096     -35.093125     -100.96051      17.7688        17.768842      17.768652      5610.1141    
        13   0             -2180.171      -25542.251     -25490.57      -25438.508     -25697.676      30.915722     -35.254376     -100.53986      17.767035      17.76708       17.766873      5608.4392    
        14   0             -2180.1975     -24995.32      -24943.306     -24892.112     -25150.542      30.786156     -35.413148     -100.1161       17.76527       17.765319      17.765094      5606.7649    
        15   0             -2180.2233     -24448.12      -24395.781     -24345.461     -24603.118      30.658603     -35.56842      -99.688931      17.763506      17.763559      17.763315      5605.0911    
        16   0             -2180.2485     -23900.611     -23847.952     -23798.512     -24055.37       30.532062     -35.72014      -99.25729       17.761742      17.761798      17.761536      5603.4178    
        17   0             -2180.2732     -23352.777     -23299.803     -23251.248     -23507.28       30.406446     -35.869468     -98.820887      17.759978      17.760038      17.759757      5601.7451    
        18   0             -2180.2973     -22804.603     -22751.318     -22703.651     -22958.84       30.281752     -36.016727     -98.379195      17.758215      17.758279      17.757978      5600.073     
        19   0             -2180.3208     -22256.169     -22202.584     -22155.8       -22410.124      30.160434     -36.163132     -97.933977      17.756452      17.75652       17.756199      5598.4015    
        20   0             -2180.3438     -21707.497     -21653.623     -21607.719     -21861.149      30.042914     -36.308488     -97.485632      17.754689      17.754761      17.75442       5596.7305    
        21   0             -2180.3661     -21158.628     -21104.478     -21059.452     -21311.954      29.929865     -36.452387     -97.035175      17.752927      17.753002      17.752641      5595.0601    
        22   0             -2180.3879     -20609.501     -20555.085     -20510.943     -20762.475      29.819054     -36.593976     -96.581985      17.751166      17.751245      17.750862      5593.3904    
        23   0             -2180.4091     -20060.137     -20005.463     -19962.207     -20212.742      29.709689     -36.732427     -96.125683      17.749405      17.749487      17.749083      5591.7213    
        24   0             -2180.4297     -19510.539     -19455.614     -19413.249     -19662.754      29.601509     -36.8677       -95.665904      17.747644      17.74773       17.747304      5590.0528    
        25   0             -2180.4498     -18960.734     -18905.566     -18864.088     -19112.549      29.494757     -37.000481     -95.201675      17.745884      17.745974      17.745525      5588.385     
        26   0             -2180.4692     -18410.763     -18355.366     -18314.777     -18562.147      29.388442     -37.131304     -94.732015      17.744124      17.744218      17.743746      5586.7178    
        27   0             -2180.4881     -17860.588     -17804.974     -17765.279     -18011.512      29.283503     -37.261405     -94.257285      17.742365      17.742463      17.741967      5585.0514    
        28   0             -2180.5064     -17310.219     -17254.402     -17215.605     -17460.65       29.18049      -37.39065      -93.77798       17.740606      17.740708      17.740188      5583.3856    
        29   0             -2180.5241     -16759.668     -16703.659     -16665.763     -16909.582      29.080888     -37.51839      -93.296604      17.738848      17.738954      17.738409      5581.7206    
        30   0             -2180.5413     -16208.962     -16152.773     -16115.783     -16358.329      28.984866     -37.644561     -92.813982      17.737091      17.737201      17.73663       5580.0563    
        31   0             -2180.5578     -15658.134     -15601.778     -15565.697     -15806.926      28.892033     -37.767946     -92.329518      17.735334      17.735448      17.734851      5578.3928    
        32   0             -2180.5738     -15107.173     -15050.665     -15015.5       -15255.353      28.800726     -37.888853     -91.84177       17.733578      17.733696      17.733072      5576.7301    
        33   0             -2180.5892     -14556.049     -14499.408     -14465.157     -14703.583      28.71295      -38.008189     -91.348973      17.731823      17.731946      17.731293      5575.0683    
        34   0             -2180.604      -14004.777     -13948.019     -13914.68      -14151.632      28.628772     -38.125639     -90.850895      17.730069      17.730195      17.729514      5573.4073    
        35   0             -2180.6183     -13453.369     -13396.512     -13364.084     -13599.512      28.548696     -38.241656     -90.348019      17.728316      17.728446      17.727735      5571.7472    
        36   0             -2180.6319     -12901.902     -12844.96      -12813.443     -13047.304      28.471676     -38.355519     -89.841111      17.726563      17.726698      17.725956      5570.0881    
        37   0             -2180.645      -12350.434     -12293.424     -12262.826     -12495.053      28.396057     -38.465974     -89.331043      17.724812      17.724951      17.724177      5568.43      
        38   0             -2180.6575     -11798.989     -11741.93      -11712.257     -11942.78       28.322008     -38.573072     -88.817965      17.723062      17.723205      17.722398      5566.7729    
        39   0             -2180.6695     -11247.56      -11190.48      -11161.74      -11390.461      28.250789     -38.677004     -88.30269       17.721313      17.721461      17.720619      5565.117     
        40   0             -2180.6808     -10696.105     -10639.029     -10611.228     -10838.058      28.182414     -38.778008     -87.784284      17.719565      17.719717      17.71884       5563.4622    
        41   0             -2180.6916     -10144.604     -10087.561     -10060.701     -10285.551      28.117234     -38.878335     -87.26309       17.717819      17.717976      17.717061      5561.8086    
        42   0             -2180.7018     -9593.0967     -9536.1112     -9510.1924     -9732.9864      28.054776     -38.97802      -86.738805      17.716074      17.716236      17.715282      5560.1564    
        43   0             -2180.7114     -9041.6913     -8984.7924     -8959.8118     -9180.4697      27.996503     -39.077367     -86.211776      17.714331      17.714498      17.713503      5558.5057    
        44   0             -2180.7205     -8490.4573     -8433.6803     -8409.6365     -8628.055       27.943895     -39.17563      -85.682625      17.71259       17.712761      17.711724      5556.8566    
        45   0             -2180.7289     -7939.4923     -7882.8764     -7859.7714     -8075.8291      27.896019     -39.271609     -85.150678      17.710851      17.711028      17.709945      5555.2091    
        46   0             -2180.7368     -7388.817      -7332.4105     -7310.2573     -7523.7831      27.850459     -39.364485     -84.614769      17.709115      17.709296      17.708166      5553.5636    
        47   0             -2180.7442     -6838.4735     -6782.3206     -6761.1326     -6971.9674      27.804263     -39.454474     -84.073808      17.707381      17.707568      17.706387      5551.9201    
        48   0             -2180.7509     -6288.5494     -6232.7014     -6212.4899     -6420.4567      27.757276     -39.541079     -83.527992      17.705651      17.705843      17.704608      5550.279     
        49   0             -2180.7571     -5739.1453     -5683.6612     -5664.4353     -5869.3395      27.710462     -39.62489      -82.977872      17.703924      17.704122      17.702829      5548.6406    
        50   0             -2180.7627     -5190.3919     -5135.3499     -5117.1187     -5318.7071      27.667597     -39.706814     -82.425813      17.702201      17.702405      17.70105       5547.0052    
        51   0             -2180.7678     -4642.454      -4587.9418     -4570.7173     -4768.7029      27.628419     -39.787251     -81.871713      17.700484      17.700693      17.699271      5545.3734    
        52   0             -2180.7723     -4095.5749     -4041.6971     -4025.4947     -4219.5328      27.592346     -39.866158     -81.316134      17.698772      17.698988      17.697492      5543.7458    
        53   0             -2180.7762     -3550.0885     -3496.9619     -3481.8005     -3671.503       27.559115     -39.943617     -80.759198      17.697068      17.697291      17.695713      5542.1235    
        54   0             -2180.7796     -3006.4953     -2954.2765     -2940.1751     -3125.0342      27.527267     -40.017089     -80.201505      17.695374      17.695604      17.693934      5540.5076    
        55   0             -2180.7824     -2465.4569     -2414.3553     -2401.3448     -2580.6705      27.495385     -40.085763     -79.643963      17.693692      17.693931      17.692155      5538.9001    
        56   0             -2180.7847     -1927.9703     -1878.2863     -1866.4109     -2039.2136      27.462988     -40.150045     -79.08787       17.692028      17.692276      17.690376      5537.3042    
        57   0             -2180.7864     -1395.7601     -1347.9318     -1337.2714     -1502.077       27.426844     -40.210386     -78.534995      17.69039       17.690647      17.688597      5535.7251    
        58   0             -2180.7877     -872.32212     -827.04867     -817.71943     -972.19824      27.383641     -40.26679      -77.990822      17.688794      17.689064      17.686818      5534.1735    
        59   0             -2180.7885     -366.39771     -325.04658     -317.27397     -456.87259      27.325472     -40.318566     -77.471215      17.68728       17.687568      17.685039      5532.6755    
        60   0             -2180.7891      86.70178       120.07887      125.63052      14.395953      27.211439     -40.352882     -77.039339      17.686015      17.686332      17.68326       5531.3368    
        61   0             -2180.7917     -195.38776     -200.44163     -201.49452     -184.22714      26.593532     -40.197568     -77.709926      17.687669      17.688111      17.682564      5532.1925    
        62   0             -2180.7931      343.95262      337.27915      335.09412      359.48458      26.276586     -40.149398     -77.347066      17.686019      17.686467      17.680785      5530.6061    
        63   0             -2180.7951     -192.43992     -197.94119     -198.93799     -180.44058      25.848591     -39.927349     -78.255376      17.687701      17.688135      17.682564      5532.21      
        64   0             -2180.7976      344.11336      343.699        342.78495      345.85612      25.284739     -39.770428     -78.094578      17.685943      17.686356      17.681084      5530.6409    
        65   0             -2180.7995     -186.88927     -185.65504     -185.38712     -189.62564      24.887768     -39.560205     -78.973584      17.687597      17.687996      17.682863      5532.2276    
        66   0             -2180.8026      381.18246      383.46235      382.93147      377.15358      24.172689     -39.362455     -78.879637      17.685824      17.686217      17.681116      5530.5704    
        67   0             -2180.8045     -173.80333     -172.40219     -172.19245     -176.81534      23.756811     -39.150779     -79.791232      17.687603      17.68799       17.682866      5532.2286    
        68   0             -2180.808       377.51004      377.81834      376.9135       377.79828      22.947501     -38.922508     -79.779223      17.685928      17.686314      17.681087      5530.6242    
        69   0             -2180.8099     -177.53683     -178.14011     -178.28266     -176.18771      22.549002     -38.718407     -80.67681       17.687707      17.688088      17.682835      5532.282     
        70   0             -2180.8136      393.92876      394.07003      393.14452      394.57172      21.678993     -38.465527     -80.690946      17.685936      17.686309      17.681071      5530.6201    
        71   0             -2180.8155     -162.8404      -163.00672     -163.0576      -162.45687      21.271648     -38.257918     -81.596785      17.687709      17.688074      17.68285       5532.2832    
        72   0             -2180.8194      408.41458      409.14706      408.30974      407.78693      20.336929     -37.981302     -81.657998      17.685938      17.686295      17.681096      5530.6243    
        73   0             -2180.8213     -149.59245     -149.30225     -149.29689     -150.17821      19.939746     -37.779134     -82.55575       17.687717      17.688067      17.682873      5532.2906    
        74   0             -2180.8255      421.70446      422.24368      421.34654      421.52315      18.926233     -37.475957     -82.67188       17.685963      17.686305      17.681094      5530.6343    
        75   0             -2180.8273     -135.84707     -135.86459     -135.93666     -135.73997      18.543937     -37.281173     -83.556321      17.687742      17.688078      17.682863      5532.2986    
        76   0             -2180.8318      439.92475      440.43668      439.51905      439.81851      17.432021     -36.942526     -83.73861       17.685971      17.686299      17.681086      5530.6325    
        77   0             -2180.8336     -118.35955     -118.32396     -118.39938     -118.3553       17.063867     -36.754497     -84.611977      17.68775       17.688071      17.68286       5532.2984    
        78   0             -2180.8386      458.72576      459.32421      458.39633      458.45675      15.815148     -36.367135     -84.890453      17.685981      17.686292      17.681085      5530.6332    
        79   0             -2180.8402     -99.808127     -99.697074     -99.78656      -99.940747      15.466666     -36.18823      -85.748074      17.68776       17.688065      17.682859      5532.2991    
        80   0             -2180.846       478.59465      479.13047      478.16926      478.48423      14.023326     -35.732428     -86.163204      17.685998      17.686291      17.68108       5530.6368    
        81   0             -2180.8476     -80.260787     -80.217216     -80.340046     -80.2251        13.696819     -35.563629     -87.003564      17.687777      17.688064      17.682854      5532.3026    
        82   0             -2180.8544      501.85216      502.50297      501.53335      501.52016      11.95056      -35.001249     -87.630019      17.686013      17.686285      17.681081      5530.6399    
        83   0             -2180.8559     -57.401335     -57.237535     -57.36778      -57.598688      11.646659     -34.843011     -88.452507      17.687792      17.688059      17.682856      5532.306     
        84   0             -2180.8649      528.16271      528.56787      527.52595      528.3943       9.3169251     -34.078298     -89.48776       17.686048      17.686297      17.681077      5530.6531    
        85   0             -2180.8662     -31.618158     -31.683484     -31.8822       -31.28879       9.0396554     -33.932456     -90.289706      17.687827      17.68807       17.682853      5532.3197    
        86   0             -2180.8813      565.20996      567.02999      566.19675      562.40314      5.0596781     -32.593462     -92.481582      17.686086      17.686291      17.681163      5530.6902    
        87   0             -2180.8826      5.8666175      7.0637496      7.0445542      3.4915488      4.8134598     -32.463538     -93.258209      17.687865      17.688066      17.68293       5532.3543    
        88   0             -2180.904      -395.06254     -408.11586     -409.98144     -367.09032     -1.023955      -30.460706     -97.778159      17.689644      17.68984       17.683809      5533.7409    
        89   0             -2180.9049      152.22605      142.32509      140.13529      174.21776     -1.2514789     -30.420478     -97.352223      17.687873      17.688061      17.682203      5532.128     
        90   0             -2180.908      -173.35887     -166.31298     -164.91915     -188.84449     -2.0904228     -30.072351     -98.319558      17.688604      17.688725      17.683982      5533.1211    
        91   0             -2180.9092      377.01062      383.19595      383.5056       364.3303      -2.4916813     -29.981049     -98.003702      17.686909      17.687034      17.682203      5531.5053    
        92   0             -2180.9115     -150.19085     -148.71869     -148.42518     -153.42868     -3.0858036     -29.752286     -98.976998      17.68868       17.688813      17.683707      5533.0859    
        93   0             -2180.9138      375.79674      374.29895      373.20675      379.88451     -3.7857267     -29.563117     -98.890384      17.687114      17.687256      17.681928      5531.5524    
        94   0             -2180.9157     -174.42442     -177.52941     -177.98956     -167.7543      -4.2726407     -29.363058     -99.818648      17.688893      17.689032      17.683632      5533.1976    
        95   0             -2180.9189      385.52507      384.93485      384.04919      387.59117     -5.259535      -29.06762      -99.90264       17.687126      17.687253      17.681985      5531.5734    
        96   0             -2180.9209     -156.8934      -156.74262     -156.59493     -157.34264     -5.7750364     -28.855317     -100.8449       17.688836      17.688952      17.683764      5533.1965    
        97   0             -2180.9247      411.80839      413.59551      413.07635      408.7533      -6.9443039     -28.50141      -101.04216      17.687066      17.687173      17.682058      5531.5524    
        98   0             -2180.9267     -145.04695     -143.70703     -143.40345     -148.03039     -7.4761446     -28.287919     -102.00701      17.688845      17.688946      17.683833      5533.2186    
        99   0             -2180.9309      407.89891      407.83036      406.97553      408.89083     -8.7866174     -27.892976     -102.31145      17.687188      17.68729       17.682054      5531.6258    
       100   0             -2180.9328     -146.3627      -147.36793     -147.47455     -144.24561     -9.2916282     -27.692302     -103.25166      17.688967      17.689064      17.683799      5533.2833    
Loop time of 0.118244 on 1 procs for 100 steps with 500 atoms

92.5% CPU use with 1 MPI tasks x 1 OpenMP threads

Minimization stats:
  Stopping criterion = max iterations
  Energy initial, next-to-last, final = 
     -2179.77485034346   -2180.9309052587  -2180.93283817068
  Force two-norm initial, final = 198.6025 2.2619369
  Force max component initial, final = 115.19763 0.51222496
  Final line search alpha, max atom move = 9.2089477e-05 4.7170528e-05
  Iterations, force evaluations = 100 100

MPI task timing breakdown:
Section |  min time  |  avg time  |  max time  |%varavg| %total
---------------------------------------------------------------
Pair    | 0.11017    | 0.11017    | 0.11017    |   0.0 | 93.17
Neigh   | 0          | 0          | 0          |   0.0 |  0.00
Comm    | 0.000623   | 0.000623   | 0.000623   |   0.0 |  0.53
Output  | 0.001412   | 0.001412   | 0.001412   |   0.0 |  1.19
Modify  | 0          | 0          | 0          |   0.0 |  0.00
Other   |            | 0.006036   |            |       |  5.10

Nlocal:            500 ave         500 max         500 min
Histogram: 1 0 0 0 0 0 0 0 0 0
Nghost:           1956 ave        1956 max        1956 min
Histogram: 1 0 0 0 0 0 0 0 0 0
Neighs:          33500 ave       33500 max       33500 min
Histogram: 1 0 0 0 0 0 0 0 0 0

Total # of neighbors = 33500
Ave neighs/atom = 67
Neighbor list builds = 0
Dangerous builds = 0
Displacing atoms ...
System init for write_restart ...
OMP_NUM_THREADS environment is not set. Defaulting to 1 thread. (src/comm.cpp:98)
  using 1 OpenMP thread(s) per MPI task
Loaded 1 plugins from F:\Lammps\LAMMPS 64-bit 2Aug2023\plugins

The 'box' command has been removed and will be ignored

Reading restart file ...
  restart file = 2 Aug 2023, LAMMPS = 2 Aug 2023
  restoring atom style atomic from restart
  triclinic box = (0.050516316 0.050468137 0.053100254) to (17.739484 17.739532 17.7369) with tilt (0 0 0)
  1 by 1 by 1 MPI processor grid
  pair style eam/alloy stores no restart info
  500 atoms
  read_restart CPU = 0.000 seconds
Changing box ...
  triclinic box = (0.050516316 0.050468137 0.053100254) to (17.739466 17.739532 17.7369) with tilt (0 0 0)
  triclinic box = (0.050516316 0.050468137 0.053100254) to (17.739466 17.739532 17.7369) with tilt (0 0 0)
  triclinic box = (0.050516316 0.050468137 0.053100254) to (17.739466 17.739532 17.7369) with tilt (0 0 0)
Neighbor list info ...
  update: every = 1 steps, delay = 0 steps, check = yes
  max neighbors/atom: 2000, page size: 100000
  master list distance cutoff = 6.80375
  ghost atom cutoff = 6.80375
  1 neighbor lists, perpetual/occasional/extra = 1 0 0
  (1) pair eam/alloy, perpetual
      attributes: half, newton on
      pair build: half/nsq/newton
      stencil: none
      bin: none
Setting up cg style minimization ...
  Unit style    : metal
  Current step  : 100
Per MPI rank memory allocation (min/avg/max) = 4.482 | 4.482 | 4.482 Mbytes
   Step          Temp          PotEng         Press           Pxx            Pyy            Pzz            Pxy            Pxz            Pyz             Lx             Ly             Lz           Volume    
       100   0             -2180.9328     -144.46737     -144.86726     -145.9008      -142.63405     -9.2756521     -27.612226     -103.2705       17.68895       17.689064      17.683799      5533.2778    
       101   0             -2181.1061      748.35704      762.24093      739.46591      743.36429     -87.918523     -2.1482902     -157.80149      17.68895       17.689064      17.683799      5533.2778    
       102   0             -2181.1668      1144.4715      1127.1343      1161.1164      1145.1638     -145.36602      6.2527463     -185.76012      17.68895       17.689064      17.683799      5533.2778    
       103   0             -2181.1846      1135.9158      1060.617       1192.7999      1154.3305     -163.2611       4.971506      -189.75145      17.68895       17.689064      17.683799      5533.2778    
       104   0             -2181.1888      1163.1306      1078.1363      1229.3937      1181.8616     -168.92656      16.178224     -188.87789      17.68895       17.689064      17.683799      5533.2778    
       105   0             -2181.1903      1239.8648      1154.4795      1306.9921      1258.1227     -170.09032      19.059127     -197.33466      17.68895       17.689064      17.683799      5533.2778    
       106   0             -2181.191       1185.3562      1100.9716      1254.3189      1200.778      -161.72682      14.73362      -191.79499      17.68895       17.689064      17.683799      5533.2778    
       107   0             -2181.1911      1174.6591      1090.4521      1243.4677      1190.0573     -159.29969      15.804369     -192.71449      17.68895       17.689064      17.683799      5533.2778    
       108   0             -2181.1912      1185.4812      1102.5039      1253.8161      1200.1236     -160.27397      16.433475     -193.3867       17.68895       17.689064      17.683799      5533.2778    
       109   0             -2181.1912      1185.9491      1102.7712      1254.36        1200.716      -160.53718      15.352271     -193.13937      17.68895       17.689064      17.683799      5533.2778    
       110   0             -2181.1912      1182.4097      1099.3178      1250.536       1197.3755     -161.0214       15.626422     -193.21547      17.68895       17.689064      17.683799      5533.2778    
       111   0             -2181.1912      1182.613       1099.6566      1250.2023      1197.98       -160.98762      16.118516     -193.62791      17.68895       17.689064      17.683799      5533.2778    
       112   0             -2181.1912      1183.2095      1100.7101      1250.0576      1198.8606     -160.82425      16.044953     -193.77344      17.68895       17.689064      17.683799      5533.2778    
       113   0             -2181.1913      1183.8908      1101.6134      1250.6368      1199.4224     -160.8826       15.933141     -193.79258      17.68895       17.689064      17.683799      5533.2778    
       114   0             -2181.1913      1184.1959      1101.9732      1251.1135      1199.5009     -160.81241      15.935633     -193.84056      17.68895       17.689064      17.683799      5533.2778    
       115   0             -2181.1913      1183.4937      1101.0472      1250.5005      1198.9333     -160.7637       15.885524     -193.84029      17.68895       17.689064      17.683799      5533.2778    
       116   0             -2181.1913      1183.4306      1100.8946      1250.4653      1198.932      -160.73252      15.887516     -193.78972      17.68895       17.689064      17.683799      5533.2778    
       117   0             -2181.1913      1183.6643      1101.1154      1250.7257      1199.152      -160.6711       15.852898     -193.77604      17.68895       17.689064      17.683799      5533.2778    
       118   0             -2181.1913      1183.6699      1101.1216      1250.7633      1199.1248     -160.67257      15.84126      -193.78892      17.68895       17.689064      17.683799      5533.2778    
       119   0             -2181.1913      1183.6373      1101.0935      1250.7426      1199.0759     -160.66109      15.847604     -193.76934      17.68895       17.689064      17.683799      5533.2778    
       120   0             -2181.1913      1183.6199      1101.086       1250.7144      1199.0593     -160.67477      15.84643      -193.74608      17.68895       17.689064      17.683799      5533.2778    
       121   0             -2181.1913      1183.621       1101.0819      1250.7016      1199.0796     -160.68752      15.842345     -193.74466      17.68895       17.689064      17.683799      5533.2778    
       122   0             -2181.1913      1183.6368      1101.0929      1250.7157      1199.1018     -160.69587      15.848038     -193.75088      17.68895       17.689064      17.683799      5533.2778    
       123   0             -2181.1913      1183.6385      1101.094       1250.7171      1199.1044     -160.69637      15.848547     -193.75004      17.68895       17.689064      17.683799      5533.2778    
       124   0             -2181.1913      1183.622       1101.08        1250.6988      1199.087      -160.6955       15.85087      -193.74416      17.68895       17.689064      17.683799      5533.2778    
       125   0             -2181.1913      1183.6185      1101.079       1250.694       1199.0824     -160.69416      15.849723     -193.74586      17.68895       17.689064      17.683799      5533.2778    
       126   0             -2181.1913      1183.6224      1101.0848      1250.697       1199.0853     -160.69405      15.849406     -193.7478       17.68895       17.689064      17.683799      5533.2778    
       127   0             -2181.1913      1183.6243      1101.0864      1250.6992      1199.0873     -160.69359      15.850047     -193.74687      17.68895       17.689064      17.683799      5533.2778    
       128   0             -2181.1913      1183.6249      1101.0875      1250.7001      1199.0871     -160.69382      15.849812     -193.74721      17.68895       17.689064      17.683799      5533.2778    
       129   0             -2181.1913      1183.6239      1101.0868      1250.6992      1199.0857     -160.69418      15.849642     -193.74721      17.68895       17.689064      17.683799      5533.2778    
       130   0             -2181.1913      1183.6234      1101.0865      1250.6983      1199.0854     -160.69396      15.849348     -193.74734      17.68895       17.689064      17.683799      5533.2778    
       131   0             -2181.1913      1183.6239      1101.0871      1250.6987      1199.086      -160.69404      15.849388     -193.74707      17.68895       17.689064      17.683799      5533.2778    
       132   0             -2181.1913      1183.624       1101.087       1250.6987      1199.0863     -160.69413      15.849506     -193.74723      17.68895       17.689064      17.683799      5533.2778    
       133   0             -2181.1913      1183.6235      1101.0864      1250.6984      1199.0857     -160.69415      15.849666     -193.7472       17.68895       17.689064      17.683799      5533.2778    
       134   0             -2181.1913      1183.6234      1101.0863      1250.6984      1199.0855     -160.69409      15.849472     -193.74706      17.68895       17.689064      17.683799      5533.2778    
       135   0             -2181.1913      1183.6234      1101.0864      1250.6984      1199.0855     -160.69409      15.849379     -193.7471       17.68895       17.689064      17.683799      5533.2778    
       136   0             -2181.1913      1183.6235      1101.0865      1250.6985      1199.0855     -160.69409      15.849384     -193.74709      17.68895       17.689064      17.683799      5533.2778    
       137   0             -2181.1913      1183.6235      1101.0865      1250.6985      1199.0855     -160.69407      15.849407     -193.74709      17.68895       17.689064      17.683799      5533.2778    
       138   0             -2181.1913      1183.6235      1101.0864      1250.6984      1199.0855     -160.69407      15.849427     -193.74708      17.68895       17.689064      17.683799      5533.2778    
       139   0             -2181.1913      1183.6234      1101.0864      1250.6984      1199.0855     -160.69408      15.849429     -193.74708      17.68895       17.689064      17.683799      5533.2778    
       140   0             -2181.1913      1183.6235      1101.0864      1250.6985      1199.0855     -160.69408      15.849428     -193.74708      17.68895       17.689064      17.683799      5533.2778    
       141   0             -2181.1913      1183.6235      1101.0864      1250.6985      1199.0855     -160.69408      15.849426     -193.74709      17.68895       17.689064      17.683799      5533.2778    
       142   0             -2181.1913      1183.6235      1101.0864      1250.6985      1199.0855     -160.69408      15.849425     -193.74709      17.68895       17.689064      17.683799      5533.2778    
       143   0             -2181.1913      1183.6235      1101.0864      1250.6985      1199.0855     -160.69408      15.849427     -193.74709      17.68895       17.689064      17.683799      5533.2778    
       144   0             -2181.1913      1183.6235      1101.0864      1250.6985      1199.0855     -160.69408      15.849428     -193.74709      17.68895       17.689064      17.683799      5533.2778    
       145   0             -2181.1913      1183.6235      1101.0864      1250.6985      1199.0855     -160.69408      15.849427     -193.74709      17.68895       17.689064      17.683799      5533.2778    
       146   0             -2181.1913      1183.6235      1101.0864      1250.6985      1199.0855     -160.69408      15.849427     -193.74709      17.68895       17.689064      17.683799      5533.2778    
       147   0             -2181.1913      1183.6235      1101.0864      1250.6985      1199.0855     -160.69408      15.849428     -193.74709      17.68895       17.689064      17.683799      5533.2778    
       148   0             -2181.1913      1183.6235      1101.0864      1250.6985      1199.0855     -160.69408      15.849428     -193.74709      17.68895       17.689064      17.683799      5533.2778    
       149   0             -2181.1913      1183.6235      1101.0864      1250.6985      1199.0855     -160.69408      15.849427     -193.74709      17.68895       17.689064      17.683799      5533.2778    
       150   0             -2181.1913      1183.6235      1101.0864      1250.6985      1199.0855     -160.69408      15.849428     -193.74709      17.68895       17.689064      17.683799      5533.2778    
       151   0             -2181.1913      1183.6235      1101.0864      1250.6985      1199.0855     -160.69408      15.849428     -193.74709      17.68895       17.689064      17.683799      5533.2778    
       152   0             -2181.1913      1183.6235      1101.0864      1250.6985      1199.0855     -160.69408      15.849428     -193.74709      17.68895       17.689064      17.683799      5533.2778    
       153   0             -2181.1913      1183.6235      1101.0864      1250.6985      1199.0855     -160.69408      15.849428     -193.74709      17.68895       17.689064      17.683799      5533.2778    
       154   0             -2181.1913      1183.6235      1101.0864      1250.6985      1199.0855     -160.69408      15.849428     -193.74709      17.68895       17.689064      17.683799      5533.2778    
       155   0             -2181.1913      1183.6235      1101.0864      1250.6985      1199.0855     -160.69408      15.849428     -193.74709      17.68895       17.689064      17.683799      5533.2778    
       156   0             -2181.1913      1183.6235      1101.0864      1250.6985      1199.0855     -160.69408      15.849428     -193.74709      17.68895       17.689064      17.683799      5533.2778    
       157   0             -2181.1913      1183.6235      1101.0864      1250.6985      1199.0855     -160.69408      15.849428     -193.74709      17.68895       17.689064      17.683799      5533.2778    
       158   0             -2181.1913      1183.6235      1101.0864      1250.6985      1199.0855     -160.69408      15.849428     -193.74709      17.68895       17.689064      17.683799      5533.2778    
       159   0             -2181.1913      1183.6235      1101.0864      1250.6985      1199.0855     -160.69408      15.849428     -193.74709      17.68895       17.689064      17.683799      5533.2778    
Loop time of 0.139835 on 1 procs for 59 steps with 500 atoms

100.6% CPU use with 1 MPI tasks x 1 OpenMP threads

Minimization stats:
  Stopping criterion = force tolerance
  Energy initial, next-to-last, final = 
     -2180.93284089015  -2181.19125558761  -2181.19125558761
  Force two-norm initial, final = 2.0834781 9.9165268e-11
  Force max component initial, final = 0.17292797 1.0927828e-11
  Final line search alpha, max atom move = 1 1.0927828e-11
  Iterations, force evaluations = 59 116

MPI task timing breakdown:
Section |  min time  |  avg time  |  max time  |%varavg| %total
---------------------------------------------------------------
Pair    | 0.1372     | 0.1372     | 0.1372     |   0.0 | 98.12
Neigh   | 0          | 0          | 0          |   0.0 |  0.00
Comm    | 0.000743   | 0.000743   | 0.000743   |   0.0 |  0.53
Output  | 0.000936   | 0.000936   | 0.000936   |   0.0 |  0.67
Modify  | 0          | 0          | 0          |   0.0 |  0.00
Other   |            | 0.000953   |            |       |  0.68

Nlocal:            500 ave         500 max         500 min
Histogram: 1 0 0 0 0 0 0 0 0 0
Nghost:           1956 ave        1956 max        1956 min
Histogram: 1 0 0 0 0 0 0 0 0 0
Neighs:          33500 ave       33500 max       33500 min
Histogram: 1 0 0 0 0 0 0 0 0 0

Total # of neighbors = 33500
Ave neighs/atom = 67
Neighbor list builds = 0
Dangerous builds = 0
OMP_NUM_THREADS environment is not set. Defaulting to 1 thread. (src/comm.cpp:98)
  using 1 OpenMP thread(s) per MPI task
Loaded 1 plugins from F:\Lammps\LAMMPS 64-bit 2Aug2023\plugins

The 'box' command has been removed and will be ignored

Reading restart file ...
  restart file = 2 Aug 2023, LAMMPS = 2 Aug 2023
  restoring atom style atomic from restart
  triclinic box = (0.050516316 0.050468137 0.053100254) to (17.739484 17.739532 17.7369) with tilt (0 0 0)
  1 by 1 by 1 MPI processor grid
  pair style eam/alloy stores no restart info
  500 atoms
  read_restart CPU = 0.000 seconds
Changing box ...
  triclinic box = (0.050516316 0.050468137 0.053100254) to (17.739501 17.739532 17.7369) with tilt (0 0 0)
  triclinic box = (0.050516316 0.050468137 0.053100254) to (17.739501 17.739532 17.7369) with tilt (0 0 0)
  triclinic box = (0.050516316 0.050468137 0.053100254) to (17.739501 17.739532 17.7369) with tilt (0 0 0)
Neighbor list info ...
  update: every = 1 steps, delay = 0 steps, check = yes
  max neighbors/atom: 2000, page size: 100000
  master list distance cutoff = 6.80375
  ghost atom cutoff = 6.80375
  1 neighbor lists, perpetual/occasional/extra = 1 0 0
  (1) pair eam/alloy, perpetual
      attributes: half, newton on
      pair build: half/nsq/newton
      stencil: none
      bin: none
Setting up cg style minimization ...
  Unit style    : metal
  Current step  : 100
Per MPI rank memory allocation (min/avg/max) = 4.482 | 4.482 | 4.482 Mbytes
   Step          Temp          PotEng         Press           Pxx            Pyy            Pzz            Pxy            Pxz            Pyz             Lx             Ly             Lz           Volume    
       100   0             -2180.9328     -148.21024     -149.83633     -149.03004     -145.76434     -9.2760195     -27.613155     -103.27271      17.688985      17.689064      17.683799      5533.2889    
       101   0             -2181.1061      744.63471      757.30147      736.35148      740.25117     -87.916894     -2.1519507     -157.8026       17.688985      17.689064      17.683799      5533.2889    
       102   0             -2181.1668      1140.7952      1122.2438      1158.046       1142.0957     -145.36451      6.2500777     -185.76364      17.688985      17.689064      17.683799      5533.2889    
       103   0             -2181.1846      1132.2162      1055.6979      1189.7092      1151.2414     -163.26053      4.9681136     -189.75331      17.688985      17.689064      17.683799      5533.2889    
       104   0             -2181.1888      1159.4629      1073.252       1226.3333      1178.8035     -168.92729      16.175887     -188.88209      17.688985      17.689064      17.683799      5533.2889    
       105   0             -2181.1903      1236.1889      1149.5864      1303.9237      1255.0567     -170.08947      19.056525     -197.33826      17.688985      17.689064      17.683799      5533.2889    
       106   0             -2181.191       1181.6687      1096.0669      1251.2388      1197.7002     -161.7259       14.731006     -191.79809      17.688985      17.689064      17.683799      5533.2889    
       107   0             -2181.1911      1170.9796      1085.556       1240.3955      1186.9873     -159.29935      15.80187      -192.7183       17.688985      17.689064      17.683799      5533.2889    
       108   0             -2181.1912      1181.8022      1097.6083      1250.7443      1197.0539     -160.27357      16.430685     -193.39017      17.688985      17.689064      17.683799      5533.2889    
       109   0             -2181.1912      1182.2688      1097.8744      1251.2869      1197.6452     -160.5368       15.349615     -193.14304      17.688985      17.689064      17.683799      5533.2889    
       110   0             -2181.1912      1178.7303      1094.4221      1247.4637      1194.3052     -161.02108      15.624048     -193.21914      17.688985      17.689064      17.683799      5533.2889    
       111   0             -2181.1912      1178.9332      1094.7606      1247.1296      1194.9093     -160.98718      16.115903     -193.63155      17.688985      17.689064      17.683799      5533.2889    
       112   0             -2181.1913      1179.5295      1095.8141      1246.9847      1195.7897     -160.82389      16.042401     -193.77714      17.688985      17.689064      17.683799      5533.2889    
       113   0             -2181.1913      1180.2119      1096.7184      1247.5648      1196.3523     -160.88226      15.930535     -193.7963       17.688985      17.689064      17.683799      5533.2889    
       114   0             -2181.1913      1180.5162      1097.0776      1248.0409      1196.4302     -160.81204      15.933057     -193.84417      17.688985      17.689064      17.683799      5533.2889    
       115   0             -2181.1913      1179.8139      1096.1515      1247.4277      1195.8625     -160.76331      15.882953     -193.84394      17.688985      17.689064      17.683799      5533.2889    
       116   0             -2181.1913      1179.7511      1095.999       1247.3928      1195.8615     -160.73216      15.884937     -193.79339      17.688985      17.689064      17.683799      5533.2889    
       117   0             -2181.1913      1179.9847      1096.2197      1247.6531      1196.0813     -160.67072      15.850314     -193.7797       17.688985      17.689064      17.683799      5533.2889    
       118   0             -2181.1913      1179.9902      1096.2259      1247.6907      1196.0541     -160.67219      15.838676     -193.79258      17.688985      17.689064      17.683799      5533.2889    
       119   0             -2181.1913      1179.9577      1096.1979      1247.67        1196.0052     -160.66071      15.845022     -193.77299      17.688985      17.689064      17.683799      5533.2889    
       120   0             -2181.1913      1179.9403      1096.1903      1247.6418      1195.9886     -160.67439      15.843845     -193.74973      17.688985      17.689064      17.683799      5533.2889    
       121   0             -2181.1913      1179.9414      1096.1863      1247.629       1196.009      -160.68714      15.839762     -193.74831      17.688985      17.689064      17.683799      5533.2889    
       122   0             -2181.1913      1179.9572      1096.1973      1247.6431      1196.0311     -160.69549      15.845452     -193.75453      17.688985      17.689064      17.683799      5533.2889    
       123   0             -2181.1913      1179.9589      1096.1984      1247.6445      1196.0337     -160.69599      15.845963     -193.7537       17.688985      17.689064      17.683799      5533.2889    
       124   0             -2181.1913      1179.9423      1096.1844      1247.6262      1196.0164     -160.69512      15.848287     -193.74781      17.688985      17.689064      17.683799      5533.2889    
       125   0             -2181.1913      1179.9389      1096.1834      1247.6214      1196.0117     -160.69378      15.847139     -193.74952      17.688985      17.689064      17.683799      5533.2889    
       126   0             -2181.1913      1179.9427      1096.1892      1247.6244      1196.0146     -160.69367      15.846823     -193.75146      17.688985      17.689064      17.683799      5533.2889    
       127   0             -2181.1913      1179.9447      1096.1908      1247.6266      1196.0167     -160.69321      15.847464     -193.75053      17.688985      17.689064      17.683799      5533.2889    
       128   0             -2181.1913      1179.9453      1096.1919      1247.6275      1196.0165     -160.69344      15.847229     -193.75087      17.688985      17.689064      17.683799      5533.2889    
       129   0             -2181.1913      1179.9443      1096.1912      1247.6266      1196.0151     -160.69379      15.847059     -193.75087      17.688985      17.689064      17.683799      5533.2889    
       130   0             -2181.1913      1179.9438      1096.1908      1247.6257      1196.0148     -160.69358      15.846765     -193.751        17.688985      17.689064      17.683799      5533.2889    
       131   0             -2181.1913      1179.9443      1096.1915      1247.6261      1196.0153     -160.69366      15.846805     -193.75072      17.688985      17.689064      17.683799      5533.2889    
       132   0             -2181.1913      1179.9444      1096.1914      1247.6261      1196.0156     -160.69375      15.846923     -193.75088      17.688985      17.689064      17.683799      5533.2889    
       133   0             -2181.1913      1179.9439      1096.1908      1247.6258      1196.0151     -160.69376      15.847083     -193.75085      17.688985      17.689064      17.683799      5533.2889    
       134   0             -2181.1913      1179.9438      1096.1907      1247.6257      1196.0149     -160.69371      15.846888     -193.75071      17.688985      17.689064      17.683799      5533.2889    
       135   0             -2181.1913      1179.9438      1096.1908      1247.6258      1196.0149     -160.69371      15.846796     -193.75075      17.688985      17.689064      17.683799      5533.2889    
       136   0             -2181.1913      1179.9439      1096.1909      1247.6259      1196.0149     -160.6937       15.846801     -193.75074      17.688985      17.689064      17.683799      5533.2889    
       137   0             -2181.1913      1179.9439      1096.1909      1247.6259      1196.0149     -160.69369      15.846824     -193.75074      17.688985      17.689064      17.683799      5533.2889    
       138   0             -2181.1913      1179.9438      1096.1908      1247.6258      1196.0148     -160.69369      15.846844     -193.75073      17.688985      17.689064      17.683799      5533.2889    
       139   0             -2181.1913      1179.9438      1096.1908      1247.6258      1196.0148     -160.6937       15.846846     -193.75074      17.688985      17.689064      17.683799      5533.2889    
       140   0             -2181.1913      1179.9438      1096.1908      1247.6259      1196.0148     -160.6937       15.846845     -193.75074      17.688985      17.689064      17.683799      5533.2889    
       141   0             -2181.1913      1179.9438      1096.1908      1247.6259      1196.0148     -160.6937       15.846843     -193.75074      17.688985      17.689064      17.683799      5533.2889    
       142   0             -2181.1913      1179.9438      1096.1908      1247.6259      1196.0148     -160.69369      15.846841     -193.75074      17.688985      17.689064      17.683799      5533.2889    
       143   0             -2181.1913      1179.9438      1096.1908      1247.6259      1196.0148     -160.6937       15.846844     -193.75074      17.688985      17.689064      17.683799      5533.2889    
       144   0             -2181.1913      1179.9438      1096.1908      1247.6259      1196.0148     -160.6937       15.846845     -193.75074      17.688985      17.689064      17.683799      5533.2889    
       145   0             -2181.1913      1179.9438      1096.1908      1247.6259      1196.0148     -160.6937       15.846844     -193.75074      17.688985      17.689064      17.683799      5533.2889    
       146   0             -2181.1913      1179.9438      1096.1908      1247.6259      1196.0148     -160.6937       15.846844     -193.75074      17.688985      17.689064      17.683799      5533.2889    
       147   0             -2181.1913      1179.9438      1096.1908      1247.6259      1196.0148     -160.69369      15.846845     -193.75074      17.688985      17.689064      17.683799      5533.2889    
       148   0             -2181.1913      1179.9438      1096.1908      1247.6259      1196.0148     -160.69369      15.846844     -193.75074      17.688985      17.689064      17.683799      5533.2889    
       149   0             -2181.1913      1179.9438      1096.1908      1247.6259      1196.0148     -160.69369      15.846844     -193.75074      17.688985      17.689064      17.683799      5533.2889    
       150   0             -2181.1913      1179.9438      1096.1908      1247.6259      1196.0148     -160.69369      15.846844     -193.75074      17.688985      17.689064      17.683799      5533.2889    
       151   0             -2181.1913      1179.9438      1096.1908      1247.6259      1196.0148     -160.69369      15.846844     -193.75074      17.688985      17.689064      17.683799      5533.2889    
       152   0             -2181.1913      1179.9438      1096.1908      1247.6259      1196.0148     -160.69369      15.846844     -193.75074      17.688985      17.689064      17.683799      5533.2889    
       153   0             -2181.1913      1179.9438      1096.1908      1247.6259      1196.0148     -160.69369      15.846844     -193.75074      17.688985      17.689064      17.683799      5533.2889    
       154   0             -2181.1913      1179.9438      1096.1908      1247.6259      1196.0148     -160.69369      15.846844     -193.75074      17.688985      17.689064      17.683799      5533.2889    
       155   0             -2181.1913      1179.9438      1096.1908      1247.6259      1196.0148     -160.69369      15.846844     -193.75074      17.688985      17.689064      17.683799      5533.2889    
       156   0             -2181.1913      1179.9438      1096.1908      1247.6259      1196.0148     -160.69369      15.846844     -193.75074      17.688985      17.689064      17.683799      5533.2889    
       157   0             -2181.1913      1179.9438      1096.1908      1247.6259      1196.0148     -160.69369      15.846844     -193.75074      17.688985      17.689064      17.683799      5533.2889    
       158   0             -2181.1913      1179.9438      1096.1908      1247.6259      1196.0148     -160.69369      15.846844     -193.75074      17.688985      17.689064      17.683799      5533.2889    
       159   0             -2181.1913      1179.9438      1096.1908      1247.6259      1196.0148     -160.69369      15.846844     -193.75074      17.688985      17.689064      17.683799      5533.2889    
Loop time of 0.139232 on 1 procs for 59 steps with 500 atoms

101.0% CPU use with 1 MPI tasks x 1 OpenMP threads

Minimization stats:
  Stopping criterion = force tolerance
  Energy initial, next-to-last, final = 
     -2180.93283987238  -2181.19126317615  -2181.19126317616
  Force two-norm initial, final = 2.0835264 9.9174404e-11
  Force max component initial, final = 0.17293364 1.0933254e-11
  Final line search alpha, max atom move = 1 1.0933254e-11
  Iterations, force evaluations = 59 116

MPI task timing breakdown:
Section |  min time  |  avg time  |  max time  |%varavg| %total
---------------------------------------------------------------
Pair    | 0.13666    | 0.13666    | 0.13666    |   0.0 | 98.16
Neigh   | 0          | 0          | 0          |   0.0 |  0.00
Comm    | 0.000701   | 0.000701   | 0.000701   |   0.0 |  0.50
Output  | 0.000896   | 0.000896   | 0.000896   |   0.0 |  0.64
Modify  | 0          | 0          | 0          |   0.0 |  0.00
Other   |            | 0.000971   |            |       |  0.70

Nlocal:            500 ave         500 max         500 min
Histogram: 1 0 0 0 0 0 0 0 0 0
Nghost:           1956 ave        1956 max        1956 min
Histogram: 1 0 0 0 0 0 0 0 0 0
Neighs:          33500 ave       33500 max       33500 min
Histogram: 1 0 0 0 0 0 0 0 0 0

Total # of neighbors = 33500
Ave neighs/atom = 67
Neighbor list builds = 0
Dangerous builds = 0
OMP_NUM_THREADS environment is not set. Defaulting to 1 thread. (src/comm.cpp:98)
  using 1 OpenMP thread(s) per MPI task
Loaded 1 plugins from F:\Lammps\LAMMPS 64-bit 2Aug2023\plugins

The 'box' command has been removed and will be ignored

Reading restart file ...
  restart file = 2 Aug 2023, LAMMPS = 2 Aug 2023
  restoring atom style atomic from restart
  triclinic box = (0.050516316 0.050468137 0.053100254) to (17.739484 17.739532 17.7369) with tilt (0 0 0)
  1 by 1 by 1 MPI processor grid
  pair style eam/alloy stores no restart info
  500 atoms
  read_restart CPU = 0.000 seconds
Changing box ...
  triclinic box = (0.050516316 0.050468137 0.053100254) to (17.739484 17.739514 17.7369) with tilt (0 0 0)
  triclinic box = (0.050516316 0.050468137 0.053100254) to (17.739484 17.739514 17.7369) with tilt (0 0 0)
Neighbor list info ...
  update: every = 1 steps, delay = 0 steps, check = yes
  max neighbors/atom: 2000, page size: 100000
  master list distance cutoff = 6.80375
  ghost atom cutoff = 6.80375
  1 neighbor lists, perpetual/occasional/extra = 1 0 0
  (1) pair eam/alloy, perpetual
      attributes: half, newton on
      pair build: half/nsq/newton
      stencil: none
      bin: none
Setting up cg style minimization ...
  Unit style    : metal
  Current step  : 100
Per MPI rank memory allocation (min/avg/max) = 4.482 | 4.482 | 4.482 Mbytes
   Step          Temp          PotEng         Press           Pxx            Pyy            Pzz            Pxy            Pxz            Pyz             Lx             Ly             Lz           Volume    
       100   0             -2180.9328     -144.46968     -145.78718     -144.98483     -142.63705     -9.2760358     -27.612761     -103.26921      17.688967      17.689046      17.683799      5533.2778    
       101   0             -2181.1061      748.34882      761.32027      740.37079      743.35541     -87.918057     -2.1495102     -157.80079      17.688967      17.689046      17.683799      5533.2778    
       102   0             -2181.1668      1144.4722      1126.2229      1162.0299      1145.1638     -145.36587      6.2522672     -185.75968      17.688967      17.689046      17.683799      5533.2778    
       103   0             -2181.1846      1135.9108      1059.6987      1193.7081      1154.3256     -163.26103      4.9709983     -189.75076      17.688967      17.689046      17.683799      5533.2778    
       104   0             -2181.1888      1163.1333      1077.2262      1230.3101      1181.8638     -168.92696      16.177902     -188.87735      17.688967      17.689046      17.683799      5533.2778    
       105   0             -2181.1903      1239.8664      1153.5678      1307.9079      1258.1236     -170.09064      19.058395     -197.33453      17.688967      17.689046      17.683799      5533.2778    
       106   0             -2181.191       1185.3552      1100.0577      1255.2315      1200.7762     -161.72721      14.732927     -191.79455      17.688967      17.689046      17.683799      5533.2778    
       107   0             -2181.1911      1174.6598      1089.5401      1244.382       1190.0572     -159.30014      15.803615     -192.71427      17.688967      17.689046      17.683799      5533.2778    
       108   0             -2181.1912      1185.4819      1101.592       1254.7303      1200.1235     -160.27442      16.432782     -193.38632      17.688967      17.689046      17.683799      5533.2778    
       109   0             -2181.1912      1185.9496      1101.8591      1255.2739      1200.7158     -160.53764      15.3516       -193.13907      17.688967      17.689046      17.683799      5533.2778    
       110   0             -2181.1912      1182.4104      1098.4061      1251.4499      1197.3753     -161.0219       15.625851     -193.21514      17.688967      17.689046      17.683799      5533.2778    
       111   0             -2181.1912      1182.6136      1098.7448      1251.1161      1197.9797     -160.98809      16.117855     -193.62763      17.688967      17.689046      17.683799      5533.2778    
       112   0             -2181.1912      1183.21        1099.7983      1250.9713      1198.8602     -160.82473      16.044325     -193.77316      17.688967      17.689046      17.683799      5533.2778    
       113   0             -2181.1913      1183.8916      1100.7019      1251.5507      1199.4222     -160.88308      15.93247      -193.7923       17.688967      17.689046      17.683799      5533.2778    
       114   0             -2181.1913      1184.1965      1101.0616      1252.0273      1199.5006     -160.81289      15.934975     -193.84025      17.688967      17.689046      17.683799      5533.2778    
       115   0             -2181.1913      1183.4943      1100.1355      1251.4143      1198.933      -160.76417      15.884863     -193.83999      17.688967      17.689046      17.683799      5533.2778    
       116   0             -2181.1913      1183.4313      1099.9829      1251.3792      1198.9318     -160.733        15.886857     -193.78942      17.688967      17.689046      17.683799      5533.2778    
       117   0             -2181.1913      1183.665       1100.2037      1251.6395      1199.1517     -160.67157      15.85224      -193.77574      17.688967      17.689046      17.683799      5533.2778    
       118   0             -2181.1913      1183.6705      1100.2099      1251.6771      1199.1245     -160.67304      15.840602     -193.78863      17.688967      17.689046      17.683799      5533.2778    
       119   0             -2181.1913      1183.638       1100.1819      1251.6565      1199.0756     -160.66156      15.846946     -193.76904      17.688967      17.689046      17.683799      5533.2778    
       120   0             -2181.1913      1183.6205      1100.1743      1251.6283      1199.059      -160.67524      15.845771     -193.74578      17.688967      17.689046      17.683799      5533.2778    
       121   0             -2181.1913      1183.6217      1100.1702      1251.6154      1199.0794     -160.68799      15.841687     -193.74436      17.688967      17.689046      17.683799      5533.2778    
       122   0             -2181.1913      1183.6374      1100.1813      1251.6295      1199.1015     -160.69634      15.847379     -193.75058      17.688967      17.689046      17.683799      5533.2778    
       123   0             -2181.1913      1183.6391      1100.1823      1251.631       1199.1041     -160.69684      15.847888     -193.74975      17.688967      17.689046      17.683799      5533.2778    
       124   0             -2181.1913      1183.6226      1100.1683      1251.6127      1199.0868     -160.69597      15.850212     -193.74386      17.688967      17.689046      17.683799      5533.2778    
       125   0             -2181.1913      1183.6191      1100.1673      1251.6079      1199.0821     -160.69463      15.849066     -193.74557      17.688967      17.689046      17.683799      5533.2778    
       126   0             -2181.1913      1183.623       1100.1731      1251.6109      1199.085      -160.69452      15.848749     -193.74751      17.688967      17.689046      17.683799      5533.2778    
       127   0             -2181.1913      1183.6249      1100.1747      1251.613       1199.087      -160.69406      15.84939      -193.74657      17.688967      17.689046      17.683799      5533.2778    
       128   0             -2181.1913      1183.6256      1100.1759      1251.614       1199.0869     -160.69429      15.849155     -193.74691      17.688967      17.689046      17.683799      5533.2778    
       129   0             -2181.1913      1183.6246      1100.1752      1251.613       1199.0855     -160.69464      15.848985     -193.74691      17.688967      17.689046      17.683799      5533.2778    
       130   0             -2181.1913      1183.624       1100.1748      1251.6121      1199.0852     -160.69443      15.848691     -193.74704      17.688967      17.689046      17.683799      5533.2778    
       131   0             -2181.1913      1183.6246      1100.1754      1251.6126      1199.0857     -160.69451      15.848731     -193.74677      17.688967      17.689046      17.683799      5533.2778    
       132   0             -2181.1913      1183.6247      1100.1754      1251.6126      1199.086      -160.6946       15.848849     -193.74693      17.688967      17.689046      17.683799      5533.2778    
       133   0             -2181.1913      1183.6241      1100.1747      1251.6122      1199.0855     -160.69461      15.849008     -193.7469       17.688967      17.689046      17.683799      5533.2778    
       134   0             -2181.1913      1183.6241      1100.1747      1251.6122      1199.0853     -160.69456      15.848814     -193.74676      17.688967      17.689046      17.683799      5533.2778    
       135   0             -2181.1913      1183.6241      1100.1747      1251.6123      1199.0853     -160.69456      15.848722     -193.7468       17.688967      17.689046      17.683799      5533.2778    
       136   0             -2181.1913      1183.6241      1100.1748      1251.6123      1199.0853     -160.69455      15.848727     -193.74679      17.688967      17.689046      17.683799      5533.2778    
       137   0             -2181.1913      1183.6241      1100.1748      1251.6123      1199.0853     -160.69454      15.84875      -193.74679      17.688967      17.689046      17.683799      5533.2778    
       138   0             -2181.1913      1183.6241      1100.1748      1251.6123      1199.0852     -160.69454      15.848769     -193.74678      17.688967      17.689046      17.683799      5533.2778    
       139   0             -2181.1913      1183.6241      1100.1748      1251.6123      1199.0852     -160.69455      15.848772     -193.74678      17.688967      17.689046      17.683799      5533.2778    
       140   0             -2181.1913      1183.6241      1100.1748      1251.6123      1199.0852     -160.69455      15.848771     -193.74678      17.688967      17.689046      17.683799      5533.2778    
       141   0             -2181.1913      1183.6241      1100.1748      1251.6123      1199.0852     -160.69455      15.848769     -193.74679      17.688967      17.689046      17.683799      5533.2778    
       142   0             -2181.1913      1183.6241      1100.1748      1251.6123      1199.0852     -160.69455      15.848767     -193.74679      17.688967      17.689046      17.683799      5533.2778    
       143   0             -2181.1913      1183.6241      1100.1748      1251.6123      1199.0852     -160.69455      15.84877      -193.74679      17.688967      17.689046      17.683799      5533.2778    
       144   0             -2181.1913      1183.6241      1100.1748      1251.6123      1199.0852     -160.69455      15.848771     -193.74679      17.688967      17.689046      17.683799      5533.2778    
       145   0             -2181.1913      1183.6241      1100.1748      1251.6123      1199.0852     -160.69455      15.84877      -193.74679      17.688967      17.689046      17.683799      5533.2778    
       146   0             -2181.1913      1183.6241      1100.1748      1251.6123      1199.0852     -160.69455      15.84877      -193.74679      17.688967      17.689046      17.683799      5533.2778    
       147   0             -2181.1913      1183.6241      1100.1748      1251.6123      1199.0852     -160.69455      15.84877      -193.74679      17.688967      17.689046      17.683799      5533.2778    
       148   0             -2181.1913      1183.6241      1100.1748      1251.6123      1199.0852     -160.69455      15.84877      -193.74679      17.688967      17.689046      17.683799      5533.2778    
       149   0             -2181.1913      1183.6241      1100.1748      1251.6123      1199.0852     -160.69455      15.84877      -193.74679      17.688967      17.689046      17.683799      5533.2778    
       150   0             -2181.1913      1183.6241      1100.1748      1251.6123      1199.0852     -160.69455      15.84877      -193.74679      17.688967      17.689046      17.683799      5533.2778    
       151   0             -2181.1913      1183.6241      1100.1748      1251.6123      1199.0852     -160.69455      15.84877      -193.74679      17.688967      17.689046      17.683799      5533.2778    
       152   0             -2181.1913      1183.6241      1100.1748      1251.6123      1199.0852     -160.69455      15.84877      -193.74679      17.688967      17.689046      17.683799      5533.2778    
       153   0             -2181.1913      1183.6241      1100.1748      1251.6123      1199.0852     -160.69455      15.84877      -193.74679      17.688967      17.689046      17.683799      5533.2778    
       154   0             -2181.1913      1183.6241      1100.1748      1251.6123      1199.0852     -160.69455      15.84877      -193.74679      17.688967      17.689046      17.683799      5533.2778    
       155   0             -2181.1913      1183.6241      1100.1748      1251.6123      1199.0852     -160.69455      15.84877      -193.74679      17.688967      17.689046      17.683799      5533.2778    
       156   0             -2181.1913      1183.6241      1100.1748      1251.6123      1199.0852     -160.69455      15.84877      -193.74679      17.688967      17.689046      17.683799      5533.2778    
       157   0             -2181.1913      1183.6241      1100.1748      1251.6123      1199.0852     -160.69455      15.84877      -193.74679      17.688967      17.689046      17.683799      5533.2778    
       158   0             -2181.1913      1183.6241      1100.1748      1251.6123      1199.0852     -160.69455      15.84877      -193.74679      17.688967      17.689046      17.683799      5533.2778    
       159   0             -2181.1913      1183.6241      1100.1748      1251.6123      1199.0852     -160.69455      15.84877      -193.74679      17.688967      17.689046      17.683799      5533.2778    
Loop time of 0.138331 on 1 procs for 59 steps with 500 atoms

101.7% CPU use with 1 MPI tasks x 1 OpenMP threads

Minimization stats:
  Stopping criterion = force tolerance
  Energy initial, next-to-last, final = 
     -2180.93284089056  -2181.19125506777  -2181.19125506778
  Force two-norm initial, final = 2.0834789 9.9200708e-11
  Force max component initial, final = 0.1729295 1.0935558e-11
  Final line search alpha, max atom move = 1 1.0935558e-11
  Iterations, force evaluations = 59 116

MPI task timing breakdown:
Section |  min time  |  avg time  |  max time  |%varavg| %total
---------------------------------------------------------------
Pair    | 0.13589    | 0.13589    | 0.13589    |   0.0 | 98.24
Neigh   | 0          | 0          | 0          |   0.0 |  0.00
Comm    | 0.000684   | 0.000684   | 0.000684   |   0.0 |  0.49
Output  | 0.000861   | 0.000861   | 0.000861   |   0.0 |  0.62
Modify  | 0          | 0          | 0          |   0.0 |  0.00
Other   |            | 0.000893   |            |       |  0.65

Nlocal:            500 ave         500 max         500 min
Histogram: 1 0 0 0 0 0 0 0 0 0
Nghost:           1956 ave        1956 max        1956 min
Histogram: 1 0 0 0 0 0 0 0 0 0
Neighs:          33500 ave       33500 max       33500 min
Histogram: 1 0 0 0 0 0 0 0 0 0

Total # of neighbors = 33500
Ave neighs/atom = 67
Neighbor list builds = 0
Dangerous builds = 0
OMP_NUM_THREADS environment is not set. Defaulting to 1 thread. (src/comm.cpp:98)
  using 1 OpenMP thread(s) per MPI task
Loaded 1 plugins from F:\Lammps\LAMMPS 64-bit 2Aug2023\plugins

The 'box' command has been removed and will be ignored

Reading restart file ...
  restart file = 2 Aug 2023, LAMMPS = 2 Aug 2023
  restoring atom style atomic from restart
  triclinic box = (0.050516316 0.050468137 0.053100254) to (17.739484 17.739532 17.7369) with tilt (0 0 0)
  1 by 1 by 1 MPI processor grid
  pair style eam/alloy stores no restart info
  500 atoms
  read_restart CPU = 0.000 seconds
Changing box ...
  triclinic box = (0.050516316 0.050468137 0.053100254) to (17.739484 17.73955 17.7369) with tilt (0 0 0)
  triclinic box = (0.050516316 0.050468137 0.053100254) to (17.739484 17.73955 17.7369) with tilt (0 0 0)
Neighbor list info ...
  update: every = 1 steps, delay = 0 steps, check = yes
  max neighbors/atom: 2000, page size: 100000
  master list distance cutoff = 6.80375
  ghost atom cutoff = 6.80375
  1 neighbor lists, perpetual/occasional/extra = 1 0 0
  (1) pair eam/alloy, perpetual
      attributes: half, newton on
      pair build: half/nsq/newton
      stencil: none
      bin: none
Setting up cg style minimization ...
  Unit style    : metal
  Current step  : 100
Per MPI rank memory allocation (min/avg/max) = 4.482 | 4.482 | 4.482 Mbytes
   Step          Temp          PotEng         Press           Pxx            Pyy            Pzz            Pxy            Pxz            Pyz             Lx             Ly             Lz           Volume    
       100   0             -2180.9328     -148.20792     -148.91641     -149.94601     -145.76134     -9.2756359     -27.612619     -103.274        17.688967      17.689081      17.683799      5533.2889    
       101   0             -2181.1061      744.64292      758.22213      735.44659      740.26004     -87.917361     -2.1507305     -157.8033       17.688967      17.689081      17.683799      5533.2889    
       102   0             -2181.1668      1140.7945      1123.1552      1157.1324      1142.0958     -145.36466      6.2505566     -185.76408      17.688967      17.689081      17.683799      5533.2889    
       103   0             -2181.1846      1132.2211      1056.6161      1188.801       1151.2463     -163.2606       4.9686211     -189.754        17.688967      17.689081      17.683799      5533.2889    
       104   0             -2181.1888      1159.4601      1074.1622      1225.4169      1178.8013     -168.92689      16.176209     -188.88263      17.688967      17.689081      17.683799      5533.2889    
       105   0             -2181.1903      1236.1872      1150.4981      1303.0078      1255.0558     -170.08916      19.057258     -197.33839      17.688967      17.689081      17.683799      5533.2889    
       106   0             -2181.191       1181.6697      1096.9808      1250.3262      1197.702      -161.72551      14.731696     -191.79853      17.688967      17.689081      17.683799      5533.2889    
       107   0             -2181.1911      1170.9789      1086.468       1239.4813      1186.9874     -159.2989       15.802624     -192.71853      17.688967      17.689081      17.683799      5533.2889    
       108   0             -2181.1912      1181.8014      1098.5202      1249.8301      1197.054      -160.27312      16.431379     -193.39055      17.688967      17.689081      17.683799      5533.2889    
       109   0             -2181.1912      1182.2683      1098.7865      1250.373       1197.6455     -160.53633      15.350285     -193.14334      17.688967      17.689081      17.683799      5533.2889    
       110   0             -2181.1912      1178.7297      1095.3339      1246.5497      1194.3054     -161.02058      15.624619     -193.21947      17.688967      17.689081      17.683799      5533.2889    
       111   0             -2181.1913      1178.9326      1095.6724      1246.2158      1194.9096     -160.98671      16.116564     -193.63184      17.688967      17.689081      17.683799      5533.2889    
       112   0             -2181.1913      1179.529       1096.7259      1246.071       1195.7901     -160.8234       16.043028     -193.77741      17.688967      17.689081      17.683799      5533.2889    
       113   0             -2181.1913      1180.2111      1097.6299      1246.6509      1196.3525     -160.88178      15.931206     -193.79657      17.688967      17.689081      17.683799      5533.2889    
       114   0             -2181.1913      1180.5156      1097.9892      1247.127       1196.4304     -160.81156      15.933715     -193.84448      17.688967      17.689081      17.683799      5533.2889    
       115   0             -2181.1913      1179.8133      1097.0631      1246.5139      1195.8627     -160.76284      15.883614     -193.84423      17.688967      17.689081      17.683799      5533.2889    
       116   0             -2181.1913      1179.7504      1096.9107      1246.4789      1195.8617     -160.73168      15.885596     -193.79368      17.688967      17.689081      17.683799      5533.2889    
       117   0             -2181.1913      1179.9841      1097.1314      1246.7392      1196.0816     -160.67026      15.850972     -193.78         17.688967      17.689081      17.683799      5533.2889    
       118   0             -2181.1913      1179.9896      1097.1376      1246.7768      1196.0544     -160.67172      15.839333     -193.79288      17.688967      17.689081      17.683799      5533.2889    
       119   0             -2181.1913      1179.9571      1097.1096      1246.7562      1196.0055     -160.66024      15.845679     -193.77329      17.688967      17.689081      17.683799      5533.2889    
       120   0             -2181.1913      1179.9396      1097.102       1246.728       1195.9889     -160.67392      15.844504     -193.75003      17.688967      17.689081      17.683799      5533.2889    
       121   0             -2181.1913      1179.9408      1097.0979      1246.7151      1196.0092     -160.68667      15.840419     -193.74861      17.688967      17.689081      17.683799      5533.2889    
       122   0             -2181.1913      1179.9565      1097.109       1246.7292      1196.0314     -160.69502      15.846112     -193.75483      17.688967      17.689081      17.683799      5533.2889    
       123   0             -2181.1913      1179.9582      1097.11        1246.7307      1196.034      -160.69552      15.846622     -193.75399      17.688967      17.689081      17.683799      5533.2889    
       124   0             -2181.1913      1179.9417      1097.096       1246.7124      1196.0166     -160.69465      15.848946     -193.74811      17.688967      17.689081      17.683799      5533.2889    
       125   0             -2181.1913      1179.9382      1097.095       1246.7076      1196.012      -160.69331      15.847798     -193.74982      17.688967      17.689081      17.683799      5533.2889    
       126   0             -2181.1913      1179.9421      1097.1008      1246.7106      1196.0149     -160.6932       15.847482     -193.75176      17.688967      17.689081      17.683799      5533.2889    
       127   0             -2181.1913      1179.944       1097.1024      1246.7127      1196.0169     -160.69274      15.848123     -193.75082      17.688967      17.689081      17.683799      5533.2889    
       128   0             -2181.1913      1179.9447      1097.1036      1246.7137      1196.0167     -160.69297      15.847888     -193.75116      17.688967      17.689081      17.683799      5533.2889    
       129   0             -2181.1913      1179.9436      1097.1029      1246.7127      1196.0153     -160.69332      15.847718     -193.75116      17.688967      17.689081      17.683799      5533.2889    
       130   0             -2181.1913      1179.9431      1097.1025      1246.7118      1196.015      -160.69311      15.847424     -193.75129      17.688967      17.689081      17.683799      5533.2889    
       131   0             -2181.1913      1179.9436      1097.1031      1246.7123      1196.0156     -160.69319      15.847464     -193.75102      17.688967      17.689081      17.683799      5533.2889    
       132   0             -2181.1913      1179.9438      1097.1031      1246.7123      1196.0159     -160.69328      15.847582     -193.75118      17.688967      17.689081      17.683799      5533.2889    
       133   0             -2181.1913      1179.9432      1097.1024      1246.7119      1196.0153     -160.69329      15.847742     -193.75115      17.688967      17.689081      17.683799      5533.2889    
       134   0             -2181.1913      1179.9431      1097.1024      1246.7119      1196.0151     -160.69324      15.847548     -193.75101      17.688967      17.689081      17.683799      5533.2889    
       135   0             -2181.1913      1179.9432      1097.1024      1246.712       1196.0151     -160.69324      15.847455     -193.75105      17.688967      17.689081      17.683799      5533.2889    
       136   0             -2181.1913      1179.9432      1097.1025      1246.712       1196.0151     -160.69323      15.84746      -193.75104      17.688967      17.689081      17.683799      5533.2889    
       137   0             -2181.1913      1179.9432      1097.1025      1246.712       1196.0151     -160.69322      15.847483     -193.75104      17.688967      17.689081      17.683799      5533.2889    
       138   0             -2181.1913      1179.9432      1097.1025      1246.712       1196.0151     -160.69322      15.847503     -193.75103      17.688967      17.689081      17.683799      5533.2889    
       139   0             -2181.1913      1179.9432      1097.1025      1246.712       1196.0151     -160.69323      15.847505     -193.75104      17.688967      17.689081      17.683799      5533.2889    
[...]
       151   0             -2181.1913      1181.784       1098.6388      1249.1615      1197.5516     -159.51934      15.848868     -193.74892      17.688967      17.689064      17.683799      5533.2833    
       152   0             -2181.1913      1181.784       1098.6388      1249.1615      1197.5516     -159.51934      15.848868     -193.74892      17.688967      17.689064      17.683799      5533.2833    
       153   0             -2181.1913      1181.784       1098.6388      1249.1615      1197.5516     -159.51934      15.848868     -193.74892      17.688967      17.689064      17.683799      5533.2833    
       154   0             -2181.1913      1181.784       1098.6388      1249.1615      1197.5516     -159.51934      15.848868     -193.74892      17.688967      17.689064      17.683799      5533.2833    
       155   0             -2181.1913      1181.784       1098.6388      1249.1615      1197.5516     -159.51934      15.848868     -193.74892      17.688967      17.689064      17.683799      5533.2833    
       156   0             -2181.1913      1181.784       1098.6388      1249.1615      1197.5516     -159.51934      15.848868     -193.74892      17.688967      17.689064      17.683799      5533.2833    
       157   0             -2181.1913      1181.784       1098.6388      1249.1615      1197.5516     -159.51934      15.848868     -193.74892      17.688967      17.689064      17.683799      5533.2833    
       158   0             -2181.1913      1181.784       1098.6388      1249.1615      1197.5516     -159.51934      15.848868     -193.74892      17.688967      17.689064      17.683799      5533.2833    
       159   0             -2181.1913      1181.784       1098.6388      1249.1615      1197.5516     -159.51934      15.848868     -193.74892      17.688967      17.689064      17.683799      5533.2833    
Loop time of 0.139557 on 1 procs for 59 steps with 500 atoms

100.8% CPU use with 1 MPI tasks x 1 OpenMP threads

Minimization stats:
  Stopping criterion = force tolerance
  Energy initial, next-to-last, final = 
     -2180.93284041554  -2181.19125993908  -2181.19125993908
  Force two-norm initial, final = 2.0835043 9.9174492e-11
  Force max component initial, final = 0.17293127 1.0891107e-11
  Final line search alpha, max atom move = 1 1.0891107e-11
  Iterations, force evaluations = 59 116

MPI task timing breakdown:
Section |  min time  |  avg time  |  max time  |%varavg| %total
---------------------------------------------------------------
Pair    | 0.13699    | 0.13699    | 0.13699    |   0.0 | 98.16
Neigh   | 0          | 0          | 0          |   0.0 |  0.00
Comm    | 0.000675   | 0.000675   | 0.000675   |   0.0 |  0.48
Output  | 0.000914   | 0.000914   | 0.000914   |   0.0 |  0.65
Modify  | 0          | 0          | 0          |   0.0 |  0.00
Other   |            | 0.000979   |            |       |  0.70

Nlocal:            500 ave         500 max         500 min
Histogram: 1 0 0 0 0 0 0 0 0 0
Nghost:           1956 ave        1956 max        1956 min
Histogram: 1 0 0 0 0 0 0 0 0 0
Neighs:          33500 ave       33500 max       33500 min
Histogram: 1 0 0 0 0 0 0 0 0 0

Total # of neighbors = 33500
Ave neighs/atom = 67
Neighbor list builds = 0
Dangerous builds = 0
OMP_NUM_THREADS environment is not set. Defaulting to 1 thread. (src/comm.cpp:98)
  using 1 OpenMP thread(s) per MPI task
Loaded 1 plugins from F:\Lammps\LAMMPS 64-bit 2Aug2023\plugins

The 'box' command has been removed and will be ignored

Reading restart file ...
  restart file = 2 Aug 2023, LAMMPS = 2 Aug 2023
  restoring atom style atomic from restart
  triclinic box = (0.050516316 0.050468137 0.053100254) to (17.739484 17.739532 17.7369) with tilt (0 0 0)
  1 by 1 by 1 MPI processor grid
  pair style eam/alloy stores no restart info
  500 atoms
  read_restart CPU = 0.000 seconds
Changing box ...
  triclinic box = (0.050516316 0.050468137 0.053100254) to (17.739484 17.739532 17.7369) with tilt (1.7689064e-05 0 0)
Neighbor list info ...
  update: every = 1 steps, delay = 0 steps, check = yes
  max neighbors/atom: 2000, page size: 100000
  master list distance cutoff = 6.80375
  ghost atom cutoff = 6.80375
  1 neighbor lists, perpetual/occasional/extra = 1 0 0
  (1) pair eam/alloy, perpetual
      attributes: half, newton on
      pair build: half/nsq/newton
      stencil: none
      bin: none
Setting up cg style minimization ...
  Unit style    : metal
  Current step  : 100
Per MPI rank memory allocation (min/avg/max) = 4.482 | 4.482 | 4.482 Mbytes
   Step          Temp          PotEng         Press           Pxx            Pyy            Pzz            Pxy            Pxz            Pyz             Lx             Ly             Lz           Volume    
       100   0             -2180.9328     -146.3387      -147.352       -147.46522     -144.19888     -10.461081     -27.61259      -103.27139      17.688967      17.689064      17.683799      5533.2833    
       101   0             -2181.1061      746.49809      759.77324      737.91104      741.80998     -89.095975     -2.1505073     -157.80196      17.688967      17.689064      17.683799      5533.2833    
       102   0             -2181.1668      1142.6331      1124.6888      1159.5816      1143.6288     -146.54093      6.2507587     -185.76172      17.688967      17.689064      17.683799      5533.2833    
       103   0             -2181.1846      1134.067       1058.1588      1191.2561      1152.786      -164.43504      4.9691747     -189.75244      17.688967      17.689064      17.683799      5533.2833    
       104   0             -2181.1888      1161.2951      1075.6927      1227.8628      1180.3299     -170.10143      16.176405     -188.87987      17.688967      17.689064      17.683799      5533.2833    
       105   0             -2181.1903      1238.0264      1152.0327      1305.4585      1256.5879     -171.26506      19.057105     -197.33638      17.688967      17.689064      17.683799      5533.2833    
       106   0             -2181.191       1183.5127      1098.5197      1252.7801      1199.2382     -162.90103      14.731626     -191.7965       17.688967      17.689064      17.683799      5533.2833    
       107   0             -2181.1911      1172.8189      1088.0038      1241.9322      1188.5208     -160.47421      15.802403     -192.71635      17.688967      17.689064      17.683799      5533.2833    
       108   0             -2181.1912      1183.6413      1100.0559      1252.2808      1198.5873     -161.44852      16.431388     -193.38842      17.688967      17.689064      17.683799      5533.2833    
       109   0             -2181.1912      1184.1087      1100.3227      1252.8241      1199.1792     -161.71157      15.350205     -193.14119      17.688967      17.689064      17.683799      5533.2833    
       110   0             -2181.1912      1180.5697      1096.8698      1249.0004      1195.8388     -162.19582      15.624497     -193.21731      17.688967      17.689064      17.683799      5533.2833    
       111   0             -2181.1912      1180.7728      1097.2085      1248.6667      1196.4432     -162.16197      16.116475     -193.62975      17.688967      17.689064      17.683799      5533.2833    
       112   0             -2181.1913      1181.3692      1098.262       1248.5219      1197.3237     -161.99859      16.042935     -193.77528      17.688967      17.689064      17.683799      5533.2833    
       113   0             -2181.1913      1182.051       1099.1657      1249.1014      1197.8859     -162.05695      15.931105     -193.79444      17.688967      17.689064      17.683799      5533.2833    
       114   0             -2181.1913      1182.3557      1099.5253      1249.5778      1197.9641     -161.98675      15.933617     -193.84237      17.688967      17.689064      17.683799      5533.2833    
       115   0             -2181.1913      1181.6535      1098.5992      1248.9648      1197.3964     -161.93802      15.883504     -193.84211      17.688967      17.689064      17.683799      5533.2833    
       116   0             -2181.1913      1181.5906      1098.4466      1248.9297      1197.3953     -161.90688      15.885495     -193.79155      17.688967      17.689064      17.683799      5533.2833    
       117   0             -2181.1913      1181.8242      1098.6674      1249.19        1197.6152     -161.84545      15.850874     -193.77787      17.688967      17.689064      17.683799      5533.2833    
       118   0             -2181.1913      1181.8298      1098.6736      1249.2276      1197.588      -161.84692      15.839236     -193.79075      17.688967      17.689064      17.683799      5533.2833    
       119   0             -2181.1913      1181.7972      1098.6456      1249.207       1197.5391     -161.83544      15.845582     -193.77116      17.688967      17.689064      17.683799      5533.2833    
       120   0             -2181.1913      1181.7798      1098.638       1249.1788      1197.5225     -161.84912      15.844407     -193.7479       17.688967      17.689064      17.683799      5533.2833    
       121   0             -2181.1913      1181.7809      1098.6339      1249.1659      1197.5429     -161.86187      15.840322     -193.74648      17.688967      17.689064      17.683799      5533.2833    
       122   0             -2181.1913      1181.7967      1098.645       1249.18        1197.565      -161.87023      15.846014     -193.7527       17.688967      17.689064      17.683799      5533.2833    
       123   0             -2181.1913      1181.7984      1098.646       1249.1815      1197.5676     -161.87072      15.846524     -193.75187      17.688967      17.689064      17.683799      5533.2833    
       124   0             -2181.1913      1181.7818      1098.632       1249.1632      1197.5503     -161.86986      15.848847     -193.74599      17.688967      17.689064      17.683799      5533.2833    
       125   0             -2181.1913      1181.7784      1098.6311      1249.1584      1197.5456     -161.86852      15.847701     -193.74769      17.688967      17.689064      17.683799      5533.2833    
       126   0             -2181.1913      1181.7822      1098.6368      1249.1614      1197.5485     -161.8684       15.847384     -193.74963      17.688967      17.689064      17.683799      5533.2833    
       127   0             -2181.1913      1181.7842      1098.6385      1249.1635      1197.5505     -161.86795      15.848025     -193.7487       17.688967      17.689064      17.683799      5533.2833    
       128   0             -2181.1913      1181.7848      1098.6396      1249.1645      1197.5504     -161.86817      15.84779      -193.74904      17.688967      17.689064      17.683799      5533.2833    
       129   0             -2181.1913      1181.7838      1098.6389      1249.1635      1197.549      -161.86853      15.84762      -193.74904      17.688967      17.689064      17.683799      5533.2833    
       130   0             -2181.1913      1181.7833      1098.6385      1249.1626      1197.5486     -161.86832      15.847326     -193.74917      17.688967      17.689064      17.683799      5533.2833    
       131   0             -2181.1913      1181.7838      1098.6392      1249.1631      1197.5492     -161.86839      15.847366     -193.74889      17.688967      17.689064      17.683799      5533.2833    
       132   0             -2181.1913      1181.7839      1098.6391      1249.1631      1197.5495     -161.86848      15.847484     -193.74906      17.688967      17.689064      17.683799      5533.2833    
       133   0             -2181.1913      1181.7834      1098.6384      1249.1627      1197.549      -161.8685       15.847644     -193.74903      17.688967      17.689064      17.683799      5533.2833    
       134   0             -2181.1913      1181.7833      1098.6384      1249.1627      1197.5488     -161.86844      15.84745      -193.74888      17.688967      17.689064      17.683799      5533.2833    
       135   0             -2181.1913      1181.7833      1098.6385      1249.1628      1197.5488     -161.86845      15.847357     -193.74892      17.688967      17.689064      17.683799      5533.2833    
       136   0             -2181.1913      1181.7834      1098.6385      1249.1628      1197.5488     -161.86844      15.847362     -193.74891      17.688967      17.689064      17.683799      5533.2833    
       137   0             -2181.1913      1181.7834      1098.6385      1249.1628      1197.5488     -161.86843      15.847385     -193.74892      17.688967      17.689064      17.683799      5533.2833    
       138   0             -2181.1913      1181.7833      1098.6385      1249.1628      1197.5487     -161.86842      15.847405     -193.7489       17.688967      17.689064      17.683799      5533.2833    
       139   0             -2181.1913      1181.7833      1098.6385      1249.1628      1197.5487     -161.86843      15.847407     -193.74891      17.688967      17.689064      17.683799      5533.2833    
       140   0             -2181.1913      1181.7833      1098.6385      1249.1628      1197.5487     -161.86843      15.847406     -193.74891      17.688967      17.689064      17.683799      5533.2833    
       141   0             -2181.1913      1181.7834      1098.6385      1249.1628      1197.5487     -161.86843      15.847404     -193.74891      17.688967      17.689064      17.683799      5533.2833    
       142   0             -2181.1913      1181.7834      1098.6385      1249.1628      1197.5487     -161.86843      15.847403     -193.74891      17.688967      17.689064      17.683799      5533.2833    
       143   0             -2181.1913      1181.7834      1098.6385      1249.1628      1197.5487     -161.86843      15.847405     -193.74891      17.688967      17.689064      17.683799      5533.2833    
       144   0             -2181.1913      1181.7834      1098.6385      1249.1628      1197.5487     -161.86843      15.847406     -193.74891      17.688967      17.689064      17.683799      5533.2833    
       145   0             -2181.1913      1181.7834      1098.6385      1249.1628      1197.5487     -161.86843      15.847405     -193.74891      17.688967      17.689064      17.683799      5533.2833    
       146   0             -2181.1913      1181.7834      1098.6385      1249.1628      1197.5487     -161.86843      15.847405     -193.74891      17.688967      17.689064      17.683799      5533.2833    
       147   0             -2181.1913      1181.7834      1098.6385      1249.1628      1197.5487     -161.86843      15.847406     -193.74891      17.688967      17.689064      17.683799      5533.2833    
       148   0             -2181.1913      1181.7834      1098.6385      1249.1628      1197.5487     -161.86843      15.847405     -193.74891      17.688967      17.689064      17.683799      5533.2833    
       149   0             -2181.1913      1181.7834      1098.6385      1249.1628      1197.5487     -161.86843      15.847405     -193.74891      17.688967      17.689064      17.683799      5533.2833    
       150   0             -2181.1913      1181.7834      1098.6385      1249.1628      1197.5487     -161.86843      15.847405     -193.74891      17.688967      17.689064      17.683799      5533.2833    
       151   0             -2181.1913      1181.7834      1098.6385      1249.1628      1197.5487     -161.86843      15.847405     -193.74891      17.688967      17.689064      17.683799      5533.2833    
       152   0             -2181.1913      1181.7834      1098.6385      1249.1628      1197.5487     -161.86843      15.847405     -193.74891      17.688967      17.689064      17.683799      5533.2833    
       153   0             -2181.1913      1181.7834      1098.6385      1249.1628      1197.5487     -161.86843      15.847405     -193.74891      17.688967      17.689064      17.683799      5533.2833    
       154   0             -2181.1913      1181.7834      1098.6385      1249.1628      1197.5487     -161.86843      15.847405     -193.74891      17.688967      17.689064      17.683799      5533.2833    
       155   0             -2181.1913      1181.7834      1098.6385      1249.1628      1197.5487     -161.86843      15.847405     -193.74891      17.688967      17.689064      17.683799      5533.2833    
       156   0             -2181.1913      1181.7834      1098.6385      1249.1628      1197.5487     -161.86843      15.847405     -193.74891      17.688967      17.689064      17.683799      5533.2833    
       157   0             -2181.1913      1181.7834      1098.6385      1249.1628      1197.5487     -161.86843      15.847405     -193.74891      17.688967      17.689064      17.683799      5533.2833    
       158   0             -2181.1913      1181.7834      1098.6385      1249.1628      1197.5487     -161.86843      15.847405     -193.74891      17.688967      17.689064      17.683799      5533.2833    
       159   0             -2181.1913      1181.7834      1098.6385      1249.1628      1197.5487     -161.86843      15.847405     -193.74891      17.688967      17.689064      17.683799      5533.2833    
Loop time of 0.143237 on 1 procs for 59 steps with 500 atoms

98.2% CPU use with 1 MPI tasks x 1 OpenMP threads

Minimization stats:
  Stopping criterion = force tolerance
  Energy initial, next-to-last, final = 
     -2180.93284035147  -2181.19125882912  -2181.19125882912
  Force two-norm initial, final = 2.0835002 9.9168663e-11
  Force max component initial, final = 0.17293034 1.0928258e-11
  Final line search alpha, max atom move = 1 1.0928258e-11
  Iterations, force evaluations = 59 116

MPI task timing breakdown:
Section |  min time  |  avg time  |  max time  |%varavg| %total
---------------------------------------------------------------
Pair    | 0.14032    | 0.14032    | 0.14032    |   0.0 | 97.96
Neigh   | 0          | 0          | 0          |   0.0 |  0.00
Comm    | 0.000827   | 0.000827   | 0.000827   |   0.0 |  0.58
Output  | 0.00104    | 0.00104    | 0.00104    |   0.0 |  0.73
Modify  | 0          | 0          | 0          |   0.0 |  0.00
Other   |            | 0.001055   |            |       |  0.74

Nlocal:            500 ave         500 max         500 min
Histogram: 1 0 0 0 0 0 0 0 0 0
Nghost:           1956 ave        1956 max        1956 min
Histogram: 1 0 0 0 0 0 0 0 0 0
Neighs:          33500 ave       33500 max       33500 min
Histogram: 1 0 0 0 0 0 0 0 0 0

Total # of neighbors = 33500
Ave neighs/atom = 67
Neighbor list builds = 0
Dangerous builds = 0
=========================================
Components of the Elastic Constant Tensor
=========================================
Elastic Constant C11all = 244.780506982002 GPa
Elastic Constant C22all = 245.015139867493 GPa
Elastic Constant C33all = 244.584852191008 GPa
Elastic Constant C12all = 153.622704646001 GPa
Elastic Constant C13all = 153.528076234751 GPa
Elastic Constant C23all = 153.50932450925 GPa
Elastic Constant C44all = 117.72629245595 GPa
Elastic Constant C55all = 117.52042836874 GPa
Elastic Constant C66all = 117.4544620124 GPa
Elastic Constant C14all = 0.192447597501086 GPa
Elastic Constant C15all = 0.127581262800049 GPa
Elastic Constant C16all = -0.0029969993483974 GPa
Elastic Constant C24all = 0.231916179046493 GPa
Elastic Constant C25all = 0.0625405379360018 GPa
Elastic Constant C26all = -0.0660249982752248 GPa
Elastic Constant C34all = 0.0669835811004305 GPa
Elastic Constant C35all = 0.073729634168103 GPa
Elastic Constant C36all = 0.135072509775 GPa
Elastic Constant C45all = 0.144519677042353 GPa
Elastic Constant C46all = -0.000921491900044205 GPa
Elastic Constant C56all = 0.0731371198971829 GPa
=========================================
Average properties for a cubic crystal
=========================================
Bulk Modulus = 183.966745535612 GPa
Shear Modulus 1 = 117.567060945697 GPa
Shear Modulus 2 = 45.620065608417 GPa
Poisson Ratio = 0.385476529987472
Total wall time: 0:00:02
