LAMMPS (2 Aug 2023 - Update 3)
OMP_NUM_THREADS environment is not set. Defaulting to 1 thread. (src/comm.cpp:98)
  using 1 OpenMP thread(s) per MPI task
Loaded 1 plugins from F:\Lammps\LAMMPS 64-bit 2Aug2023\plugins
Reading data file ...
  orthogonal box = (0 0 0) to (17.79 17.79 17.79)
  1 by 1 by 1 MPI processor grid
  reading atoms ...
  500 atoms
  read_data CPU = 0.001 seconds
Changing box ...
  triclinic box = (0 0 0) to (17.79 17.79 17.79) with tilt (0 0 0)
Neighbor list info ...
  update: every = 1 steps, delay = 0 steps, check = yes
  max neighbors/atom: 2000, page size: 100000
  master list distance cutoff = 6.80375
  ghost atom cutoff = 6.80375
  1 neighbor lists, perpetual/occasional/extra = 1 0 0
  (1) pair eam/alloy, perpetual
      attributes: half, newton on
      pair build: half/nsq/newton
      stencil: none
      bin: none
Setting up cg style minimization ...
  Unit style    : metal
  Current step  : 0
WARNING: Energy due to 3 extra global DOFs will be included in minimizer energies
 (src/min.cpp:228)
Per MPI rank memory allocation (min/avg/max) = 4.492 | 4.492 | 4.492 Mbytes
   Step          Temp          PotEng         Press           Pxx            Pyy            Pzz            Pxy            Pxz            Pyz             Lx             Ly             Lz           Volume    
         0   0             -2179.8743     -33013.573     -33008.733     -32980.636     -33051.35      -26.834553      102.91729      10.738101      17.79          17.79          17.79          5630.2521    
         1   0             -2179.9088     -32470.532     -32466.525     -32437.255     -32507.817     -27.240813      102.55837      10.9588        17.788223      17.788225      17.788221      5628.5652    
         2   0             -2179.9427     -31927.026     -31923.848     -31893.414     -31963.815     -27.645712      102.19329      11.177697      17.786447      17.78645       17.786442      5626.8785    
         3   0             -2179.9761     -31383.043     -31380.692     -31349.104     -31419.334     -28.049337      101.82194      11.394714      17.78467       17.784675      17.784663      5625.1922    
         4   0             -2180.0088     -30838.605     -30837.079     -30804.341     -30874.396     -28.451889      101.44504      11.610487      17.782893      17.7829        17.782884      5623.5063    
         5   0             -2180.041      -30293.788     -30293.082     -30259.204     -30329.076     -28.854226      101.06382      11.826062      17.781116      17.781125      17.781105      5621.8207    
         6   0             -2180.0726     -29748.636     -29748.749     -29713.736     -29783.423     -29.255531      100.67841      12.04196       17.779339      17.77935       17.779326      5620.1354    
         7   0             -2180.1036     -29203.152     -29204.078     -29167.941     -29237.437     -29.655641      100.28855      12.258296      17.777562      17.777575      17.777547      5618.4505    
         8   0             -2180.134      -28657.29      -28659.028     -28621.771     -28691.071     -30.054614      99.894357      12.474192      17.775785      17.7758        17.775768      5616.766     
         9   0             -2180.1638     -28110.992     -28113.541     -28075.172     -28144.264     -30.45228       99.495294      12.688811      17.774008      17.774025      17.773989      5615.0817    
        10   0             -2180.1931     -27564.232     -27567.591     -27528.117     -27596.989     -30.84886       99.092417      12.90343       17.772231      17.772251      17.77221       5613.3979    
        11   0             -2180.2218     -27017.027     -27021.193     -26980.623     -27049.265     -31.244013      98.685663      13.118157      17.770454      17.770476      17.770431      5611.7143    
        12   0             -2180.2499     -26469.421     -26474.393     -26432.733     -26501.136     -31.63688       98.274037      13.334522      17.768677      17.768702      17.768652      5610.0311    
        13   0             -2180.2774     -25921.441     -25927.218     -25884.474     -25952.63      -32.026619      97.857         13.552572      17.7669        17.766927      17.766873      5608.3483    
        14   0             -2180.3044     -25373.125     -25379.704     -25335.885     -25403.787     -32.413056      97.432684      13.769137      17.765123      17.765153      17.765094      5606.6658    
        15   0             -2180.3307     -24824.431     -24831.808     -24786.925     -24854.561     -32.796831      97.001521      13.982831      17.763345      17.763379      17.763315      5604.9837    
        16   0             -2180.3565     -24275.317     -24283.487     -24237.55      -24304.915     -33.17821       96.564194      14.193188      17.761568      17.761605      17.761536      5603.3018    
        17   0             -2180.3817     -23725.758     -23734.717     -23687.737     -23754.82      -33.557322      96.120947      14.401106      17.75979       17.759831      17.759757      5601.6204    
        18   0             -2180.4063     -23175.746     -23185.491     -23137.478     -23204.27      -33.93382       95.672266      14.610563      17.758013      17.758057      17.757978      5599.9393    
        19   0             -2180.4304     -22625.363     -22635.889     -22586.855     -22653.344     -34.306827      95.216893      14.821772      17.756235      17.756283      17.756199      5598.2585    
        20   0             -2180.4538     -22074.625     -22085.928     -22035.888     -22102.059     -34.676554      94.754643      15.034973      17.754458      17.754509      17.75442       5596.5781    
        21   0             -2180.4767     -21523.564     -21535.638     -21484.608     -21550.447     -35.042869      94.287007      15.248111      17.75268       17.752735      17.752641      5594.898     
        22   0             -2180.499      -20972.104     -20984.941     -20932.937     -20998.433     -35.405623      93.814371      15.458716      17.750902      17.750962      17.750862      5593.2183    
        23   0             -2180.5207     -20420.268     -20433.862     -20380.898     -20446.044     -35.764616      93.338612      15.667591      17.749124      17.749188      17.749083      5591.5389    
        24   0             -2180.5418     -19868.051     -19882.393     -19828.487     -19893.274     -36.119142      92.859288      15.875144      17.747347      17.747415      17.747304      5589.8599    
        25   0             -2180.5624     -19315.5       -19330.584     -19275.748     -19340.166     -36.47143       92.375525      16.084349      17.745568      17.745642      17.745525      5588.1812    
        26   0             -2180.5823     -18762.627     -18778.454     -18722.699     -18786.729     -36.822924      91.888137      16.296573      17.74379       17.743869      17.743746      5586.5029    
        27   0             -2180.6017     -18209.387     -18225.956     -18169.291     -18232.914     -37.173722      91.394937      16.511046      17.742012      17.742096      17.741967      5584.8249    
        28   0             -2180.6205     -17655.779     -17673.086     -17615.526     -17678.723     -37.523114      90.895119      16.72656       17.740234      17.740323      17.740188      5583.1472    
        29   0             -2180.6387     -17101.813     -17119.849     -17061.413     -17124.175     -37.865851      90.387399      16.939713      17.738455      17.73855       17.738409      5581.4699    
        30   0             -2180.6563     -16547.504     -16566.26      -16506.968     -16569.285     -38.201072      89.871206      17.150189      17.736677      17.736778      17.73663       5579.793     
        31   0             -2180.6734     -15992.886     -16012.348     -15952.223     -16014.086     -38.528697      89.348043      17.358378      17.734898      17.735006      17.734851      5578.1164    
        32   0             -2180.6898     -15437.919     -15458.08      -15397.144     -15458.535     -38.8517        88.82085       17.565986      17.733119      17.733233      17.733072      5576.4402    
        33   0             -2180.7057     -14882.569     -14903.419     -14841.696     -14902.592     -39.173197      88.289931      17.775134      17.73134       17.731462      17.731293      5574.7643    
        34   0             -2180.721      -14326.867     -14348.399     -14285.913     -14346.289     -39.493337      87.755472      17.985936      17.729561      17.72969       17.729514      5573.0889    
        35   0             -2180.7357     -13770.837     -13793.043     -13729.819     -13789.65      -39.812179      87.216414      18.198384      17.727782      17.727919      17.727735      5571.4139    
        36   0             -2180.7498     -13214.561     -13237.432     -13173.489     -13232.762     -40.126732      86.67027       18.41051       17.726003      17.726148      17.725957      5569.7395    
        37   0             -2180.7633     -12658.072     -12681.598     -12616.956     -12675.661     -40.435101      86.116751      18.62195       17.724224      17.724377      17.724178      5568.0656    
        38   0             -2180.7763     -12101.381     -12125.551     -12060.235     -12118.357     -40.737211      85.555797      18.832677      17.722445      17.722608      17.7224        5566.3923    
        39   0             -2180.7886     -11544.452     -11569.249     -11503.297     -11560.811     -41.032371      84.987718      19.042101      17.720666      17.720838      17.720622      5564.7195    
        40   0             -2180.8004     -10987.236     -11012.644     -10946.092     -11002.971     -41.324385      84.415397      19.251671      17.718887      17.719069      17.718845      5563.0473    
        41   0             -2180.8116     -10429.706     -10455.711     -10388.597     -10444.809     -41.614054      83.837412      19.460895      17.717108      17.717301      17.717067      5561.3758    
        42   0             -2180.8222     -9871.8921     -9898.4793     -9830.8377     -9886.3592     -41.901354      83.253727      19.66975       17.715329      17.715534      17.71529       5559.7048    
        43   0             -2180.8322     -9313.8817     -9341.0314     -9272.9064     -9327.7073     -42.184954      82.662233      19.878552      17.71355       17.713767      17.713513      5558.0346    
        44   0             -2180.8417     -8755.709      -8783.3987     -8714.839      -8768.8892     -42.463272      82.062649      20.086768      17.711771      17.712001      17.711737      5556.365     
        45   0             -2180.8505     -8197.435      -8225.6391     -8156.7017     -8209.9641     -42.736047      81.457444      20.295253      17.709992      17.710236      17.709961      5554.6962    
        46   0             -2180.8588     -7639.021      -7667.7131     -7598.4574     -7650.8926     -43.004899      80.849333      20.504119      17.708213      17.708472      17.708185      5553.0282    
        47   0             -2180.8665     -7080.4856     -7109.6372     -7040.1251     -7091.6945     -43.270115      80.238552      20.713207      17.706434      17.706709      17.70641       5551.361     
        48   0             -2180.8736     -6521.8486     -6551.427      -6481.7298     -6532.389      -43.531726      79.624189      20.922786      17.704655      17.704947      17.704635      5549.6948    
        49   0             -2180.8801     -5963.1345     -5993.101      -5923.3004     -5973.002      -43.788695      79.003282      21.131837      17.702876      17.703187      17.702862      5548.0296    
        50   0             -2180.8861     -5404.3692     -5434.6786     -5364.8744     -5413.5545     -44.040135      78.374494      21.340796      17.701097      17.701429      17.701089      5546.3655    
        51   0             -2180.8914     -4845.6066     -4876.2069     -4806.5112     -4854.1016     -44.286021      77.738583      21.549405      17.699318      17.699673      17.699316      5544.7028    
        52   0             -2180.8962     -4286.9345     -4317.7621     -4248.3109     -4294.7306     -44.525697      77.095847      21.757237      17.697539      17.697919      17.697546      5543.0415    
        53   0             -2180.9004     -3728.4927     -3759.4687     -3690.4225     -3735.5868     -44.759238      76.447405      21.963522      17.69576       17.696169      17.695776      5541.3821    
        54   0             -2180.904      -3170.4531     -3201.4713     -3133.0498     -3176.8382     -44.98647       75.793489      22.168329      17.693981      17.694422      17.694008      5539.7248    
        55   0             -2180.9071     -2612.9896     -2643.9104     -2576.4026     -2618.6558     -45.20741       75.134355      22.371297      17.692202      17.692682      17.692243      5538.0702    
        56   0             -2180.9096     -2056.3504     -2086.9797     -2020.7943     -2061.2771     -45.422519      74.46917       22.572469      17.690423      17.690948      17.690481      5536.4193    
        57   0             -2180.9115     -1500.9994     -1531.0595     -1466.777      -1505.1617     -45.630463      73.797428      22.771892      17.688644      17.689225      17.688724      5534.7738    
        58   0             -2180.9129     -947.98876     -977.01934     -915.59658     -951.35036     -45.828698      73.119215      22.966768      17.686865      17.687521      17.686975      5533.1368    
        59   0             -2180.9138     -400.1006      -427.17175     -370.53122     -402.59882     -46.010386      72.434114      23.151943      17.685086      17.685854      17.685243      5531.517     
        60   0             -2180.9145      129.82335      107.82889      153.25535      128.38582     -46.144995      71.740442      23.303461      17.683307      17.684311      17.683566      5529.9537    
        61   0             -2180.9174     -233.58425     -225.68044     -241.73473     -233.33758     -45.637583      71.899129      22.899641      17.683911      17.68609       17.684697      5531.0526    
        62   0             -2180.9188      328.62857      336.70025      319.57795      329.60752     -45.661784      71.079821      22.987578      17.682132      17.684354      17.682934      5529.4019    
        63   0             -2180.9212     -209.65776     -204.06716     -215.32063     -209.58549     -45.168306      71.521073      22.59452       17.683911      17.686003      17.684657      5531.0128    
        64   0             -2180.9235      331.2533       331.25022      330.88884      331.62084     -45.060525      70.64027       22.597823      17.682319      17.684224      17.682977      5529.4332    
        65   0             -2180.9256     -213.52289     -215.06676     -211.52996     -213.97195     -44.602593      71.115409      22.225556      17.684098      17.68591       17.684717      5531.0609    
        66   0             -2180.9285      357.70715      354.83441      360.36418      357.92285     -44.426311      70.138779      22.185073      17.682333      17.684131      17.68294       5529.3968    
        67   0             -2180.9306     -195.81756     -197.07845     -194.17696     -196.19726     -43.962465      70.619711      21.804136      17.684079      17.68591       17.684703      5531.0505    
        68   0             -2180.9338      367.93711      367.45295      368.01035      368.34802     -43.736004      69.617866      21.728694      17.6823        17.684201      17.68295       5529.4117    
        69   0             -2180.9359     -186.47475     -185.425       -187.32375     -186.67549     -43.284974      70.107625      21.354898      17.68405       17.68598       17.684715      5531.0672    
        70   0             -2180.9394      387.48216      387.32765      387.18757      387.93127     -43.017905      69.063181      21.256399      17.682279      17.684202      17.682936      5529.4011    
        71   0             -2180.9414     -171.04073     -170.4855      -171.37027     -171.26642     -42.571313      69.560422      20.884167      17.684058      17.685976      17.684715      5531.0685    
        72   0             -2180.9451      402.05096      401.07683      402.61573      402.46032     -42.25986       68.486413      20.757647      17.682299      17.684197      17.682942      5529.4078    
        73   0             -2180.9471     -156.80343     -156.91182     -156.44648     -157.05198     -41.825384      68.990707      20.391802      17.684075      17.685975      17.684721      5531.0754    
        74   0             -2180.9511      418.75294      417.9471       419.11103      419.20068     -41.466923      67.879653      20.235264      17.682296      17.684209      17.682942      5529.4106    
        75   0             -2180.953      -139.50852     -139.26266     -139.55921     -139.70368     -41.044834      68.389969      19.876062      17.684065      17.685988      17.684719      5531.0757    
        76   0             -2180.9574      437.5822       436.8636       437.8258       438.0572      -40.628168      67.235138      19.682976      17.682291      17.684216      17.68294       5529.4102    
        77   0             -2180.9592     -121.69337     -121.46528     -121.7463      -121.86853     -40.219319      67.754824      19.330693      17.684064      17.685995      17.684718      5531.0774    
        78   0             -2180.9641      457.13774      456.25159      457.53547      457.62615     -39.725252      66.541411      19.088548      17.682292      17.684221      17.682939      5529.412     
        79   0             -2180.9658     -102.45739     -102.39432     -102.36214     -102.61571     -39.330837      67.070477      18.743874      17.684066      17.686         17.684718      5531.0793    
        80   0             -2180.9714      478.65913      477.85061      478.94626      479.18052     -38.728685      65.774537      18.432318      17.682289      17.684232      17.682939      5529.4143    
        81   0             -2180.973      -81.185998     -81.026746     -81.223381     -81.307866     -38.349721      66.313569      18.095923      17.684062      17.686011      17.684717      5531.0813    
        82   0             -2180.9797      503.87027      502.86532      504.33713      504.40835     -37.574829      64.884873      17.672895      17.68229       17.684237      17.682938      5529.4162    
        83   0             -2180.9812     -56.433516     -56.478847     -56.285171     -56.53653      -37.212486      65.434731      17.345242      17.684064      17.686016      17.684717      5531.0835    
        84   0             -2180.9903      535.01126      534.35706      535.06074      535.61598     -36.086202      63.736409      16.692286      17.682285      17.684261      17.682941      5529.423     
        85   0             -2180.9917     -25.783114     -25.497845     -26.034584     -25.816912     -35.743184      64.298731      16.374557      17.684059      17.68604       17.68472       5531.0904    
        86   0             -2181.0096      584.60193      581.11442      587.65613      585.03526     -33.298318      61.594264      14.853481      17.68237       17.684261      17.682981      5529.4622    
        87   0             -2181.0108      25.183572      22.951517      27.580332      25.018867     -32.982713      62.16887       14.549155      17.684133      17.68604       17.684754      5531.1238    
        88   0             -2181.016      -472.72215     -466.90201     -478.41098     -472.85346     -32.029205      62.17112       13.827872      17.685613      17.687819      17.686368      5532.6482    
        89   0             -2181.0171      92.830314      97.345402      87.852657      93.292882     -32.074341      61.389765      13.953034      17.68385       17.68604       17.684594      5530.9857    
        90   0             -2181.0224     -378.50402     -385.71359     -370.2101      -379.58836     -31.107939      61.34824       13.239418      17.685629      17.687326      17.686157      5532.4331    
        91   0             -2181.0236      187.81616      180.14288      195.90776      187.39784     -31.115386      60.539896      13.341013      17.68385       17.685565      17.684382      5530.7709    
        92   0             -2181.0277     -289.75082     -285.7223      -293.7657      -289.76445     -30.344789      60.643053      12.738723      17.685184      17.687344      17.685913      5532.2234    
        93   0             -2181.0292      274.36662      278.52105      269.52703      275.05176     -30.287548      59.79099       12.797829      17.683405      17.685607      17.68415       5530.572     
        94   0             -2181.033      -265.3455      -262.53378     -268.03995     -265.46276     -29.555472      60.014519      12.218143      17.685184      17.687303      17.685895      5532.2046    
        95   0             -2181.035       294.06303      293.96279      293.84336      294.38294     -29.407851      59.10444       12.219342      17.683485      17.685524      17.684157      5530.573     
        96   0             -2181.0383     -245.22981     -246.95177     -243.04042     -245.69724     -28.737505      59.371001      11.679465      17.685264      17.687208      17.685896      5532.2003    
        97   0             -2181.0408      328.08691      325.22247      330.80151      328.23675     -28.50836       58.380944      11.628743      17.683492      17.68543       17.684117      5530.5334    
        98   0             -2181.0441     -217.33884     -218.15875     -216.19092     -217.66687     -27.850872      58.662166      11.092151      17.685219      17.687209      17.685869      5532.1778    
        99   0             -2181.047       349.77742      349.46379      349.6864       350.18208     -27.546138      57.624908      10.990241      17.68344       17.685489      17.684112      5530.5342    
       100   0             -2181.05       -197.17565     -195.5197      -198.73192     -197.27533     -26.924904      57.933602      10.475515      17.68517       17.687268      17.685867      5532.1807    
Loop time of 0.117621 on 1 procs for 100 steps with 500 atoms

106.3% CPU use with 1 MPI tasks x 1 OpenMP threads

Minimization stats:
  Stopping criterion = max iterations
  Energy initial, next-to-last, final = 
     -2179.87434867927  -2181.04695888857  -2181.04997051564
  Force two-norm initial, final = 200.96766 2.3941305
  Force max component initial, final = 116.14665 0.69019027
  Final line search alpha, max atom move = 0.00014476064 9.9912388e-05
  Iterations, force evaluations = 100 100

MPI task timing breakdown:
Section |  min time  |  avg time  |  max time  |%varavg| %total
---------------------------------------------------------------
Pair    | 0.10979    | 0.10979    | 0.10979    |   0.0 | 93.34
Neigh   | 0          | 0          | 0          |   0.0 |  0.00
Comm    | 0.000625   | 0.000625   | 0.000625   |   0.0 |  0.53
Output  | 0.001403   | 0.001403   | 0.001403   |   0.0 |  1.19
Modify  | 0          | 0          | 0          |   0.0 |  0.00
Other   |            | 0.005804   |            |       |  4.93

Nlocal:            500 ave         500 max         500 min
Histogram: 1 0 0 0 0 0 0 0 0 0
Nghost:           1956 ave        1956 max        1956 min
Histogram: 1 0 0 0 0 0 0 0 0 0
Neighs:          33500 ave       33500 max       33500 min
Histogram: 1 0 0 0 0 0 0 0 0 0

Total # of neighbors = 33500
Ave neighs/atom = 67
Neighbor list builds = 0
Dangerous builds = 0
Displacing atoms ...
System init for write_restart ...
OMP_NUM_THREADS environment is not set. Defaulting to 1 thread. (src/comm.cpp:98)
  using 1 OpenMP thread(s) per MPI task
Loaded 1 plugins from F:\Lammps\LAMMPS 64-bit 2Aug2023\plugins

The 'box' command has been removed and will be ignored

Reading restart file ...
  restart file = 2 Aug 2023, LAMMPS = 2 Aug 2023
  restoring atom style atomic from restart
  triclinic box = (0.052414784 0.051366001 0.052066525) to (17.737585 17.738634 17.737933) with tilt (0 0 0)
  1 by 1 by 1 MPI processor grid
  pair style eam/alloy stores no restart info
  500 atoms
  read_restart CPU = 0.000 seconds
Changing box ...
  triclinic box = (0.052414784 0.051366001 0.052066525) to (17.737568 17.738634 17.737933) with tilt (0 0 0)
  triclinic box = (0.052414784 0.051366001 0.052066525) to (17.737568 17.738634 17.737933) with tilt (0 0 0)
  triclinic box = (0.052414784 0.051366001 0.052066525) to (17.737568 17.738634 17.737933) with tilt (0 0 0)
Neighbor list info ...
  update: every = 1 steps, delay = 0 steps, check = yes
  max neighbors/atom: 2000, page size: 100000
  master list distance cutoff = 6.80375
  ghost atom cutoff = 6.80375
  1 neighbor lists, perpetual/occasional/extra = 1 0 0
  (1) pair eam/alloy, perpetual
      attributes: half, newton on
      pair build: half/nsq/newton
      stencil: none
      bin: none
Setting up cg style minimization ...
  Unit style    : metal
  Current step  : 100
Per MPI rank memory allocation (min/avg/max) = 4.483 | 4.483 | 4.483 Mbytes
   Step          Temp          PotEng         Press           Pxx            Pyy            Pzz            Pxy            Pxz            Pyz             Lx             Ly             Lz           Volume    
       100   0             -2181.05       -195.2902      -193.05418     -197.12558     -195.69084     -26.970332      57.956334      10.48161       17.685153      17.687268      17.685867      5532.1752    
       101   0             -2181.2211      766.03531      758.39604      770.71469      768.99522      12.706609      26.743517     -18.307457      17.685153      17.687268      17.685867      5532.1752    
       102   0             -2181.2776      1232.7251      1222.8995      1216.5996      1258.6761      37.401695      11.575944     -29.816813      17.685153      17.687268      17.685867      5532.1752    
       103   0             -2181.288       1185.3107      1175.9763      1157.6052      1222.3505      38.720099      27.983835     -27.333026      17.685153      17.687268      17.685867      5532.1752    
       104   0             -2181.2919      1116.3329      1114.5845      1079.8464      1154.5679      39.516221      32.111762     -22.41904       17.685153      17.687268      17.685867      5532.1752    
       105   0             -2181.2932      1194.1873      1195.8751      1155.7153      1230.9714      40.24984       29.942759     -28.688293      17.685153      17.687268      17.685867      5532.1752    
       106   0             -2181.2936      1186.2226      1187.667       1149.5772      1221.4236      39.613634      29.061105     -31.767546      17.685153      17.687268      17.685867      5532.1752    
       107   0             -2181.2938      1165.454       1166.3443      1129.9224      1200.0952      37.40008       29.867588     -31.644096      17.685153      17.687268      17.685867      5532.1752    
       108   0             -2181.2938      1169.3732      1170.3292      1134.3321      1203.4584      36.776975      29.635177     -31.261293      17.685153      17.687268      17.685867      5532.1752    
       109   0             -2181.2938      1170.9827      1172.3585      1135.5493      1205.0403      36.927855      29.760911     -30.653031      17.685153      17.687268      17.685867      5532.1752    
       110   0             -2181.2938      1168.4951      1170.163       1132.6228      1202.6994      37.257921      29.633486     -30.704424      17.685153      17.687268      17.685867      5532.1752    
       111   0             -2181.2939      1170.002       1171.7947      1134.4212      1203.7901      37.324779      29.40569      -30.272863      17.685153      17.687268      17.685867      5532.1752    
       112   0             -2181.2939      1169.3255      1171.2172      1134.1465      1202.6127      37.28188       29.387285     -30.139304      17.685153      17.687268      17.685867      5532.1752    
       113   0             -2181.2939      1168.9496      1170.6777      1133.8783      1202.2928      37.13179       29.274178     -30.218691      17.685153      17.687268      17.685867      5532.1752    
       114   0             -2181.2939      1169.9894      1171.4435      1135.0236      1203.501       37.084524      29.268694     -30.251111      17.685153      17.687268      17.685867      5532.1752    
       115   0             -2181.2939      1169.7006      1171.1229      1134.6929      1203.2859      37.03782       29.26966      -30.214531      17.685153      17.687268      17.685867      5532.1752    
       116   0             -2181.2939      1169.5432      1171.0193      1134.465       1203.1454      37.051597      29.247017     -30.219407      17.685153      17.687268      17.685867      5532.1752    
       117   0             -2181.2939      1169.6402      1171.1561      1134.536       1203.2285      37.095414      29.263529     -30.202596      17.685153      17.687268      17.685867      5532.1752    
       118   0             -2181.2939      1169.5893      1171.1523      1134.5103      1203.1052      37.06989       29.248592     -30.218749      17.685153      17.687268      17.685867      5532.1752    
       119   0             -2181.2939      1169.608       1171.1769      1134.5465      1203.1005      37.056484      29.262074     -30.239185      17.685153      17.687268      17.685867      5532.1752    
       120   0             -2181.2939      1169.647       1171.2061      1134.5966      1203.1384      37.065961      29.272872     -30.237687      17.685153      17.687268      17.685867      5532.1752    
       121   0             -2181.2939      1169.6383      1171.1918      1134.5922      1203.131       37.064809      29.276849     -30.236083      17.685153      17.687268      17.685867      5532.1752    
       122   0             -2181.2939      1169.6287      1171.1796      1134.5839      1203.1227      37.064284      29.285453     -30.234157      17.685153      17.687268      17.685867      5532.1752    
       123   0             -2181.2939      1169.6311      1171.1763      1134.5899      1203.1272      37.070025      29.284432     -30.232659      17.685153      17.687268      17.685867      5532.1752    
       124   0             -2181.2939      1169.6271      1171.1697      1134.5871      1203.1246      37.070701      29.284573     -30.232721      17.685153      17.687268      17.685867      5532.1752    
       125   0             -2181.2939      1169.6289      1171.171       1134.5881      1203.1277      37.071643      29.28381      -30.235417      17.685153      17.687268      17.685867      5532.1752    
       126   0             -2181.2939      1169.6331      1171.1758      1134.5902      1203.1333      37.0717        29.283776     -30.236434      17.685153      17.687268      17.685867      5532.1752    
       127   0             -2181.2939      1169.632       1171.1757      1134.588       1203.1323      37.071585      29.28492      -30.236036      17.685153      17.687268      17.685867      5532.1752    
       128   0             -2181.2939      1169.6322      1171.1762      1134.588       1203.1325      37.071625      29.284777     -30.236138      17.685153      17.687268      17.685867      5532.1752    
       129   0             -2181.2939      1169.6336      1171.1775      1134.5894      1203.1338      37.07161       29.284941     -30.236513      17.685153      17.687268      17.685867      5532.1752    
       130   0             -2181.2939      1169.6335      1171.1773      1134.5893      1203.1339      37.071793      29.284907     -30.236434      17.685153      17.687268      17.685867      5532.1752    
       131   0             -2181.2939      1169.633       1171.1766      1134.5888      1203.1335      37.071664      29.284942     -30.236389      17.685153      17.687268      17.685867      5532.1752    
       132   0             -2181.2939      1169.6332      1171.1771      1134.5888      1203.1337      37.071623      29.284954     -30.236377      17.685153      17.687268      17.685867      5532.1752    
       133   0             -2181.2939      1169.6334      1171.1774      1134.589       1203.1339      37.071623      29.284929     -30.236348      17.685153      17.687268      17.685867      5532.1752    
       134   0             -2181.2939      1169.6336      1171.1775      1134.5891      1203.1341      37.07156       29.284932     -30.236368      17.685153      17.687268      17.685867      5532.1752    
       135   0             -2181.2939      1169.6337      1171.1776      1134.5893      1203.1342      37.071524      29.284917     -30.236335      17.685153      17.687268      17.685867      5532.1752    
       136   0             -2181.2939      1169.6335      1171.1774      1134.5891      1203.1341      37.071547      29.284885     -30.236322      17.685153      17.687268      17.685867      5532.1752    
       137   0             -2181.2939      1169.6336      1171.1775      1134.5891      1203.1341      37.071542      29.284854     -30.236337      17.685153      17.687268      17.685867      5532.1752    
       138   0             -2181.2939      1169.6336      1171.1775      1134.5891      1203.1341      37.071548      29.284838     -30.236337      17.685153      17.687268      17.685867      5532.1752    
       139   0             -2181.2939      1169.6336      1171.1775      1134.5891      1203.1342      37.071543      29.284848     -30.236326      17.685153      17.687268      17.685867      5532.1752    
       140   0             -2181.2939      1169.6336      1171.1775      1134.5891      1203.1342      37.071543      29.284849     -30.236327      17.685153      17.687268      17.685867      5532.1752    
       141   0             -2181.2939      1169.6336      1171.1775      1134.5891      1203.1341      37.071544      29.284848     -30.236328      17.685153      17.687268      17.685867      5532.1752    
       142   0             -2181.2939      1169.6336      1171.1775      1134.5891      1203.1341      37.071543      29.284848     -30.236329      17.685153      17.687268      17.685867      5532.1752    
       143   0             -2181.2939      1169.6336      1171.1775      1134.5891      1203.1341      37.071543      29.284847     -30.236331      17.685153      17.687268      17.685867      5532.1752    
       144   0             -2181.2939      1169.6336      1171.1775      1134.5891      1203.1341      37.071542      29.284847     -30.236332      17.685153      17.687268      17.685867      5532.1752    
       145   0             -2181.2939      1169.6336      1171.1775      1134.5891      1203.1341      37.071542      29.284847     -30.236332      17.685153      17.687268      17.685867      5532.1752    
       146   0             -2181.2939      1169.6336      1171.1775      1134.5891      1203.1341      37.071542      29.284847     -30.236332      17.685153      17.687268      17.685867      5532.1752    
       147   0             -2181.2939      1169.6336      1171.1775      1134.5891      1203.1341      37.071542      29.284847     -30.236332      17.685153      17.687268      17.685867      5532.1752    
       148   0             -2181.2939      1169.6336      1171.1775      1134.5891      1203.1341      37.071542      29.284846     -30.236332      17.685153      17.687268      17.685867      5532.1752    
       149   0             -2181.2939      1169.6336      1171.1775      1134.5891      1203.1341      37.071542      29.284846     -30.236332      17.685153      17.687268      17.685867      5532.1752    
       150   0             -2181.2939      1169.6336      1171.1775      1134.5891      1203.1341      37.071542      29.284846     -30.236332      17.685153      17.687268      17.685867      5532.1752    
       151   0             -2181.2939      1169.6336      1171.1775      1134.5891      1203.1341      37.071542      29.284846     -30.236332      17.685153      17.687268      17.685867      5532.1752    
       152   0             -2181.2939      1169.6336      1171.1775      1134.5891      1203.1341      37.071542      29.284846     -30.236332      17.685153      17.687268      17.685867      5532.1752    
       153   0             -2181.2939      1169.6336      1171.1775      1134.5891      1203.1341      37.071542      29.284846     -30.236332      17.685153      17.687268      17.685867      5532.1752    
       154   0             -2181.2939      1169.6336      1171.1775      1134.5891      1203.1341      37.071542      29.284846     -30.236332      17.685153      17.687268      17.685867      5532.1752    
       155   0             -2181.2939      1169.6336      1171.1775      1134.5891      1203.1341      37.071542      29.284846     -30.236332      17.685153      17.687268      17.685867      5532.1752    
       156   0             -2181.2939      1169.6336      1171.1775      1134.5891      1203.1341      37.071542      29.284846     -30.236332      17.685153      17.687268      17.685867      5532.1752    
       157   0             -2181.2939      1169.6336      1171.1775      1134.5891      1203.1341      37.071542      29.284846     -30.236332      17.685153      17.687268      17.685867      5532.1752    
       158   0             -2181.2939      1169.6336      1171.1775      1134.5891      1203.1341      37.071542      29.284846     -30.236332      17.685153      17.687268      17.685867      5532.1752    
       159   0             -2181.2939      1169.6336      1171.1775      1134.5891      1203.1341      37.071542      29.284846     -30.236332      17.685153      17.687268      17.685867      5532.1752    
       160   0             -2181.2939      1169.6336      1171.1775      1134.5891      1203.1341      37.071542      29.284846     -30.236332      17.685153      17.687268      17.685867      5532.1752    
Loop time of 0.14051 on 1 procs for 60 steps with 500 atoms

100.1% CPU use with 1 MPI tasks x 1 OpenMP threads

Minimization stats:
  Stopping criterion = force tolerance
  Energy initial, next-to-last, final = 
     -2181.04997859528  -2181.29386836775  -2181.29386836774
  Force two-norm initial, final = 2.079585 7.1794975e-11
  Force max component initial, final = 0.17039154 6.7715703e-12
  Final line search alpha, max atom move = 1 6.7715703e-12
  Iterations, force evaluations = 60 118

MPI task timing breakdown:
Section |  min time  |  avg time  |  max time  |%varavg| %total
---------------------------------------------------------------
Pair    | 0.13795    | 0.13795    | 0.13795    |   0.0 | 98.18
Neigh   | 0          | 0          | 0          |   0.0 |  0.00
Comm    | 0.000708   | 0.000708   | 0.000708   |   0.0 |  0.50
Output  | 0.000915   | 0.000915   | 0.000915   |   0.0 |  0.65
Modify  | 0          | 0          | 0          |   0.0 |  0.00
Other   |            | 0.000941   |            |       |  0.67

Nlocal:            500 ave         500 max         500 min
Histogram: 1 0 0 0 0 0 0 0 0 0
Nghost:           1956 ave        1956 max        1956 min
Histogram: 1 0 0 0 0 0 0 0 0 0
Neighs:          33500 ave       33500 max       33500 min
Histogram: 1 0 0 0 0 0 0 0 0 0

Total # of neighbors = 33500
Ave neighs/atom = 67
Neighbor list builds = 0
Dangerous builds = 0
OMP_NUM_THREADS environment is not set. Defaulting to 1 thread. (src/comm.cpp:98)
  using 1 OpenMP thread(s) per MPI task
Loaded 1 plugins from F:\Lammps\LAMMPS 64-bit 2Aug2023\plugins

The 'box' command has been removed and will be ignored

Reading restart file ...
  restart file = 2 Aug 2023, LAMMPS = 2 Aug 2023
  restoring atom style atomic from restart
  triclinic box = (0.052414784 0.051366001 0.052066525) to (17.737585 17.738634 17.737933) with tilt (0 0 0)
  1 by 1 by 1 MPI processor grid
  pair style eam/alloy stores no restart info
  500 atoms
  read_restart CPU = 0.000 seconds
Changing box ...
  triclinic box = (0.052414784 0.051366001 0.052066525) to (17.737603 17.738634 17.737933) with tilt (0 0 0)
  triclinic box = (0.052414784 0.051366001 0.052066525) to (17.737603 17.738634 17.737933) with tilt (0 0 0)
  triclinic box = (0.052414784 0.051366001 0.052066525) to (17.737603 17.738634 17.737933) with tilt (0 0 0)
Neighbor list info ...
  update: every = 1 steps, delay = 0 steps, check = yes
  max neighbors/atom: 2000, page size: 100000
  master list distance cutoff = 6.80375
  ghost atom cutoff = 6.80375
  1 neighbor lists, perpetual/occasional/extra = 1 0 0
  (1) pair eam/alloy, perpetual
      attributes: half, newton on
      pair build: half/nsq/newton
      stencil: none
      bin: none
Setting up cg style minimization ...
  Unit style    : metal
  Current step  : 100
Per MPI rank memory allocation (min/avg/max) = 4.483 | 4.483 | 4.483 Mbytes
   Step          Temp          PotEng         Press           Pxx            Pyy            Pzz            Pxy            Pxz            Pyz             Lx             Ly             Lz           Volume    
       100   0             -2181.05       -199.02989     -198.01169     -200.25496     -198.82302     -26.968503      57.960451      10.48095       17.685188      17.687268      17.685867      5532.1863    
       101   0             -2181.2211      762.34024      753.49003      767.62698      765.90369      12.705825      26.746217     -18.308081      17.685188      17.687268      17.685867      5532.1863    
       102   0             -2181.2776      1229.0553      1218.0212      1213.5355      1255.6094      37.399252      11.576569     -29.818793      17.685188      17.687268      17.685867      5532.1863    
       103   0             -2181.288       1181.6309      1171.0891      1154.5307      1219.2728      38.717224      27.984116     -27.334106      17.685188      17.687268      17.685867      5532.1863    
       104   0             -2181.2919      1112.6597      1109.7049      1076.7779      1151.4962      39.513441      32.111685     -22.420327      17.685188      17.687268      17.685867      5532.1863    
       105   0             -2181.2932      1190.5156      1190.9962      1152.649       1227.9017      40.247253      29.942806     -28.689409      17.685188      17.687268      17.685867      5532.1863    
       106   0             -2181.2936      1182.5483      1182.7863      1146.5079      1218.3507      39.610873      29.061469     -31.768623      17.685188      17.687268      17.685867      5532.1863    
       107   0             -2181.2938      1161.781       1161.4654      1126.8542      1197.0235      37.397456      29.867834     -31.645105      17.685188      17.687268      17.685867      5532.1863    
       108   0             -2181.2938      1165.701       1165.451       1131.2647      1200.3874      36.774298      29.635422     -31.262329      17.685188      17.687268      17.685867      5532.1863    
       109   0             -2181.2938      1167.3102      1167.4804      1132.4815      1201.9689      36.925079      29.761163     -30.654081      17.685188      17.687268      17.685867      5532.1863    
       110   0             -2181.2939      1164.8231      1165.2855      1129.5554      1199.6284      37.255106      29.633739     -30.705508      17.685188      17.687268      17.685867      5532.1863    
       111   0             -2181.2939      1166.33        1166.9172      1131.3538      1200.7191      37.321977      29.405986     -30.273886      17.685188      17.687268      17.685867      5532.1863    
       112   0             -2181.2939      1165.6533      1166.3396      1131.0788      1199.5415      37.279077      29.38758      -30.140339      17.685188      17.687268      17.685867      5532.1863    
       113   0             -2181.2939      1165.2777      1165.8003      1130.8108      1199.2218      37.128972      29.274495     -30.219724      17.685188      17.687268      17.685867      5532.1863    
       114   0             -2181.2939      1166.3174      1166.566       1131.9562      1200.4301      37.081699      29.269019     -30.252141      17.685188      17.687268      17.685867      5532.1863    
       115   0             -2181.2939      1166.0285      1166.2453      1131.6254      1200.2148      37.034992      29.269968     -30.215557      17.685188      17.687268      17.685867      5532.1863    
       116   0             -2181.2939      1165.8712      1166.1417      1131.3975      1200.0743      37.048776      29.247338     -30.220436      17.685188      17.687268      17.685867      5532.1863    
       117   0             -2181.2939      1165.9682      1166.2785      1131.4685      1200.1575      37.092595      29.263845     -30.203619      17.685188      17.687268      17.685867      5532.1863    
       118   0             -2181.2939      1165.9172      1166.2746      1131.4428      1200.0341      37.067064      29.248912     -30.219779      17.685188      17.687268      17.685867      5532.1863    
       119   0             -2181.2939      1165.9359      1166.2993      1131.479       1200.0295      37.053657      29.262398     -30.240211      17.685188      17.687268      17.685867      5532.1863    
       120   0             -2181.2939      1165.975       1166.3285      1131.5291      1200.0673      37.063136      29.273195     -30.238715      17.685188      17.687268      17.685867      5532.1863    
       121   0             -2181.2939      1165.9663      1166.3142      1131.5247      1200.06        37.061982      29.277174     -30.237109      17.685188      17.687268      17.685867      5532.1863    
       122   0             -2181.2939      1165.9567      1166.3019      1131.5164      1200.0517      37.061459      29.285776     -30.235184      17.685188      17.687268      17.685867      5532.1863    
       123   0             -2181.2939      1165.959       1166.2986      1131.5224      1200.0561      37.0672        29.284755     -30.233686      17.685188      17.687268      17.685867      5532.1863    
       124   0             -2181.2939      1165.9551      1166.2921      1131.5197      1200.0535      37.067876      29.284897     -30.233748      17.685188      17.687268      17.685867      5532.1863    
       125   0             -2181.2939      1165.9569      1166.2933      1131.5206      1200.0566      37.068817      29.284134     -30.236444      17.685188      17.687268      17.685867      5532.1863    
       126   0             -2181.2939      1165.961       1166.2982      1131.5227      1200.0622      37.068874      29.284101     -30.237461      17.685188      17.687268      17.685867      5532.1863    
       127   0             -2181.2939      1165.9599      1166.298       1131.5205      1200.0612      37.06876       29.285244     -30.237063      17.685188      17.687268      17.685867      5532.1863    
       128   0             -2181.2939      1165.9602      1166.2985      1131.5205      1200.0615      37.068799      29.285101     -30.237166      17.685188      17.687268      17.685867      5532.1863    
       129   0             -2181.2939      1165.9615      1166.2999      1131.5219      1200.0628      37.068784      29.285265     -30.23754       17.685188      17.687268      17.685867      5532.1863    
       130   0             -2181.2939      1165.9614      1166.2996      1131.5219      1200.0628      37.068967      29.285231     -30.237462      17.685188      17.687268      17.685867      5532.1863    
       131   0             -2181.2939      1165.9609      1166.299       1131.5213      1200.0624      37.068838      29.285266     -30.237417      17.685188      17.687268      17.685867      5532.1863    
       132   0             -2181.2939      1165.9611      1166.2994      1131.5213      1200.0626      37.068797      29.285278     -30.237405      17.685188      17.687268      17.685867      5532.1863    
       133   0             -2181.2939      1165.9614      1166.2998      1131.5215      1200.0628      37.068798      29.285253     -30.237375      17.685188      17.687268      17.685867      5532.1863    
       134   0             -2181.2939      1165.9615      1166.2999      1131.5217      1200.0631      37.068735      29.285256     -30.237395      17.685188      17.687268      17.685867      5532.1863    
       135   0             -2181.2939      1165.9616      1166.2999      1131.5218      1200.0631      37.068698      29.285241     -30.237363      17.685188      17.687268      17.685867      5532.1863    
       136   0             -2181.2939      1165.9615      1166.2998      1131.5216      1200.063       37.068722      29.28521      -30.23735       17.685188      17.687268      17.685867      5532.1863    
       137   0             -2181.2939      1165.9615      1166.2998      1131.5216      1200.0631      37.068717      29.285178     -30.237365      17.685188      17.687268      17.685867      5532.1863    
       138   0             -2181.2939      1165.9615      1166.2998      1131.5216      1200.0631      37.068722      29.285162     -30.237365      17.685188      17.687268      17.685867      5532.1863    
       139   0             -2181.2939      1165.9615      1166.2999      1131.5216      1200.0631      37.068717      29.285172     -30.237354      17.685188      17.687268      17.685867      5532.1863    
       140   0             -2181.2939      1165.9615      1166.2999      1131.5216      1200.0631      37.068717      29.285173     -30.237355      17.685188      17.687268      17.685867      5532.1863    
       141   0             -2181.2939      1165.9615      1166.2999      1131.5216      1200.0631      37.068718      29.285172     -30.237356      17.685188      17.687268      17.685867      5532.1863    
       142   0             -2181.2939      1165.9615      1166.2999      1131.5216      1200.0631      37.068718      29.285173     -30.237357      17.685188      17.687268      17.685867      5532.1863    
       143   0             -2181.2939      1165.9615      1166.2999      1131.5216      1200.0631      37.068717      29.285172     -30.237358      17.685188      17.687268      17.685867      5532.1863    
       144   0             -2181.2939      1165.9615      1166.2999      1131.5216      1200.0631      37.068717      29.285171     -30.237359      17.685188      17.687268      17.685867      5532.1863    
       145   0             -2181.2939      1165.9615      1166.2999      1131.5216      1200.0631      37.068716      29.285171     -30.237359      17.685188      17.687268      17.685867      5532.1863    
       146   0             -2181.2939      1165.9615      1166.2999      1131.5216      1200.0631      37.068716      29.285171     -30.23736       17.685188      17.687268      17.685867      5532.1863    
       147   0             -2181.2939      1165.9615      1166.2999      1131.5216      1200.0631      37.068716      29.285171     -30.23736       17.685188      17.687268      17.685867      5532.1863    
       148   0             -2181.2939      1165.9615      1166.2999      1131.5216      1200.0631      37.068716      29.285171     -30.23736       17.685188      17.687268      17.685867      5532.1863    
       149   0             -2181.2939      1165.9615      1166.2999      1131.5216      1200.0631      37.068716      29.28517      -30.23736       17.685188      17.687268      17.685867      5532.1863    
       150   0             -2181.2939      1165.9615      1166.2999      1131.5216      1200.0631      37.068716      29.28517      -30.23736       17.685188      17.687268      17.685867      5532.1863    
       151   0             -2181.2939      1165.9615      1166.2999      1131.5216      1200.0631      37.068716      29.28517      -30.23736       17.685188      17.687268      17.685867      5532.1863    
       152   0             -2181.2939      1165.9615      1166.2999      1131.5216      1200.0631      37.068716      29.28517      -30.23736       17.685188      17.687268      17.685867      5532.1863    
       153   0             -2181.2939      1165.9615      1166.2999      1131.5216      1200.0631      37.068716      29.28517      -30.23736       17.685188      17.687268      17.685867      5532.1863    
       154   0             -2181.2939      1165.9615      1166.2999      1131.5216      1200.0631      37.068716      29.28517      -30.23736       17.685188      17.687268      17.685867      5532.1863    
       155   0             -2181.2939      1165.9615      1166.2999      1131.5216      1200.0631      37.068716      29.28517      -30.23736       17.685188      17.687268      17.685867      5532.1863    
       156   0             -2181.2939      1165.9615      1166.2999      1131.5216      1200.0631      37.068716      29.28517      -30.23736       17.685188      17.687268      17.685867      5532.1863    
       157   0             -2181.2939      1165.9615      1166.2999      1131.5216      1200.0631      37.068716      29.28517      -30.23736       17.685188      17.687268      17.685867      5532.1863    
       158   0             -2181.2939      1165.9615      1166.2999      1131.5216      1200.0631      37.068716      29.28517      -30.23736       17.685188      17.687268      17.685867      5532.1863    
       159   0             -2181.2939      1165.9615      1166.2999      1131.5216      1200.0631      37.068716      29.28517      -30.23736       17.685188      17.687268      17.685867      5532.1863    
       160   0             -2181.2939      1165.9615      1166.2999      1131.5216      1200.0631      37.068716      29.28517      -30.23736       17.685188      17.687268      17.685867      5532.1863    
Loop time of 0.152745 on 1 procs for 60 steps with 500 atoms

102.3% CPU use with 1 MPI tasks x 1 OpenMP threads

Minimization stats:
  Stopping criterion = force tolerance
  Energy initial, next-to-last, final = 
     -2181.04997724496  -2181.29387643887  -2181.29387643886
  Force two-norm initial, final = 2.0796349 7.1791861e-11
  Force max component initial, final = 0.17039227 6.7986927e-12
  Final line search alpha, max atom move = 1 6.7986927e-12
  Iterations, force evaluations = 60 118

MPI task timing breakdown:
Section |  min time  |  avg time  |  max time  |%varavg| %total
---------------------------------------------------------------
Pair    | 0.14966    | 0.14966    | 0.14966    |   0.0 | 97.98
Neigh   | 0          | 0          | 0          |   0.0 |  0.00
Comm    | 0.000772   | 0.000772   | 0.000772   |   0.0 |  0.51
Output  | 0.00107    | 0.00107    | 0.00107    |   0.0 |  0.70
Modify  | 0          | 0          | 0          |   0.0 |  0.00
Other   |            | 0.00124    |            |       |  0.81

Nlocal:            500 ave         500 max         500 min
Histogram: 1 0 0 0 0 0 0 0 0 0
Nghost:           1956 ave        1956 max        1956 min
Histogram: 1 0 0 0 0 0 0 0 0 0
Neighs:          33500 ave       33500 max       33500 min
Histogram: 1 0 0 0 0 0 0 0 0 0

Total # of neighbors = 33500
Ave neighs/atom = 67
Neighbor list builds = 0
Dangerous builds = 0
OMP_NUM_THREADS environment is not set. Defaulting to 1 thread. (src/comm.cpp:98)
  using 1 OpenMP thread(s) per MPI task
Loaded 1 plugins from F:\Lammps\LAMMPS 64-bit 2Aug2023\plugins

The 'box' command has been removed and will be ignored

Reading restart file ...
  restart file = 2 Aug 2023, LAMMPS = 2 Aug 2023
  restoring atom style atomic from restart
  triclinic box = (0.052414784 0.051366001 0.052066525) to (17.737585 17.738634 17.737933) with tilt (0 0 0)
  1 by 1 by 1 MPI processor grid
  pair style eam/alloy stores no restart info
  500 atoms
  read_restart CPU = 0.000 seconds
Changing box ...
  triclinic box = (0.052414784 0.051366001 0.052066525) to (17.737585 17.738616 17.737933) with tilt (0 0 0)
  triclinic box = (0.052414784 0.051366001 0.052066525) to (17.737585 17.738616 17.737933) with tilt (0 0 0)
Neighbor list info ...
  update: every = 1 steps, delay = 0 steps, check = yes
  max neighbors/atom: 2000, page size: 100000
  master list distance cutoff = 6.80375
  ghost atom cutoff = 6.80375
  1 neighbor lists, perpetual/occasional/extra = 1 0 0
  (1) pair eam/alloy, perpetual
      attributes: half, newton on
      pair build: half/nsq/newton
      stencil: none
      bin: none
Setting up cg style minimization ...
  Unit style    : metal
  Current step  : 100
Per MPI rank memory allocation (min/avg/max) = 4.483 | 4.483 | 4.483 Mbytes
   Step          Temp          PotEng         Press           Pxx            Pyy            Pzz            Pxy            Pxz            Pyz             Lx             Ly             Lz           Volume    
       100   0             -2181.05       -195.28632     -193.96824     -196.2024      -195.68834     -26.97024       57.956544      10.48221       17.68517       17.68725       17.685867      5532.1752    
       101   0             -2181.2211      766.04567      757.49344      771.63974      769.00383      12.706371      26.743438     -18.307308      17.68517       17.68725       17.685867      5532.1752    
       102   0             -2181.2776      1232.7283      1221.9909      1217.5164      1258.6776      37.400662      11.575615     -29.816024      17.68517       17.68725       17.685867      5532.1752    
       103   0             -2181.288       1185.3245      1175.0786      1158.5326      1222.3624      38.719114      27.982501     -27.333037      17.68517       17.68725       17.685867      5532.1752    
       104   0             -2181.2919      1116.339       1113.6797      1080.7653      1154.5721      39.514917      32.110654     -22.41876       17.68517       17.68725       17.685867      5532.1752    
       105   0             -2181.2932      1194.1912      1194.9674      1156.6328      1230.9732      40.248545      29.941581     -28.688092      17.68517       17.68725       17.685867      5532.1752    
       106   0             -2181.2936      1186.2291      1186.7624      1150.497       1221.428       39.612368      29.060127     -31.767277      17.68517       17.68725       17.685867      5532.1752    
       107   0             -2181.2938      1165.4595      1165.4389      1130.8409      1200.0985      37.398794      29.866531     -31.643715      17.68517       17.68725       17.685867      5532.1752    
       108   0             -2181.2938      1169.3786      1169.4237      1135.2505      1203.4617      36.77568       29.634148     -31.260935      17.68517       17.68725       17.685867      5532.1752    
       109   0             -2181.2938      1170.9885      1171.4537      1136.468       1205.0439      36.926582      29.759892     -30.652664      17.68517       17.68725       17.685867      5532.1752    
       110   0             -2181.2938      1168.5006      1169.258       1133.5412      1202.7027      37.256628      29.632488     -30.704024      17.68517       17.68725       17.685867      5532.1752    
       111   0             -2181.2939      1170.0074      1170.8895      1135.3394      1203.7933      37.323466      29.404716     -30.272428      17.68517       17.68725       17.685867      5532.1752    
       112   0             -2181.2939      1169.3312      1170.3123      1135.065       1202.6162      37.280592      29.386314     -30.138877      17.68517       17.68725       17.685867      5532.1752    
       113   0             -2181.2939      1168.9552      1169.7728      1134.7966      1202.2962      37.130491      29.273222     -30.218263      17.68517       17.68725       17.685867      5532.1752    
       114   0             -2181.2939      1169.9949      1170.5385      1135.9419      1203.5044      37.083208      29.267748     -30.250673      17.68517       17.68725       17.685867      5532.1752    
       115   0             -2181.2939      1169.7061      1170.2179      1135.6113      1203.2892      37.036505      29.268699     -30.214092      17.68517       17.68725       17.685867      5532.1752    
       116   0             -2181.2939      1169.5488      1170.1143      1135.3834      1203.1487      37.050282      29.246066     -30.218972      17.68517       17.68725       17.685867      5532.1752    
       117   0             -2181.2939      1169.6458      1170.2511      1135.4544      1203.2319      37.0941        29.262577     -30.202159      17.68517       17.68725       17.685867      5532.1752    
       118   0             -2181.2939      1169.5948      1170.2472      1135.4287      1203.1086      37.068576      29.247641     -30.218317      17.68517       17.68725       17.685867      5532.1752    
       119   0             -2181.2939      1169.6135      1170.2719      1135.4649      1203.1039      37.05517       29.261126     -30.238748      17.68517       17.68725       17.685867      5532.1752    
       120   0             -2181.2939      1169.6526      1170.3011      1135.5149      1203.1417      37.064648      29.271924     -30.237253      17.68517       17.68725       17.685867      5532.1752    
       121   0             -2181.2939      1169.6439      1170.2868      1135.5105      1203.1344      37.063495      29.275901     -30.235648      17.68517       17.68725       17.685867      5532.1752    
       122   0             -2181.2939      1169.6343      1170.2745      1135.5023      1203.1261      37.062971      29.284505     -30.233722      17.68517       17.68725       17.685867      5532.1752    
       123   0             -2181.2939      1169.6367      1170.2712      1135.5082      1203.1305      37.068712      29.283484     -30.232224      17.68517       17.68725       17.685867      5532.1752    
       124   0             -2181.2939      1169.6327      1170.2647      1135.5055      1203.1279      37.069388      29.283625     -30.232287      17.68517       17.68725       17.685867      5532.1752    
       125   0             -2181.2939      1169.6345      1170.2659      1135.5064      1203.1311      37.07033       29.282862     -30.234982      17.68517       17.68725       17.685867      5532.1752    
       126   0             -2181.2939      1169.6387      1170.2708      1135.5086      1203.1366      37.070387      29.282829     -30.235999      17.68517       17.68725       17.685867      5532.1752    
       127   0             -2181.2939      1169.6376      1170.2706      1135.5064      1203.1356      37.070272      29.283972     -30.235602      17.68517       17.68725       17.685867      5532.1752    
       128   0             -2181.2939      1169.6378      1170.2711      1135.5064      1203.1359      37.070312      29.283829     -30.235704      17.68517       17.68725       17.685867      5532.1752    
       129   0             -2181.2939      1169.6391      1170.2725      1135.5077      1203.1372      37.070296      29.283994     -30.236078      17.68517       17.68725       17.685867      5532.1752    
       130   0             -2181.2939      1169.6391      1170.2722      1135.5077      1203.1373      37.07048       29.283959     -30.236         17.68517       17.68725       17.685867      5532.1752    
       131   0             -2181.2939      1169.6385      1170.2716      1135.5071      1203.1368      37.070351      29.283994     -30.235955      17.68517       17.68725       17.685867      5532.1752    
       132   0             -2181.2939      1169.6388      1170.272       1135.5072      1203.137       37.070309      29.284006     -30.235943      17.68517       17.68725       17.685867      5532.1752    
       133   0             -2181.2939      1169.639       1170.2724      1135.5073      1203.1372      37.07031       29.283981     -30.235914      17.68517       17.68725       17.685867      5532.1752    
       134   0             -2181.2939      1169.6392      1170.2725      1135.5075      1203.1375      37.070247      29.283984     -30.235933      17.68517       17.68725       17.685867      5532.1752    
       135   0             -2181.2939      1169.6392      1170.2725      1135.5076      1203.1376      37.070211      29.283969     -30.235901      17.68517       17.68725       17.685867      5532.1752    
       136   0             -2181.2939      1169.6391      1170.2724      1135.5075      1203.1374      37.070234      29.283938     -30.235888      17.68517       17.68725       17.685867      5532.1752    
       137   0             -2181.2939      1169.6391      1170.2724      1135.5075      1203.1375      37.070229      29.283906     -30.235903      17.68517       17.68725       17.685867      5532.1752    
       138   0             -2181.2939      1169.6391      1170.2724      1135.5075      1203.1375      37.070235      29.28389      -30.235903      17.68517       17.68725       17.685867      5532.1752    
       139   0             -2181.2939      1169.6392      1170.2725      1135.5075      1203.1375      37.07023       29.2839       -30.235892      17.68517       17.68725       17.685867      5532.1752    
       140   0             -2181.2939      1169.6392      1170.2725      1135.5075      1203.1375      37.07023       29.283901     -30.235893      17.68517       17.68725       17.685867      5532.1752    
       141   0             -2181.2939      1169.6391      1170.2725      1135.5075      1203.1375      37.07023       29.283901     -30.235894      17.68517       17.68725       17.685867      5532.1752    
       142   0             -2181.2939      1169.6391      1170.2725      1135.5075      1203.1375      37.07023       29.283901     -30.235895      17.68517       17.68725       17.685867      5532.1752    
       143   0             -2181.2939      1169.6392      1170.2725      1135.5075      1203.1375      37.07023       29.2839       -30.235897      17.68517       17.68725       17.685867      5532.1752    
       144   0             -2181.2939      1169.6392      1170.2725      1135.5075      1203.1375      37.070229      29.283899     -30.235897      17.68517       17.68725       17.685867      5532.1752    
       145   0             -2181.2939      1169.6392      1170.2725      1135.5075      1203.1375      37.070229      29.283899     -30.235898      17.68517       17.68725       17.685867      5532.1752    
       146   0             -2181.2939      1169.6392      1170.2725      1135.5075      1203.1375      37.070229      29.283899     -30.235898      17.68517       17.68725       17.685867      5532.1752    
       147   0             -2181.2939      1169.6392      1170.2725      1135.5075      1203.1375      37.070229      29.283899     -30.235898      17.68517       17.68725       17.685867      5532.1752    
       148   0             -2181.2939      1169.6392      1170.2725      1135.5075      1203.1375      37.070229      29.283899     -30.235898      17.68517       17.68725       17.685867      5532.1752    
       149   0             -2181.2939      1169.6392      1170.2725      1135.5075      1203.1375      37.070229      29.283899     -30.235898      17.68517       17.68725       17.685867      5532.1752    
       150   0             -2181.2939      1169.6392      1170.2725      1135.5075      1203.1375      37.070229      29.283899     -30.235898      17.68517       17.68725       17.685867      5532.1752    
       151   0             -2181.2939      1169.6392      1170.2725      1135.5075      1203.1375      37.070229      29.283899     -30.235898      17.68517       17.68725       17.685867      5532.1752    
       152   0             -2181.2939      1169.6392      1170.2725      1135.5075      1203.1375      37.070229      29.283899     -30.235898      17.68517       17.68725       17.685867      5532.1752    
       153   0             -2181.2939      1169.6392      1170.2725      1135.5075      1203.1375      37.070229      29.283899     -30.235898      17.68517       17.68725       17.685867      5532.1752    
       154   0             -2181.2939      1169.6392      1170.2725      1135.5075      1203.1375      37.070229      29.283899     -30.235898      17.68517       17.68725       17.685867      5532.1752    
       155   0             -2181.2939      1169.6392      1170.2725      1135.5075      1203.1375      37.070229      29.283899     -30.235898      17.68517       17.68725       17.685867      5532.1752    
       156   0             -2181.2939      1169.6392      1170.2725      1135.5075      1203.1375      37.070229      29.283899     -30.235898      17.68517       17.68725       17.685867      5532.1752    
       157   0             -2181.2939      1169.6392      1170.2725      1135.5075      1203.1375      37.070229      29.283899     -30.235898      17.68517       17.68725       17.685867      5532.1752    
       158   0             -2181.2939      1169.6392      1170.2725      1135.5075      1203.1375      37.070229      29.283899     -30.235898      17.68517       17.68725       17.685867      5532.1752    
       159   0             -2181.2939      1169.6392      1170.2725      1135.5075      1203.1375      37.070229      29.283899     -30.235898      17.68517       17.68725       17.685867      5532.1752    
       160   0             -2181.2939      1169.6392      1170.2725      1135.5075      1203.1375      37.070229      29.283899     -30.235898      17.68517       17.68725       17.685867      5532.1752    
Loop time of 0.139833 on 1 procs for 60 steps with 500 atoms

100.6% CPU use with 1 MPI tasks x 1 OpenMP threads

Minimization stats:
  Stopping criterion = force tolerance
  Energy initial, next-to-last, final = 
     -2181.04997860616  -2181.29386849094  -2181.29386849094
  Force two-norm initial, final = 2.0795845 7.1769655e-11
  Force max component initial, final = 0.17039044 6.8039064e-12
  Final line search alpha, max atom move = 1 6.8039064e-12
  Iterations, force evaluations = 60 118

MPI task timing breakdown:
Section |  min time  |  avg time  |  max time  |%varavg| %total
---------------------------------------------------------------
Pair    | 0.13727    | 0.13727    | 0.13727    |   0.0 | 98.17
Neigh   | 0          | 0          | 0          |   0.0 |  0.00
Comm    | 0.000683   | 0.000683   | 0.000683   |   0.0 |  0.49
Output  | 0.000932   | 0.000932   | 0.000932   |   0.0 |  0.67
Modify  | 0          | 0          | 0          |   0.0 |  0.00
Other   |            | 0.000949   |            |       |  0.68

Nlocal:            500 ave         500 max         500 min
Histogram: 1 0 0 0 0 0 0 0 0 0
Nghost:           1956 ave        1956 max        1956 min
Histogram: 1 0 0 0 0 0 0 0 0 0
Neighs:          33500 ave       33500 max       33500 min
Histogram: 1 0 0 0 0 0 0 0 0 0

Total # of neighbors = 33500
Ave neighs/atom = 67
Neighbor list builds = 0
Dangerous builds = 0
OMP_NUM_THREADS environment is not set. Defaulting to 1 thread. (src/comm.cpp:98)
  using 1 OpenMP thread(s) per MPI task
Loaded 1 plugins from F:\Lammps\LAMMPS 64-bit 2Aug2023\plugins

The 'box' command has been removed and will be ignored

Reading restart file ...
  restart file = 2 Aug 2023, LAMMPS = 2 Aug 2023
  restoring atom style atomic from restart
  triclinic box = (0.052414784 0.051366001 0.052066525) to (17.737585 17.738634 17.737933) with tilt (0 0 0)
  1 by 1 by 1 MPI processor grid
  pair style eam/alloy stores no restart info
  500 atoms
  read_restart CPU = 0.000 seconds
Changing box ...
  triclinic box = (0.052414784 0.051366001 0.052066525) to (17.737585 17.738652 17.737933) with tilt (0 0 0)
  triclinic box = (0.052414784 0.051366001 0.052066525) to (17.737585 17.738652 17.737933) with tilt (0 0 0)
Neighbor list info ...
  update: every = 1 steps, delay = 0 steps, check = yes
  max neighbors/atom: 2000, page size: 100000
  master list distance cutoff = 6.80375
  ghost atom cutoff = 6.80375
  1 neighbor lists, perpetual/occasional/extra = 1 0 0
  (1) pair eam/alloy, perpetual
      attributes: half, newton on
      pair build: half/nsq/newton
      stencil: none
      bin: none
Setting up cg style minimization ...
  Unit style    : metal
  Current step  : 100
Per MPI rank memory allocation (min/avg/max) = 4.483 | 4.483 | 4.483 Mbytes
   Step          Temp          PotEng         Press           Pxx            Pyy            Pzz            Pxy            Pxz            Pyz             Lx             Ly             Lz           Volume    
       100   0             -2181.05       -199.03377     -197.09763     -201.17815     -198.82552     -26.968596      57.960241      10.48035       17.68517       17.687286      17.685867      5532.1863    
       101   0             -2181.2211      762.32988      754.39264      766.70193      765.89508      12.706063      26.746297     -18.30823       17.68517       17.687286      17.685867      5532.1863    
       102   0             -2181.2776      1229.0521      1218.9298      1212.6188      1255.6078      37.400284      11.576898     -29.819582      17.68517       17.687286      17.685867      5532.1863    
       103   0             -2181.288       1181.617       1171.9868      1153.6033      1219.2609      38.718209      27.985448     -27.334096      17.68517       17.687286      17.685867      5532.1863    
       104   0             -2181.2919      1112.6536      1110.6097      1075.859       1151.492       39.514745      32.112793     -22.420608      17.68517       17.687286      17.685867      5532.1863    
       105   0             -2181.2932      1190.5117      1191.9038      1151.7315      1227.8999      40.248548      29.943983     -28.68961       17.68517       17.687286      17.685867      5532.1863    
       106   0             -2181.2936      1182.5418      1183.691       1145.5881      1218.3463      39.612139      29.062446     -31.768892      17.68517       17.687286      17.685867      5532.1863    
       107   0             -2181.2938      1161.7755      1162.3708      1125.9356      1197.0202      37.398743      29.868891     -31.645489      17.68517       17.687286      17.685867      5532.1863    
       108   0             -2181.2938      1165.6956      1166.3564      1130.3463      1200.3842      36.775592      29.63645      -31.262687      17.68517       17.687286      17.685867      5532.1863    
       109   0             -2181.2938      1167.3044      1168.3852      1131.5628      1201.9653      36.926352      29.76218      -30.654447      17.68517       17.687286      17.685867      5532.1863    
       110   0             -2181.2939      1164.8175      1166.1905      1128.637       1199.6251      37.256399      29.634738     -30.705908      17.68517       17.687286      17.685867      5532.1863    
       111   0             -2181.2939      1166.3246      1167.8223      1130.4355      1200.7159      37.323291      29.406959     -30.274322      17.68517       17.687286      17.685867      5532.1863    
       112   0             -2181.2939      1165.6476      1167.2444      1130.1604      1199.5381      37.280364      29.388551     -30.140766      17.68517       17.687286      17.685867      5532.1863    
       113   0             -2181.2939      1165.2721      1166.7053      1129.8925      1199.2185      37.130271      29.275451     -30.220154      17.68517       17.687286      17.685867      5532.1863    
       114   0             -2181.2939      1166.3119      1167.4711      1131.0378      1200.4267      37.083014      29.269965     -30.252579      17.68517       17.687286      17.685867      5532.1863    
       115   0             -2181.2939      1166.0229      1167.1503      1130.707       1200.2114      37.036308      29.270929     -30.215996      17.68517       17.687286      17.685867      5532.1863    
       116   0             -2181.2939      1165.8656      1167.0467      1130.4792      1200.071       37.050091      29.248289     -30.22087       17.68517       17.687286      17.685867      5532.1863    
       117   0             -2181.2939      1165.9626      1167.1835      1130.5502      1200.1541      37.093909      29.264798     -30.204056      17.68517       17.687286      17.685867      5532.1863    
       118   0             -2181.2939      1165.9116      1167.1796      1130.5245      1200.0308      37.068378      29.249863     -30.220211      17.68517       17.687286      17.685867      5532.1863    
       119   0             -2181.2939      1165.9304      1167.2043      1130.5607      1200.0261      37.054971      29.263346     -30.240648      17.68517       17.687286      17.685867      5532.1863    
       120   0             -2181.2939      1165.9694      1167.2335      1130.6107      1200.064       37.064449      29.274142     -30.23915       17.68517       17.687286      17.685867      5532.1863    
       121   0             -2181.2939      1165.9607      1167.2192      1130.6063      1200.0566      37.063295      29.278122     -30.237544      17.68517       17.687286      17.685867      5532.1863    
       122   0             -2181.2939      1165.9511      1167.207       1130.5981      1200.0483      37.062772      29.286724     -30.235619      17.68517       17.687286      17.685867      5532.1863    
       123   0             -2181.2939      1165.9535      1167.2037      1130.604       1200.0528      37.068512      29.285703     -30.23412       17.68517       17.687286      17.685867      5532.1863    
       124   0             -2181.2939      1165.9495      1167.1971      1130.6013      1200.0502      37.069189      29.285845     -30.234183      17.68517       17.687286      17.685867      5532.1863    
       125   0             -2181.2939      1165.9513      1167.1984      1130.6022      1200.0533      37.07013       29.285081     -30.236879      17.68517       17.687286      17.685867      5532.1863    
       126   0             -2181.2939      1165.9555      1167.2032      1130.6044      1200.0589      37.070187      29.285048     -30.237895      17.68517       17.687286      17.685867      5532.1863    
       127   0             -2181.2939      1165.9544      1167.2031      1130.6022      1200.0579      37.070073      29.286191     -30.237497      17.68517       17.687286      17.685867      5532.1863    
       128   0             -2181.2939      1165.9546      1167.2036      1130.6022      1200.0581      37.070112      29.286048     -30.2376        17.68517       17.687286      17.685867      5532.1863    
       129   0             -2181.2939      1165.956       1167.2049      1130.6035      1200.0594      37.070097      29.286213     -30.237974      17.68517       17.687286      17.685867      5532.1863    
       130   0             -2181.2939      1165.9559      1167.2047      1130.6035      1200.0595      37.07028       29.286178     -30.237896      17.68517       17.687286      17.685867      5532.1863    
       131   0             -2181.2939      1165.9553      1167.204       1130.6029      1200.059       37.070152      29.286213     -30.237851      17.68517       17.687286      17.685867      5532.1863    
       132   0             -2181.2939      1165.9556      1167.2045      1130.603       1200.0593      37.07011       29.286225     -30.237839      17.68517       17.687286      17.685867      5532.1863    
       133   0             -2181.2939      1165.9558      1167.2048      1130.6031      1200.0595      37.070111      29.2862       -30.237809      17.68517       17.687286      17.685867      5532.1863    
       134   0             -2181.2939      1165.956       1167.2049      1130.6033      1200.0597      37.070048      29.286203     -30.237829      17.68517       17.687286      17.685867      5532.1863    
       135   0             -2181.2939      1165.9561      1167.205       1130.6034      1200.0598      37.070011      29.286188     -30.237797      17.68517       17.687286      17.685867      5532.1863    
       136   0             -2181.2939      1165.9559      1167.2048      1130.6033      1200.0597      37.070035      29.286157     -30.237784      17.68517       17.687286      17.685867      5532.1863    
[...]
       153   0             -2181.2939      1167.7982      1168.74        1133.0555      1201.5991      38.246072      29.285092     -30.236719      17.68517       17.687268      17.685867      5532.1807    
       154   0             -2181.2939      1167.7982      1168.74        1133.0555      1201.5991      38.246072      29.285092     -30.236719      17.68517       17.687268      17.685867      5532.1807    
       155   0             -2181.2939      1167.7982      1168.74        1133.0555      1201.5991      38.246072      29.285092     -30.236719      17.68517       17.687268      17.685867      5532.1807    
       156   0             -2181.2939      1167.7982      1168.74        1133.0555      1201.5991      38.246072      29.285092     -30.236719      17.68517       17.687268      17.685867      5532.1807    
       157   0             -2181.2939      1167.7982      1168.74        1133.0555      1201.5991      38.246072      29.285092     -30.236719      17.68517       17.687268      17.685867      5532.1807    
       158   0             -2181.2939      1167.7982      1168.74        1133.0555      1201.5991      38.246072      29.285092     -30.236719      17.68517       17.687268      17.685867      5532.1807    
       159   0             -2181.2939      1167.7982      1168.74        1133.0555      1201.5991      38.246072      29.285092     -30.236719      17.68517       17.687268      17.685867      5532.1807    
       160   0             -2181.2939      1167.7982      1168.74        1133.0555      1201.5991      38.246072      29.285092     -30.236719      17.68517       17.687268      17.685867      5532.1807    
Loop time of 0.147398 on 1 procs for 60 steps with 500 atoms

95.4% CPU use with 1 MPI tasks x 1 OpenMP threads

Minimization stats:
  Stopping criterion = force tolerance
  Energy initial, next-to-last, final = 
     -2181.04997801548  -2181.29387227749  -2181.29387227749
  Force two-norm initial, final = 2.0796088 7.176549e-11
  Force max component initial, final = 0.17039196 6.7812882e-12
  Final line search alpha, max atom move = 1 6.7812882e-12
  Iterations, force evaluations = 60 118

MPI task timing breakdown:
Section |  min time  |  avg time  |  max time  |%varavg| %total
---------------------------------------------------------------
Pair    | 0.14448    | 0.14448    | 0.14448    |   0.0 | 98.02
Neigh   | 0          | 0          | 0          |   0.0 |  0.00
Comm    | 0.000776   | 0.000776   | 0.000776   |   0.0 |  0.53
Output  | 0.001085   | 0.001085   | 0.001085   |   0.0 |  0.74
Modify  | 0          | 0          | 0          |   0.0 |  0.00
Other   |            | 0.00106    |            |       |  0.72

Nlocal:            500 ave         500 max         500 min
Histogram: 1 0 0 0 0 0 0 0 0 0
Nghost:           1956 ave        1956 max        1956 min
Histogram: 1 0 0 0 0 0 0 0 0 0
Neighs:          33500 ave       33500 max       33500 min
Histogram: 1 0 0 0 0 0 0 0 0 0

Total # of neighbors = 33500
Ave neighs/atom = 67
Neighbor list builds = 0
Dangerous builds = 0
OMP_NUM_THREADS environment is not set. Defaulting to 1 thread. (src/comm.cpp:98)
  using 1 OpenMP thread(s) per MPI task
Loaded 1 plugins from F:\Lammps\LAMMPS 64-bit 2Aug2023\plugins

The 'box' command has been removed and will be ignored

Reading restart file ...
  restart file = 2 Aug 2023, LAMMPS = 2 Aug 2023
  restoring atom style atomic from restart
  triclinic box = (0.052414784 0.051366001 0.052066525) to (17.737585 17.738634 17.737933) with tilt (0 0 0)
  1 by 1 by 1 MPI processor grid
  pair style eam/alloy stores no restart info
  500 atoms
  read_restart CPU = 0.000 seconds
Changing box ...
  triclinic box = (0.052414784 0.051366001 0.052066525) to (17.737585 17.738634 17.737933) with tilt (1.7687268e-05 0 0)
Neighbor list info ...
  update: every = 1 steps, delay = 0 steps, check = yes
  max neighbors/atom: 2000, page size: 100000
  master list distance cutoff = 6.80375
  ghost atom cutoff = 6.80375
  1 neighbor lists, perpetual/occasional/extra = 1 0 0
  (1) pair eam/alloy, perpetual
      attributes: half, newton on
      pair build: half/nsq/newton
      stencil: none
      bin: none
Setting up cg style minimization ...
  Unit style    : metal
  Current step  : 100
Per MPI rank memory allocation (min/avg/max) = 4.483 | 4.483 | 4.483 Mbytes
   Step          Temp          PotEng         Press           Pxx            Pyy            Pzz            Pxy            Pxz            Pyz             Lx             Ly             Lz           Volume    
       100   0             -2181.05       -197.15954     -195.53208     -198.68945     -197.25709     -28.156633      57.958112      10.481105      17.68517       17.687268      17.685867      5532.1807    
       101   0             -2181.2211      764.18802      755.94318      769.17146      767.44942      11.526712      26.744812     -18.30784       17.68517       17.687268      17.685867      5532.1807    
       102   0             -2181.2776      1230.8895      1220.4589      1215.0673      1257.1422      36.223525      11.576264     -29.817966      17.68517       17.687268      17.685867      5532.1807    
       103   0             -2181.288       1183.4705      1173.5319      1156.0682      1220.8115      37.542928      27.983759     -27.333647      17.68517       17.687268      17.685867      5532.1807    
       104   0             -2181.2919      1114.4958      1112.1435      1078.3121      1153.0317      38.339242      32.111549     -22.419722      17.68517       17.687268      17.685867      5532.1807    
       105   0             -2181.2932      1192.3507      1193.4342      1154.1819      1229.4359      39.072189      29.942584     -28.688971      17.68517       17.687268      17.685867      5532.1807    
       106   0             -2181.2936      1184.385       1185.2256      1148.0427      1219.8869      38.436238      29.061165     -31.768226      17.68517       17.687268      17.685867      5532.1807    
       107   0             -2181.2938      1163.6169      1163.9036      1128.3883      1198.5589      36.222773      29.867595     -31.644743      17.68517       17.687268      17.685867      5532.1807    
       108   0             -2181.2938      1167.5365      1167.8888      1132.7983      1201.9224      35.599534      29.635209     -31.261917      17.68517       17.687268      17.685867      5532.1807    
       109   0             -2181.2938      1169.1458      1169.9181      1134.0153      1203.5041      35.750507      29.760945     -30.653662      17.68517       17.687268      17.685867      5532.1807    
       110   0             -2181.2939      1166.6584      1167.7229      1131.089       1201.1634      36.080564      29.633523     -30.705082      17.68517       17.687268      17.685867      5532.1807    
       111   0             -2181.2939      1168.1654      1169.3546      1132.8874      1202.2541      36.147397      29.405742     -30.273502      17.68517       17.687268      17.685867      5532.1807    
       112   0             -2181.2939      1167.4887      1168.777       1132.6126      1201.0766      36.104549      29.387342     -30.139953      17.68517       17.687268      17.685867      5532.1807    
       113   0             -2181.2939      1167.113       1168.2377      1132.3444      1200.7568      35.954457      29.274251     -30.219332      17.68517       17.687268      17.685867      5532.1807    
       114   0             -2181.2939      1168.1527      1169.0034      1133.4897      1201.965       35.907182      29.268775     -30.251751      17.68517       17.687268      17.685867      5532.1807    
       115   0             -2181.2939      1167.8639      1168.6828      1133.1591      1201.7498      35.860485      29.269733     -30.215173      17.68517       17.687268      17.685867      5532.1807    
       116   0             -2181.2939      1167.7066      1168.5792      1132.9312      1201.6094      35.874257      29.247094     -30.220048      17.68517       17.687268      17.685867      5532.1807    
       117   0             -2181.2939      1167.8036      1168.716       1133.0022      1201.6925      35.918067      29.263605     -30.203236      17.68517       17.687268      17.685867      5532.1807    
       118   0             -2181.2939      1167.7526      1168.7121      1132.9765      1201.5692      35.892538      29.248669     -30.21939       17.68517       17.687268      17.685867      5532.1807    
       119   0             -2181.2939      1167.7713      1168.7367      1133.0127      1201.5645      35.87913       29.262152     -30.239824      17.68517       17.687268      17.685867      5532.1807    
       120   0             -2181.2939      1167.8104      1168.766       1133.0627      1201.6024      35.888607      29.272949     -30.238329      17.68517       17.687268      17.685867      5532.1807    
       121   0             -2181.2939      1167.8017      1168.7516      1133.0583      1201.595       35.887453      29.276928     -30.236723      17.68517       17.687268      17.685867      5532.1807    
       122   0             -2181.2939      1167.7921      1168.7394      1133.0501      1201.5867      35.886929      29.285531     -30.234798      17.68517       17.687268      17.685867      5532.1807    
       123   0             -2181.2939      1167.7944      1168.7361      1133.056       1201.5912      35.892669      29.28451      -30.233299      17.68517       17.687268      17.685867      5532.1807    
       124   0             -2181.2939      1167.7905      1168.7296      1133.0533      1201.5886      35.893345      29.284651     -30.233362      17.68517       17.687268      17.685867      5532.1807    
       125   0             -2181.2939      1167.7922      1168.7308      1133.0542      1201.5917      35.894287      29.283888     -30.236058      17.68517       17.687268      17.685867      5532.1807    
       126   0             -2181.2939      1167.7964      1168.7357      1133.0564      1201.5972      35.894344      29.283855     -30.237074      17.68517       17.687268      17.685867      5532.1807    
       127   0             -2181.2939      1167.7953      1168.7355      1133.0542      1201.5963      35.894229      29.284998     -30.236676      17.68517       17.687268      17.685867      5532.1807    
       128   0             -2181.2939      1167.7956      1168.736       1133.0542      1201.5965      35.894269      29.284855     -30.236779      17.68517       17.687268      17.685867      5532.1807    
       129   0             -2181.2939      1167.7969      1168.7374      1133.0555      1201.5978      35.894253      29.28502      -30.237153      17.68517       17.687268      17.685867      5532.1807    
       130   0             -2181.2939      1167.7968      1168.7371      1133.0555      1201.5979      35.894437      29.284985     -30.237075      17.68517       17.687268      17.685867      5532.1807    
       131   0             -2181.2939      1167.7963      1168.7365      1133.0549      1201.5974      35.894308      29.28502      -30.23703       17.68517       17.687268      17.685867      5532.1807    
       132   0             -2181.2939      1167.7965      1168.7369      1133.055       1201.5976      35.894266      29.285032     -30.237018      17.68517       17.687268      17.685867      5532.1807    
       133   0             -2181.2939      1167.7967      1168.7372      1133.0551      1201.5978      35.894267      29.285007     -30.236989      17.68517       17.687268      17.685867      5532.1807    
       134   0             -2181.2939      1167.7969      1168.7374      1133.0553      1201.5981      35.894204      29.28501      -30.237008      17.68517       17.687268      17.685867      5532.1807    
       135   0             -2181.2939      1167.797       1168.7374      1133.0554      1201.5982      35.894168      29.284995     -30.236976      17.68517       17.687268      17.685867      5532.1807    
       136   0             -2181.2939      1167.7969      1168.7373      1133.0553      1201.5981      35.894191      29.284964     -30.236963      17.68517       17.687268      17.685867      5532.1807    
       137   0             -2181.2939      1167.7969      1168.7373      1133.0553      1201.5981      35.894186      29.284932     -30.236978      17.68517       17.687268      17.685867      5532.1807    
       138   0             -2181.2939      1167.7969      1168.7373      1133.0553      1201.5981      35.894192      29.284916     -30.236978      17.68517       17.687268      17.685867      5532.1807    
       139   0             -2181.2939      1167.7969      1168.7373      1133.0553      1201.5981      35.894187      29.284926     -30.236967      17.68517       17.687268      17.685867      5532.1807    
       140   0             -2181.2939      1167.7969      1168.7373      1133.0553      1201.5981      35.894187      29.284927     -30.236968      17.68517       17.687268      17.685867      5532.1807    
       141   0             -2181.2939      1167.7969      1168.7373      1133.0553      1201.5981      35.894187      29.284927     -30.236969      17.68517       17.687268      17.685867      5532.1807    
       142   0             -2181.2939      1167.7969      1168.7373      1133.0553      1201.5981      35.894187      29.284927     -30.23697       17.68517       17.687268      17.685867      5532.1807    
       143   0             -2181.2939      1167.7969      1168.7373      1133.0553      1201.5981      35.894187      29.284926     -30.236972      17.68517       17.687268      17.685867      5532.1807    
       144   0             -2181.2939      1167.7969      1168.7373      1133.0553      1201.5981      35.894186      29.284925     -30.236972      17.68517       17.687268      17.685867      5532.1807    
       145   0             -2181.2939      1167.7969      1168.7373      1133.0553      1201.5981      35.894186      29.284925     -30.236973      17.68517       17.687268      17.685867      5532.1807    
       146   0             -2181.2939      1167.7969      1168.7373      1133.0553      1201.5981      35.894186      29.284925     -30.236973      17.68517       17.687268      17.685867      5532.1807    
       147   0             -2181.2939      1167.7969      1168.7373      1133.0553      1201.5981      35.894186      29.284925     -30.236973      17.68517       17.687268      17.685867      5532.1807    
       148   0             -2181.2939      1167.7969      1168.7373      1133.0553      1201.5981      35.894186      29.284925     -30.236973      17.68517       17.687268      17.685867      5532.1807    
       149   0             -2181.2939      1167.7969      1168.7373      1133.0553      1201.5981      35.894186      29.284925     -30.236973      17.68517       17.687268      17.685867      5532.1807    
       150   0             -2181.2939      1167.7969      1168.7373      1133.0553      1201.5981      35.894186      29.284925     -30.236973      17.68517       17.687268      17.685867      5532.1807    
       151   0             -2181.2939      1167.7969      1168.7373      1133.0553      1201.5981      35.894186      29.284925     -30.236973      17.68517       17.687268      17.685867      5532.1807    
       152   0             -2181.2939      1167.7969      1168.7373      1133.0553      1201.5981      35.894186      29.284925     -30.236973      17.68517       17.687268      17.685867      5532.1807    
       153   0             -2181.2939      1167.7969      1168.7373      1133.0553      1201.5981      35.894186      29.284925     -30.236973      17.68517       17.687268      17.685867      5532.1807    
       154   0             -2181.2939      1167.7969      1168.7373      1133.0553      1201.5981      35.894186      29.284925     -30.236973      17.68517       17.687268      17.685867      5532.1807    
       155   0             -2181.2939      1167.7969      1168.7373      1133.0553      1201.5981      35.894186      29.284925     -30.236973      17.68517       17.687268      17.685867      5532.1807    
       156   0             -2181.2939      1167.7969      1168.7373      1133.0553      1201.5981      35.894186      29.284925     -30.236973      17.68517       17.687268      17.685867      5532.1807    
       157   0             -2181.2939      1167.7969      1168.7373      1133.0553      1201.5981      35.894186      29.284925     -30.236973      17.68517       17.687268      17.685867      5532.1807    
       158   0             -2181.2939      1167.7969      1168.7373      1133.0553      1201.5981      35.894186      29.284925     -30.236973      17.68517       17.687268      17.685867      5532.1807    
       159   0             -2181.2939      1167.7969      1168.7373      1133.0553      1201.5981      35.894186      29.284925     -30.236973      17.68517       17.687268      17.685867      5532.1807    
       160   0             -2181.2939      1167.7969      1168.7373      1133.0553      1201.5981      35.894186      29.284925     -30.236973      17.68517       17.687268      17.685867      5532.1807    
Loop time of 0.140207 on 1 procs for 60 steps with 500 atoms

100.3% CPU use with 1 MPI tasks x 1 OpenMP threads

Minimization stats:
  Stopping criterion = force tolerance
  Energy initial, next-to-last, final = 
     -2181.04997782921  -2181.29387253349  -2181.29387253348
  Force two-norm initial, final = 2.0796111 7.1788118e-11
  Force max component initial, final = 0.17039186 6.8004335e-12
  Final line search alpha, max atom move = 1 6.8004335e-12
  Iterations, force evaluations = 60 118

MPI task timing breakdown:
Section |  min time  |  avg time  |  max time  |%varavg| %total
---------------------------------------------------------------
Pair    | 0.1376     | 0.1376     | 0.1376     |   0.0 | 98.14
Neigh   | 0          | 0          | 0          |   0.0 |  0.00
Comm    | 0.0007     | 0.0007     | 0.0007     |   0.0 |  0.50
Output  | 0.000919   | 0.000919   | 0.000919   |   0.0 |  0.66
Modify  | 0          | 0          | 0          |   0.0 |  0.00
Other   |            | 0.000993   |            |       |  0.71

Nlocal:            500 ave         500 max         500 min
Histogram: 1 0 0 0 0 0 0 0 0 0
Nghost:           1956 ave        1956 max        1956 min
Histogram: 1 0 0 0 0 0 0 0 0 0
Neighs:          33500 ave       33500 max       33500 min
Histogram: 1 0 0 0 0 0 0 0 0 0

Total # of neighbors = 33500
Ave neighs/atom = 67
Neighbor list builds = 0
Dangerous builds = 0
=========================================
Components of the Elastic Constant Tensor
=========================================
Elastic Constant C11all = 243.881973194992 GPa
Elastic Constant C22all = 245.209574744993 GPa
Elastic Constant C33all = 244.812394854001 GPa
Elastic Constant C12all = 153.376360850001 GPa
Elastic Constant C13all = 153.550839618248 GPa
Elastic Constant C23all = 153.885376112237 GPa
Elastic Constant C44all = 117.884779519905 GPa
Elastic Constant C55all = 117.71161477557 GPa
Elastic Constant C66all = 117.59432173908 GPa
Elastic Constant C14all = 0.0528861821870805 GPa
Elastic Constant C15all = -0.0191408896090479 GPa
Elastic Constant C16all = 0.137574987893231 GPa
Elastic Constant C24all = 0.0978194015405051 GPa
Elastic Constant C25all = -0.11241061761757 GPa
Elastic Constant C26all = 0.00997527616186744 GPa
Elastic Constant C34all = 0.193248224071226 GPa
Elastic Constant C35all = -0.174985535622455 GPa
Elastic Constant C36all = 0.0510609463281071 GPa
Elastic Constant C45all = 0.00460716976249387 GPa
Elastic Constant C46all = 0.0112372352825787 GPa
Elastic Constant C56all = 0.00835023565252868 GPa
=========================================
Average properties for a cubic crystal
=========================================
Bulk Modulus = 183.947677328328 GPa
Shear Modulus 1 = 117.730238678185 GPa
Shear Modulus 2 = 45.51522770225 GPa
Poisson Ratio = 0.385708717597508
Total wall time: 0:00:02
