LAMMPS (2 Aug 2023 - Update 3)
OMP_NUM_THREADS environment is not set. Defaulting to 1 thread. (src/comm.cpp:98)
  using 1 OpenMP thread(s) per MPI task
Loaded 1 plugins from F:\Lammps\LAMMPS 64-bit 2Aug2023\plugins
Reading data file ...
  orthogonal box = (0 0 0) to (17.79 17.79 17.79)
  1 by 1 by 1 MPI processor grid
  reading atoms ...
  500 atoms
  read_data CPU = 0.001 seconds
Changing box ...
  triclinic box = (0 0 0) to (17.79 17.79 17.79) with tilt (0 0 0)
Neighbor list info ...
  update: every = 1 steps, delay = 0 steps, check = yes
  max neighbors/atom: 2000, page size: 100000
  master list distance cutoff = 6.80375
  ghost atom cutoff = 6.80375
  1 neighbor lists, perpetual/occasional/extra = 1 0 0
  (1) pair eam/alloy, perpetual
      attributes: half, newton on
      pair build: half/nsq/newton
      stencil: none
      bin: none
Setting up cg style minimization ...
  Unit style    : metal
  Current step  : 0
WARNING: Energy due to 3 extra global DOFs will be included in minimizer energies
 (src/min.cpp:228)
Per MPI rank memory allocation (min/avg/max) = 4.492 | 4.492 | 4.492 Mbytes
   Step          Temp          PotEng         Press           Pxx            Pyy            Pzz            Pxy            Pxz            Pyz             Lx             Ly             Lz           Volume    
         0   0             -2179.8672     -31902.792     -31813.257     -31999.837     -31895.282      0.42541355     105.67178     -152.26699      17.79          17.79          17.79          5630.2521    
         1   0             -2179.9005     -31356.626     -31267.204     -31453.572     -31349.102      0.47455388     105.77234     -152.13992      17.788231      17.788221      17.788227      5628.5684    
         2   0             -2179.9332     -30810.064     -30720.76      -30906.907     -30802.525      0.52723986     105.86693     -152.0111       17.786463      17.786442      17.786454      5626.885     
         3   0             -2179.9652     -30263.105     -30173.923     -30359.839     -30255.551      0.58325222     105.95573     -151.88058      17.784695      17.784663      17.784681      5625.202     
         4   0             -2179.9968     -29715.765     -29626.709     -29812.386     -29708.2        0.64250992     106.03879     -151.74867      17.782927      17.782884      17.782908      5623.5195    
         5   0             -2180.0277     -29168.128     -29079.201     -29264.631     -29160.553      0.7060688      106.11896     -151.61177      17.781159      17.781105      17.781135      5621.8374    
         6   0             -2180.058      -28620.238     -28531.445     -28716.619     -28612.651      0.77400581     106.19499     -151.46874      17.779391      17.779326      17.779362      5620.1558    
         7   0             -2180.0878     -28072.097     -27983.442     -28168.352     -28064.497      0.84667539     106.26693     -151.31949      17.777623      17.777547      17.77759       5618.4746    
         8   0             -2180.1169     -27523.661     -27435.149     -27619.784     -27516.049      0.92351355     106.33313     -151.16583      17.775856      17.775768      17.775817      5616.7938    
         9   0             -2180.1455     -26974.878     -26886.515     -27070.86      -26967.258      1.0026168      106.3927      -151.01136      17.774089      17.773989      17.774045      5615.1134    
        10   0             -2180.1735     -26425.726     -26337.518     -26521.556     -26418.105      1.0831821      106.44738     -150.85637      17.772322      17.77221       17.772273      5613.4335    
        11   0             -2180.201      -25876.228     -25788.18      -25971.894     -25868.61       1.1652823      106.49748     -150.7003       17.770555      17.770431      17.770501      5611.7541    
        12   0             -2180.2278     -25326.419     -25238.534     -25421.916     -25318.807      1.2508913      106.54281     -150.54131      17.768789      17.768652      17.768729      5610.0751    
        13   0             -2180.2541     -24776.324     -24688.604     -24871.648     -24768.719      1.3411082      106.58188     -150.37856      17.767023      17.766873      17.766957      5608.3966    
        14   0             -2180.2797     -24225.975     -24138.422     -24321.126     -24218.376      1.4368969      106.61398     -150.21158      17.765257      17.765094      17.765186      5606.7185    
        15   0             -2180.3048     -23675.346     -23587.969     -23770.314     -23667.754      1.5360131      106.6394      -150.04184      17.763491      17.763315      17.763414      5605.0409    
        16   0             -2180.3293     -23124.398     -23037.208     -23219.172     -23116.815      1.6371525      106.65807     -149.86929      17.761726      17.761536      17.761643      5603.3638    
        17   0             -2180.3532     -22573.12      -22486.127     -22667.686     -22565.546      1.7396849      106.67128     -149.69429      17.759961      17.759757      17.759872      5601.6871    
        18   0             -2180.3766     -22021.5       -21934.713     -22115.849     -22013.938      1.8438847      106.67891     -149.51797      17.758196      17.757978      17.758101      5600.011     
        19   0             -2180.3993     -21469.613     -21383.033     -21563.742     -21462.064      1.9523463      106.68273     -149.34006      17.756432      17.756199      17.75633       5598.3353    
        20   0             -2180.4215     -20917.475     -20831.104     -21011.38      -20909.939      2.0652411      106.6831      -149.16071      17.754668      17.75442       17.754559      5596.6601    
        21   0             -2180.4431     -20365.12      -20278.965     -20458.795     -20357.599      2.182501       106.6813      -148.97938      17.752904      17.752641      17.752789      5594.9855    
        22   0             -2180.4641     -19812.48      -19726.555     -19905.909     -19804.977      2.3022075      106.67591     -148.79574      17.751141      17.750862      17.751019      5593.3114    
        23   0             -2180.4845     -19259.576     -19173.891     -19352.745     -19252.093      2.4241417      106.6668      -148.61001      17.749378      17.749083      17.749249      5591.6377    
        24   0             -2180.5044     -18706.408     -18620.975     -18799.302     -18698.946      2.5481519      106.65328     -148.42223      17.747615      17.747304      17.747479      5589.9647    
        25   0             -2180.5236     -18153.014     -18067.841     -18245.627     -18145.576      2.6743782      106.63375     -148.23282      17.745853      17.745525      17.745709      5588.2922    
        26   0             -2180.5423     -17599.424     -17514.521     -17691.737     -17592.014      2.8024615      106.60685     -148.04182      17.744092      17.743746      17.74394       5586.6202    
        27   0             -2180.5604     -17045.601     -16960.982     -17137.597     -17038.224      2.9322463      106.57219     -147.84905      17.74233       17.741967      17.742171      5584.9488    
        28   0             -2180.5779     -16491.548     -16407.225     -16583.208     -16484.209      3.0636446      106.52973     -147.65485      17.74057       17.740188      17.740403      5583.278     
        29   0             -2180.5948     -15937.275     -15853.259     -16028.59      -15929.977      3.199391       106.48194     -147.45903      17.73881       17.738409      17.738634      5581.6078    
        30   0             -2180.6111     -15382.804     -15299.105     -15473.76      -15375.547      3.3401104      106.42914     -147.26148      17.73705       17.73663       17.736866      5579.9382    
        31   0             -2180.6269     -14828.17      -14744.799     -14918.757     -14820.955      3.4860053      106.3717      -147.0623       17.735291      17.734851      17.735099      5578.2693    
        32   0             -2180.642      -14273.362     -14190.335     -14363.556     -14266.193      3.6355518      106.30929     -146.86146      17.733533      17.733072      17.733331      5576.601     
        33   0             -2180.6566     -13718.35      -13635.687     -13808.13      -13711.232      3.7878473      106.24199     -146.6586       17.731776      17.731293      17.731564      5574.9334    
        34   0             -2180.6706     -13163.148     -13080.867     -13252.491     -13156.085      3.9426541      106.16985     -146.45361      17.730019      17.729514      17.729798      5573.2665    
        35   0             -2180.6841     -12607.766     -12525.886     -12696.651     -12600.762      4.1001786      106.09275     -146.2467       17.728263      17.727735      17.728032      5571.6004    
        36   0             -2180.6969     -12052.287     -11970.824     -12140.692     -12045.344      4.2602555      106.00945     -146.03825      17.726508      17.725956      17.726266      5569.935     
        37   0             -2180.7091     -11496.76      -11415.739     -11584.659     -11489.882      4.4228385      105.91908     -145.82864      17.724754      17.724177      17.724501      5568.2704    
        38   0             -2180.7208     -10941.204     -10860.654     -11028.566     -10934.392      4.5881257      105.82139     -145.61765      17.723001      17.722398      17.722737      5566.6066    
        39   0             -2180.7319     -10385.601     -10305.561     -10472.384     -10378.859      4.7572468      105.71775     -145.40525      17.721249      17.720619      17.720973      5564.9438    
        40   0             -2180.7424     -9829.9054     -9750.4101     -9916.0706     -9823.2354      4.9301832      105.60927     -145.19097      17.719498      17.71884       17.71921       5563.2819    
        41   0             -2180.7523     -9274.094      -9195.1773     -9359.604      -9267.5007      5.1073432      105.49651     -144.97549      17.717749      17.717061      17.717448      5561.621     
        42   0             -2180.7617     -8718.211      -8639.9022     -8803.0327     -8711.6982      5.2885269      105.37915     -144.75925      17.716002      17.715282      17.715686      5559.9612    
        43   0             -2180.7705     -8162.3627     -8084.6947     -8246.4578     -8155.9356      5.4747043      105.25776     -144.5424       17.714256      17.713503      17.713926      5558.3025    
        44   0             -2180.7786     -7606.6064     -7529.6226     -7689.9277     -7600.2688      5.665774       105.13166     -144.32497      17.712512      17.711724      17.712166      5556.6451    
        45   0             -2180.7863     -7051.0327     -6974.7875     -7133.5192     -7044.7913      5.8613986      105.00194     -144.10633      17.71077       17.709945      17.710408      5554.9892    
        46   0             -2180.7933     -6495.6439     -6420.2112     -6577.2155     -6489.5049      6.0598883      104.86765     -143.8864       17.70903       17.708166      17.708651      5553.3347    
        47   0             -2180.7997     -5940.4914     -5865.9439     -6021.0657     -5934.4645      6.2603129      104.7277      -143.66544      17.707294      17.706387      17.706896      5551.682     
        48   0             -2180.8056     -5385.6546     -5312.0765     -5465.1367     -5379.7504      6.4634245      104.58139     -143.44392      17.705561      17.704608      17.705143      5550.0313    
        49   0             -2180.8109     -4831.2274     -4758.715      -4909.5128     -4825.4545      6.6700933      104.42781     -143.22158      17.703832      17.702829      17.703392      5548.3829    
        50   0             -2180.8156     -4277.3444     -4206.022      -4354.2981     -4271.713       6.8817129      104.26712     -142.9982       17.702107      17.70105       17.701643      5546.7371    
        51   0             -2180.8198     -3724.1852     -3654.201      -3799.647      -3718.7076      7.0984323      104.0988      -142.77385      17.700389      17.699271      17.699898      5545.0945    
        52   0             -2180.8234     -3172.0248     -3103.5685     -3245.7895     -3166.7164      7.3196425      103.92418     -142.54849      17.698678      17.697492      17.698157      5543.4559    
        53   0             -2180.8264     -2621.2646     -2554.5724     -2693.0788     -2616.1426      7.5448302      103.74412     -142.32305      17.696977      17.695713      17.696421      5541.8225    
        54   0             -2180.8289     -2072.5527     -2007.9629     -2142.0508     -2067.6446      7.7731583      103.56131     -142.09726      17.69529       17.693934      17.694693      5540.1959    
        55   0             -2180.8308     -1526.9076     -1464.9216     -1593.5498     -1522.2515      8.0037017      103.37612     -141.87143      17.693623      17.692155      17.692976      5538.5793    
        56   0             -2180.8322     -986.29063     -927.72951     -1049.1892     -981.95322      8.2350665      103.18805     -141.647        17.691987      17.690376      17.691277      5536.9787    
        57   0             -2180.8331     -455.50029     -401.94662     -512.9554      -451.59885      8.4636546      102.99535     -141.42665      17.690414      17.688597      17.689612      5535.4087    
        58   0             -2180.8338      46.685618      90.734744     -0.49350612     49.815616      8.6752748      102.8023      -141.21971      17.689021      17.686818      17.688046      5533.9259    
        59   0             -2180.8372     -129.9124      -147.93956     -110.44131     -131.35634      8.4686212      102.81012     -141.33259      17.6908        17.686119      17.688714      5534.4729    
        60   0             -2180.8389      385.95335      376.86563      395.95908      385.03534      8.6157033      102.4954      -141.16065      17.689021      17.684688      17.687088      5532.9599    
        61   0             -2180.8404     -133.44144     -136.27137     -130.1836      -133.86935      8.3084973      102.60054     -141.41898      17.690548      17.686467      17.688725      5534.5065    
        62   0             -2180.8438      396.50902      401.15268      391.80043      396.57395      8.3803319      102.18518     -141.27952      17.688769      17.684977      17.687066      5532.9647    
        63   0             -2180.8455     -160.89489     -155.87042     -166.09271     -160.72153      8.0559475      102.31359     -141.55362      17.69053       17.686756      17.68883       5534.6242    
        64   0             -2180.8493      382.61705      383.02861      382.40155      382.42098      8.118515       101.89408     -141.40912      17.688944      17.684977      17.687149      5533.0454    
        65   0             -2180.851      -170.04488     -170.93271     -168.93406     -170.26785      7.7924235      102.0177      -141.68483      17.690723      17.686707      17.688902      5534.6916    
        66   0             -2180.8549      402.83589      402.04924      403.92819      402.53025      7.8588516      101.5698      -141.53216      17.688956      17.684932      17.687123      5533.027     
        67   0             -2180.8567     -155.57132     -156.18826     -154.71997     -155.80573      7.5238307      101.68625     -141.8165       17.690726      17.686711      17.688892      5534.691     
        68   0             -2180.8608      414.70898      415.37133      414.25093      414.50468      7.5744201      101.22056     -141.67069      17.688947      17.684972      17.687121      5533.0362    
        69   0             -2180.8626     -144.56238     -143.852       -145.13947     -144.69566      7.2409998      101.34017     -141.95696      17.690721      17.686751      17.688893      5534.7024    
        70   0             -2180.867       428.26287      428.56202      428.18331      428.04329      7.2763917      100.85707     -141.81532      17.68897       17.684972      17.687119      5533.0427    
        71   0             -2180.8687     -130.73452     -130.69637     -130.60016     -130.90702      6.9460097      100.98098     -142.10267      17.690749      17.686743      17.68889       5534.7076    
        72   0             -2180.8734      444.24931      444.43925      444.29467      444.01401      6.9600937      100.47024     -141.96937      17.688984      17.684973      17.687111      5533.0449    
        73   0             -2180.8752     -115.92858     -115.84406     -115.83538     -116.1063       6.6325298      100.59893     -142.25848      17.690763      17.68675       17.688885      5534.7126    
        74   0             -2180.8803      460.13125      460.48642      459.9979       459.90943      6.6181167      100.05369     -142.13728      17.688999      17.684983      17.687106      5533.0511    
        75   0             -2180.882      -100.19423     -99.965023     -100.26085     -100.35682      6.2946113      100.18789     -142.42743      17.690778      17.68676       17.68888       5534.7186    
        76   0             -2180.8878      477.6323       477.84386      477.65576      477.3973       6.2424065      99.597416     -142.32264      17.68902       17.684988      17.687101      5533.0578    
        77   0             -2180.8894     -82.892487     -82.821778     -82.787427     -83.068256      5.9232916      99.737557     -142.61408      17.690799      17.686764      17.688875      5534.7251    
        78   0             -2180.8961      497.12045      497.52691      496.93635      496.8981       5.8145384      99.07885      -142.53552      17.689039      17.685001      17.687096      5533.0665    
        79   0             -2180.8976     -63.754595     -63.483303     -63.865612     -63.914869      5.5001768      99.225363     -142.82842      17.690818      17.686778      17.688871      5534.7341    
        80   0             -2180.9061      520.5536       520.55376      520.80765      520.29939      5.2955812      98.452865     -142.79528      17.689075      17.685005      17.687092      5533.0774    
        81   0             -2180.9075     -40.782696     -40.898282     -40.478493     -40.971314      4.9866691      98.606513     -143.0901       17.690854      17.686783      17.688867      5534.7455    
        82   0             -2180.9199      552.06425      553.67641      550.59723      551.91911      4.5533683      97.559695     -143.17071      17.68909       17.685062      17.687088      5533.0984    
        83   0             -2180.9212     -8.7220658     -7.3847649     -9.973149      -8.8082837      4.2521727      97.721878     -143.46791      17.690869      17.686833      17.68886       5534.7637    
        84   0             -2180.9595      507.74676      484.07238      533.29856      505.86935      2.2271411      94.98124      -144.35974      17.690153      17.685054      17.687556      5533.5753    
        85   0             -2180.9605     -30.080807     -49.960895     -8.651786      -31.629741      1.9542004      95.145443     -144.65834      17.691779      17.686833      17.689249      5535.1701    
        86   0             -2180.9657      162.15126      206.78531      114.7126       164.95586      1.6801934      94.553855     -144.79486      17.69          17.687601      17.688599      5534.6506    
        87   0             -2180.9666     -287.71597     -261.61441     -315.47391     -286.05959      1.4495465      94.719553     -145.03767      17.691779      17.688648      17.690044      5535.9871    
        88   0             -2180.9679      124.85164      126.90655      122.77466      124.87371      1.5566481      94.512182     -144.85129      17.690958      17.686869      17.688787      5534.7803    
        89   0             -2180.9698     -349.1984      -361.03544     -336.47746     -350.08231      1.2469683      94.599981     -145.15005      17.692737      17.688097      17.690313      5536.1984    
        90   0             -2180.9712      208.56175      194.98301      223.24981      207.45242      1.3915012      94.271493     -144.91301      17.691034      17.686318      17.688573      5534.5644    
        91   0             -2180.974      -283.3906      -287.07305     -279.27243     -283.82634      1.0089337      94.253551     -145.27363      17.692424      17.688097      17.69013       5536.0432    
        92   0             -2180.9757      255.57493      257.40432      253.8809       255.43957      1.1229131      93.895177     -145.06122      17.690645      17.686529      17.688441      5534.4676    
        93   0             -2180.9787     -268.25661     -261.5963      -275.22561     -267.94792      0.72088696     93.891127     -145.44159      17.692234      17.688308      17.690105      5536.0418    
        94   0             -2180.9808      299.12497      305.03107      292.99914      299.34471      0.8155158      93.495899     -145.22646      17.690492      17.686529      17.688338      5534.3874    
        95   0             -2180.9839     -228.43506     -226.94002     -229.95388     -228.41128      0.40816781     93.503985     -145.6085       17.692271      17.688132      17.690027      5535.9739    
        96   0             -2180.9864      324.20008      322.51672      326.16056      323.92294      0.47197553     93.091697     -145.41107      17.690626      17.686353      17.688315      5534.3669    
        97   0             -2180.9893     -219.11357     -222.71754     -215.14317     -219.48         0.067180731    93.112123     -145.80106      17.692405      17.688053      17.69005       5535.9984    
        98   0             -2180.9923      350.53398      348.35304      353.09424      350.15465      0.09790329     92.640552     -145.61794      17.690626      17.68632       17.688283      5534.3466    
        99   0             -2180.9952     -192.465       -192.6658      -192.07844     -192.65075     -0.30729985     92.653395     -146.014        17.69233       17.688099      17.690011      5535.9769    
       100   0             -2180.9986      375.15024      376.99999      373.39899      375.05173     -0.30828019     92.146708     -145.84799      17.690551      17.686392      17.688252      5534.3357    
Loop time of 0.118741 on 1 procs for 100 steps with 500 atoms

92.1% CPU use with 1 MPI tasks x 1 OpenMP threads

Minimization stats:
  Stopping criterion = max iterations
  Energy initial, next-to-last, final = 
     -2179.86724363364  -2180.99523187633  -2180.99858022171
  Force two-norm initial, final = 194.20846 3.0383592
  Force max component initial, final = 112.4515 1.3095771
  Final line search alpha, max atom move = 0.00026745849 0.00035025752
  Iterations, force evaluations = 100 100

MPI task timing breakdown:
Section |  min time  |  avg time  |  max time  |%varavg| %total
---------------------------------------------------------------
Pair    | 0.11082    | 0.11082    | 0.11082    |   0.0 | 93.32
Neigh   | 0          | 0          | 0          |   0.0 |  0.00
Comm    | 0.000626   | 0.000626   | 0.000626   |   0.0 |  0.53
Output  | 0.00139    | 0.00139    | 0.00139    |   0.0 |  1.17
Modify  | 0          | 0          | 0          |   0.0 |  0.00
Other   |            | 0.00591    |            |       |  4.98

Nlocal:            500 ave         500 max         500 min
Histogram: 1 0 0 0 0 0 0 0 0 0
Nghost:           1956 ave        1956 max        1956 min
Histogram: 1 0 0 0 0 0 0 0 0 0
Neighs:          33500 ave       33500 max       33500 min
Histogram: 1 0 0 0 0 0 0 0 0 0

Total # of neighbors = 33500
Ave neighs/atom = 67
Neighbor list builds = 0
Dangerous builds = 0
Displacing atoms ...
System init for write_restart ...
OMP_NUM_THREADS environment is not set. Defaulting to 1 thread. (src/comm.cpp:98)
  using 1 OpenMP thread(s) per MPI task
Loaded 1 plugins from F:\Lammps\LAMMPS 64-bit 2Aug2023\plugins

The 'box' command has been removed and will be ignored

Reading restart file ...
  restart file = 2 Aug 2023, LAMMPS = 2 Aug 2023
  restoring atom style atomic from restart
  triclinic box = (0.04972474 0.051804228 0.050874009) to (17.740275 17.738196 17.739126) with tilt (0 0 0)
  1 by 1 by 1 MPI processor grid
  pair style eam/alloy stores no restart info
  500 atoms
  read_restart CPU = 0.000 seconds
Changing box ...
  triclinic box = (0.04972474 0.051804228 0.050874009) to (17.740258 17.738196 17.739126) with tilt (0 0 0)
  triclinic box = (0.04972474 0.051804228 0.050874009) to (17.740258 17.738196 17.739126) with tilt (0 0 0)
  triclinic box = (0.04972474 0.051804228 0.050874009) to (17.740258 17.738196 17.739126) with tilt (0 0 0)
Neighbor list info ...
  update: every = 1 steps, delay = 0 steps, check = yes
  max neighbors/atom: 2000, page size: 100000
  master list distance cutoff = 6.80375
  ghost atom cutoff = 6.80375
  1 neighbor lists, perpetual/occasional/extra = 1 0 0
  (1) pair eam/alloy, perpetual
      attributes: half, newton on
      pair build: half/nsq/newton
      stencil: none
      bin: none
Setting up cg style minimization ...
  Unit style    : metal
  Current step  : 100
Per MPI rank memory allocation (min/avg/max) = 4.482 | 4.482 | 4.482 Mbytes
   Step          Temp          PotEng         Press           Pxx            Pyy            Pzz            Pxy            Pxz            Pyz             Lx             Ly             Lz           Volume    
       100   0             -2180.9986      377.08907      379.58951      375.00034      376.67738     -0.32646835     92.179316     -145.78877      17.690533      17.686392      17.688252      5534.3302    
       101   0             -2181.1544      1143.4493      1171.4087      1142.5131      1116.426      -17.811863      73.357008     -152.82827      17.690533      17.686392      17.688252      5534.3302    
       102   0             -2181.2175      1677.0951      1723.402       1681.6515      1626.2318     -32.525977      53.328672     -166.74929      17.690533      17.686392      17.688252      5534.3302    
       103   0             -2181.2303      1519.8952      1548.9339      1519.1019      1491.6497     -16.339582      57.74071      -159.02368      17.690533      17.686392      17.688252      5534.3302    
       104   0             -2181.2352      1616.0491      1652.6195      1613.3447      1582.183      -28.62386       46.043231     -162.63895      17.690533      17.686392      17.688252      5534.3302    
       105   0             -2181.2363      1671.1702      1711.2582      1668.3986      1633.8537     -27.09843       41.706189     -165.3712       17.690533      17.686392      17.688252      5534.3302    
       106   0             -2181.2369      1632.4832      1674.3517      1629.4167      1593.6813     -21.8372        39.040481     -169.42856      17.690533      17.686392      17.688252      5534.3302    
       107   0             -2181.2371      1627.9621      1669.0836      1625.4435      1589.3592     -21.124613      39.573424     -168.66571      17.690533      17.686392      17.688252      5534.3302    
       108   0             -2181.2371      1629.7777      1671.0779      1627.1447      1591.1105     -22.303004      40.13067      -167.98063      17.690533      17.686392      17.688252      5534.3302    
       109   0             -2181.2371      1631.8405      1673.9882      1629.5543      1591.9791     -23.307007      40.067046     -168.50602      17.690533      17.686392      17.688252      5534.3302    
       110   0             -2181.2372      1634.686       1677.1373      1632.345       1594.5758     -23.123527      39.824172     -168.71238      17.690533      17.686392      17.688252      5534.3302    
       111   0             -2181.2372      1632.0281      1674.7452      1629.0041      1592.3351     -23.001339      39.909507     -168.75405      17.690533      17.686392      17.688252      5534.3302    
       112   0             -2181.2372      1631.4517      1674.1629      1628.3778      1591.8145     -23.43622       40.105309     -168.81025      17.690533      17.686392      17.688252      5534.3302    
       113   0             -2181.2372      1632.0663      1674.8502      1628.9014      1592.4472     -23.025639      40.101109     -168.39951      17.690533      17.686392      17.688252      5534.3302    
       114   0             -2181.2372      1632.1025      1674.9306      1629.0067      1592.3701     -22.677827      39.869198     -168.49017      17.690533      17.686392      17.688252      5534.3302    
       115   0             -2181.2372      1632.1952      1674.9733      1629.2241      1592.3882     -22.813482      39.781755     -168.64709      17.690533      17.686392      17.688252      5534.3302    
       116   0             -2181.2372      1631.8009      1674.5743      1628.9123      1591.9162     -22.88606       39.852037     -168.69471      17.690533      17.686392      17.688252      5534.3302    
       117   0             -2181.2372      1631.735       1674.5249      1628.8709      1591.8092     -22.900393      39.895754     -168.69113      17.690533      17.686392      17.688252      5534.3302    
       118   0             -2181.2372      1631.913       1674.7084      1629.0612      1591.9694     -22.885542      39.897386     -168.69957      17.690533      17.686392      17.688252      5534.3302    
       119   0             -2181.2372      1631.946       1674.743       1629.1023      1591.9928     -22.863775      39.926006     -168.71183      17.690533      17.686392      17.688252      5534.3302    
       120   0             -2181.2372      1631.9196      1674.7361      1629.0733      1591.9492     -22.861547      39.938755     -168.7097       17.690533      17.686392      17.688252      5534.3302    
       121   0             -2181.2372      1631.8906      1674.7094      1629.0473      1591.9151     -22.859233      39.938326     -168.69382      17.690533      17.686392      17.688252      5534.3302    
       122   0             -2181.2372      1631.8923      1674.7196      1629.043       1591.9144     -22.857084      39.933124     -168.69097      17.690533      17.686392      17.688252      5534.3302    
       123   0             -2181.2372      1631.9089      1674.7327      1629.0555      1591.9384     -22.860093      39.936659     -168.68719      17.690533      17.686392      17.688252      5534.3302    
       124   0             -2181.2372      1631.9092      1674.7317      1629.056       1591.94       -22.860836      39.940224     -168.68641      17.690533      17.686392      17.688252      5534.3302    
       125   0             -2181.2372      1631.8973      1674.7192      1629.0446      1591.9281     -22.859716      39.938829     -168.68741      17.690533      17.686392      17.688252      5534.3302    
       126   0             -2181.2372      1631.8969      1674.7201      1629.0423      1591.9283     -22.859138      39.938046     -168.6862       17.690533      17.686392      17.688252      5534.3302    
       127   0             -2181.2372      1631.8997      1674.7232      1629.0445      1591.9312     -22.86023       39.938691     -168.68629      17.690533      17.686392      17.688252      5534.3302    
       128   0             -2181.2372      1631.9014      1674.7243      1629.0465      1591.9334     -22.860816      39.93844      -168.68758      17.690533      17.686392      17.688252      5534.3302    
       129   0             -2181.2372      1631.9008      1674.7236      1629.0457      1591.933      -22.860602      39.938775     -168.68777      17.690533      17.686392      17.688252      5534.3302    
       130   0             -2181.2372      1631.8999      1674.7226      1629.0448      1591.9321     -22.86058       39.938668     -168.68775      17.690533      17.686392      17.688252      5534.3302    
       131   0             -2181.2372      1631.9001      1674.723       1629.045       1591.9322     -22.860594      39.938406     -168.68763      17.690533      17.686392      17.688252      5534.3302    
       132   0             -2181.2372      1631.9003      1674.7235      1629.0451      1591.9324     -22.860508      39.938369     -168.68768      17.690533      17.686392      17.688252      5534.3302    
       133   0             -2181.2372      1631.9004      1674.7236      1629.0451      1591.9325     -22.860407      39.938465     -168.68784      17.690533      17.686392      17.688252      5534.3302    
       134   0             -2181.2372      1631.9003      1674.7234      1629.045       1591.9325     -22.860462      39.938526     -168.68784      17.690533      17.686392      17.688252      5534.3302    
       135   0             -2181.2372      1631.9001      1674.7232      1629.0448      1591.9323     -22.860493      39.938594     -168.68777      17.690533      17.686392      17.688252      5534.3302    
       136   0             -2181.2372      1631.9002      1674.7232      1629.0449      1591.9324     -22.860508      39.938582     -168.68776      17.690533      17.686392      17.688252      5534.3302    
       137   0             -2181.2372      1631.9002      1674.7233      1629.0449      1591.9324     -22.860514      39.93859      -168.68777      17.690533      17.686392      17.688252      5534.3302    
       138   0             -2181.2372      1631.9002      1674.7233      1629.0449      1591.9324     -22.860504      39.938597     -168.68777      17.690533      17.686392      17.688252      5534.3302    
       139   0             -2181.2372      1631.9002      1674.7233      1629.0449      1591.9324     -22.860503      39.938595     -168.68777      17.690533      17.686392      17.688252      5534.3302    
       140   0             -2181.2372      1631.9002      1674.7233      1629.0449      1591.9324     -22.8605        39.938599     -168.68777      17.690533      17.686392      17.688252      5534.3302    
       141   0             -2181.2372      1631.9002      1674.7233      1629.0449      1591.9324     -22.860499      39.938599     -168.68777      17.690533      17.686392      17.688252      5534.3302    
       142   0             -2181.2372      1631.9002      1674.7233      1629.0449      1591.9324     -22.8605        39.938598     -168.68777      17.690533      17.686392      17.688252      5534.3302    
       143   0             -2181.2372      1631.9002      1674.7233      1629.0449      1591.9324     -22.8605        39.938598     -168.68777      17.690533      17.686392      17.688252      5534.3302    
       144   0             -2181.2372      1631.9002      1674.7233      1629.0449      1591.9324     -22.8605        39.938599     -168.68777      17.690533      17.686392      17.688252      5534.3302    
       145   0             -2181.2372      1631.9002      1674.7233      1629.0449      1591.9324     -22.8605        39.938599     -168.68777      17.690533      17.686392      17.688252      5534.3302    
       146   0             -2181.2372      1631.9002      1674.7233      1629.0449      1591.9324     -22.8605        39.938599     -168.68777      17.690533      17.686392      17.688252      5534.3302    
       147   0             -2181.2372      1631.9002      1674.7233      1629.0449      1591.9324     -22.8605        39.938599     -168.68777      17.690533      17.686392      17.688252      5534.3302    
       148   0             -2181.2372      1631.9002      1674.7233      1629.0449      1591.9324     -22.8605        39.938599     -168.68777      17.690533      17.686392      17.688252      5534.3302    
       149   0             -2181.2372      1631.9002      1674.7233      1629.0449      1591.9324     -22.8605        39.938599     -168.68777      17.690533      17.686392      17.688252      5534.3302    
       150   0             -2181.2372      1631.9002      1674.7233      1629.0449      1591.9324     -22.8605        39.938599     -168.68777      17.690533      17.686392      17.688252      5534.3302    
       151   0             -2181.2372      1631.9002      1674.7233      1629.0449      1591.9324     -22.8605        39.938599     -168.68777      17.690533      17.686392      17.688252      5534.3302    
       152   0             -2181.2372      1631.9002      1674.7233      1629.0449      1591.9324     -22.8605        39.938599     -168.68777      17.690533      17.686392      17.688252      5534.3302    
       153   0             -2181.2372      1631.9002      1674.7233      1629.0449      1591.9324     -22.8605        39.938599     -168.68777      17.690533      17.686392      17.688252      5534.3302    
       154   0             -2181.2372      1631.9002      1674.7233      1629.0449      1591.9324     -22.8605        39.938599     -168.68777      17.690533      17.686392      17.688252      5534.3302    
       155   0             -2181.2372      1631.9002      1674.7233      1629.0449      1591.9324     -22.8605        39.938599     -168.68777      17.690533      17.686392      17.688252      5534.3302    
       156   0             -2181.2372      1631.9002      1674.7233      1629.0449      1591.9324     -22.8605        39.938599     -168.68777      17.690533      17.686392      17.688252      5534.3302    
       157   0             -2181.2372      1631.9002      1674.7233      1629.0449      1591.9324     -22.8605        39.938599     -168.68777      17.690533      17.686392      17.688252      5534.3302    
       158   0             -2181.2372      1631.9002      1674.7233      1629.0449      1591.9324     -22.8605        39.938599     -168.68777      17.690533      17.686392      17.688252      5534.3302    
       159   0             -2181.2372      1631.9002      1674.7233      1629.0449      1591.9324     -22.8605        39.938599     -168.68777      17.690533      17.686392      17.688252      5534.3302    
       160   0             -2181.2372      1631.9002      1674.7233      1629.0449      1591.9324     -22.8605        39.938599     -168.68777      17.690533      17.686392      17.688252      5534.3302    
Loop time of 0.13936 on 1 procs for 60 steps with 500 atoms

100.9% CPU use with 1 MPI tasks x 1 OpenMP threads

Minimization stats:
  Stopping criterion = force tolerance
  Energy initial, next-to-last, final = 
     -2180.99858918733  -2181.23718939285  -2181.23718939285
  Force two-norm initial, final = 2.0335551 7.1344156e-11
  Force max component initial, final = 0.18868117 1.299194e-11
  Final line search alpha, max atom move = 1 1.299194e-11
  Iterations, force evaluations = 60 118

MPI task timing breakdown:
Section |  min time  |  avg time  |  max time  |%varavg| %total
---------------------------------------------------------------
Pair    | 0.1368     | 0.1368     | 0.1368     |   0.0 | 98.16
Neigh   | 0          | 0          | 0          |   0.0 |  0.00
Comm    | 0.00071    | 0.00071    | 0.00071    |   0.0 |  0.51
Output  | 0.000908   | 0.000908   | 0.000908   |   0.0 |  0.65
Modify  | 0          | 0          | 0          |   0.0 |  0.00
Other   |            | 0.000945   |            |       |  0.68

Nlocal:            500 ave         500 max         500 min
Histogram: 1 0 0 0 0 0 0 0 0 0
Nghost:           1956 ave        1956 max        1956 min
Histogram: 1 0 0 0 0 0 0 0 0 0
Neighs:          33500 ave       33500 max       33500 min
Histogram: 1 0 0 0 0 0 0 0 0 0

Total # of neighbors = 33500
Ave neighs/atom = 67
Neighbor list builds = 0
Dangerous builds = 0
OMP_NUM_THREADS environment is not set. Defaulting to 1 thread. (src/comm.cpp:98)
  using 1 OpenMP thread(s) per MPI task
Loaded 1 plugins from F:\Lammps\LAMMPS 64-bit 2Aug2023\plugins

The 'box' command has been removed and will be ignored

Reading restart file ...
  restart file = 2 Aug 2023, LAMMPS = 2 Aug 2023
  restoring atom style atomic from restart
  triclinic box = (0.04972474 0.051804228 0.050874009) to (17.740275 17.738196 17.739126) with tilt (0 0 0)
  1 by 1 by 1 MPI processor grid
  pair style eam/alloy stores no restart info
  500 atoms
  read_restart CPU = 0.000 seconds
Changing box ...
  triclinic box = (0.04972474 0.051804228 0.050874009) to (17.740293 17.738196 17.739126) with tilt (0 0 0)
  triclinic box = (0.04972474 0.051804228 0.050874009) to (17.740293 17.738196 17.739126) with tilt (0 0 0)
  triclinic box = (0.04972474 0.051804228 0.050874009) to (17.740293 17.738196 17.739126) with tilt (0 0 0)
Neighbor list info ...
  update: every = 1 steps, delay = 0 steps, check = yes
  max neighbors/atom: 2000, page size: 100000
  master list distance cutoff = 6.80375
  ghost atom cutoff = 6.80375
  1 neighbor lists, perpetual/occasional/extra = 1 0 0
  (1) pair eam/alloy, perpetual
      attributes: half, newton on
      pair build: half/nsq/newton
      stencil: none
      bin: none
Setting up cg style minimization ...
  Unit style    : metal
  Current step  : 100
Per MPI rank memory allocation (min/avg/max) = 4.482 | 4.482 | 4.482 Mbytes
   Step          Temp          PotEng         Press           Pxx            Pyy            Pzz            Pxy            Pxz            Pyz             Lx             Ly             Lz           Volume    
       100   0             -2180.9986      373.33694      374.60508      371.86426      373.54148     -0.32698598     92.182313     -145.78983      17.690568      17.686392      17.688252      5534.3412    
       101   0             -2181.1544      1139.7104      1166.4445      1139.3858      1113.3009     -17.810597      73.362193     -152.83028      17.690568      17.686392      17.688252      5534.3412    
       102   0             -2181.2175      1673.3962      1718.4815      1678.5624      1623.1447     -32.523138      53.335656     -166.75164      17.690568      17.686392      17.688252      5534.3412    
       103   0             -2181.2303      1516.1799      1543.9993      1515.9969      1488.5434     -16.3358        57.747727     -159.02758      17.690568      17.686392      17.688252      5534.3412    
       104   0             -2181.2352      1612.3744      1647.7244      1610.2809      1579.1178     -28.622067      46.050727     -162.64164      17.690568      17.686392      17.688252      5534.3412    
       105   0             -2181.2363      1667.4713      1706.3383      1665.3104      1630.7652     -27.094691      41.714663     -165.3744       17.690568      17.686392      17.688252      5534.3412    
       106   0             -2181.2369      1628.7809      1669.4287      1626.3247      1590.5892     -21.834691      39.048805     -169.43158      17.690568      17.686392      17.688252      5534.3412    
       107   0             -2181.2371      1624.2626      1664.1631      1622.3543      1586.2703     -21.121991      39.581814     -168.66852      17.690568      17.686392      17.688252      5534.3412    
       108   0             -2181.2371      1626.0769      1666.1562      1624.0544      1588.0201     -22.3           40.139203     -167.98355      17.690568      17.686392      17.688252      5534.3412    
       109   0             -2181.2372      1628.1418      1669.0687      1626.466       1588.8907     -23.304154      40.075262     -168.50914      17.690568      17.686392      17.688252      5534.3412    
       110   0             -2181.2372      1630.9866      1672.2172      1629.2558      1591.4869     -23.120633      39.832489     -168.71536      17.690568      17.686392      17.688252      5534.3412    
       111   0             -2181.2372      1628.3268      1669.8231      1625.913       1589.2442     -22.998507      39.917869     -168.7571       17.690568      17.686392      17.688252      5534.3412    
       112   0             -2181.2372      1627.7519      1669.2423      1625.2883      1588.7251     -23.433508      40.113632     -168.81319      17.690568      17.686392      17.688252      5534.3412    
       113   0             -2181.2372      1628.3667      1669.9299      1625.812       1589.3581     -23.02269       40.109382     -168.4025       17.690568      17.686392      17.688252      5534.3412    
       114   0             -2181.2372      1628.4025      1670.0099      1625.9169      1589.2806     -22.674966      39.877509     -168.49322      17.690568      17.686392      17.688252      5534.3412    
       115   0             -2181.2372      1628.4952      1670.0526      1626.1343      1589.2987     -22.810653      39.790034     -168.65011      17.690568      17.686392      17.688252      5534.3412    
       116   0             -2181.2372      1628.1007      1669.6534      1625.8223      1588.8264     -22.883189      39.860327     -168.69772      17.690568      17.686392      17.688252      5534.3412    
       117   0             -2181.2372      1628.0349      1669.6041      1625.7811      1588.7196     -22.897543      39.904054     -168.69415      17.690568      17.686392      17.688252      5534.3412    
       118   0             -2181.2372      1628.213       1669.7876      1625.9714      1588.8799     -22.88268       39.905687     -168.70259      17.690568      17.686392      17.688252      5534.3412    
       119   0             -2181.2372      1628.2459      1669.8221      1626.0124      1588.9032     -22.860917      39.934305     -168.71485      17.690568      17.686392      17.688252      5534.3412    
       120   0             -2181.2372      1628.2194      1669.8153      1625.9834      1588.8596     -22.858693      39.947047     -168.71272      17.690568      17.686392      17.688252      5534.3412    
       121   0             -2181.2372      1628.1905      1669.7885      1625.9574      1588.8256     -22.856376      39.946617     -168.69684      17.690568      17.686392      17.688252      5534.3412    
       122   0             -2181.2372      1628.1922      1669.7987      1625.9531      1588.8248     -22.854227      39.941418     -168.69399      17.690568      17.686392      17.688252      5534.3412    
       123   0             -2181.2372      1628.2088      1669.8119      1625.9657      1588.8488     -22.857238      39.944954     -168.69021      17.690568      17.686392      17.688252      5534.3412    
       124   0             -2181.2372      1628.2091      1669.8108      1625.9661      1588.8504     -22.85798       39.948518     -168.68943      17.690568      17.686392      17.688252      5534.3412    
       125   0             -2181.2372      1628.1972      1669.7983      1625.9547      1588.8385     -22.856861      39.947122     -168.69043      17.690568      17.686392      17.688252      5534.3412    
       126   0             -2181.2372      1628.1968      1669.7992      1625.9524      1588.8388     -22.856282      39.94634      -168.68922      17.690568      17.686392      17.688252      5534.3412    
       127   0             -2181.2372      1628.1996      1669.8024      1625.9546      1588.8417     -22.857374      39.946985     -168.68931      17.690568      17.686392      17.688252      5534.3412    
       128   0             -2181.2372      1628.2013      1669.8035      1625.9566      1588.8438     -22.857961      39.946734     -168.6906       17.690568      17.686392      17.688252      5534.3412    
       129   0             -2181.2372      1628.2007      1669.8028      1625.9558      1588.8434     -22.857746      39.947069     -168.69079      17.690568      17.686392      17.688252      5534.3412    
       130   0             -2181.2372      1628.1998      1669.8018      1625.955       1588.8426     -22.857725      39.946961     -168.69077      17.690568      17.686392      17.688252      5534.3412    
       131   0             -2181.2372      1628.2         1669.8022      1625.9552      1588.8426     -22.857738      39.946699     -168.69065      17.690568      17.686392      17.688252      5534.3412    
       132   0             -2181.2372      1628.2003      1669.8027      1625.9553      1588.8428     -22.857652      39.946663     -168.6907       17.690568      17.686392      17.688252      5534.3412    
       133   0             -2181.2372      1628.2003      1669.8028      1625.9552      1588.8429     -22.857552      39.946758     -168.69086      17.690568      17.686392      17.688252      5534.3412    
       134   0             -2181.2372      1628.2002      1669.8026      1625.9551      1588.8429     -22.857606      39.94682      -168.69086      17.690568      17.686392      17.688252      5534.3412    
       135   0             -2181.2372      1628.2         1669.8024      1625.955       1588.8428     -22.857638      39.946888     -168.69078      17.690568      17.686392      17.688252      5534.3412    
       136   0             -2181.2372      1628.2001      1669.8024      1625.955       1588.8428     -22.857652      39.946876     -168.69078      17.690568      17.686392      17.688252      5534.3412    
       137   0             -2181.2372      1628.2001      1669.8025      1625.955       1588.8429     -22.857659      39.946884     -168.69079      17.690568      17.686392      17.688252      5534.3412    
       138   0             -2181.2372      1628.2001      1669.8024      1625.955       1588.8428     -22.857648      39.946891     -168.69079      17.690568      17.686392      17.688252      5534.3412    
       139   0             -2181.2372      1628.2001      1669.8024      1625.955       1588.8428     -22.857648      39.946888     -168.69079      17.690568      17.686392      17.688252      5534.3412    
       140   0             -2181.2372      1628.2001      1669.8024      1625.955       1588.8428     -22.857645      39.946892     -168.69079      17.690568      17.686392      17.688252      5534.3412    
       141   0             -2181.2372      1628.2001      1669.8024      1625.955       1588.8428     -22.857643      39.946893     -168.69079      17.690568      17.686392      17.688252      5534.3412    
       142   0             -2181.2372      1628.2001      1669.8024      1625.955       1588.8428     -22.857644      39.946891     -168.69079      17.690568      17.686392      17.688252      5534.3412    
       143   0             -2181.2372      1628.2001      1669.8024      1625.955       1588.8428     -22.857644      39.946892     -168.69079      17.690568      17.686392      17.688252      5534.3412    
       144   0             -2181.2372      1628.2001      1669.8024      1625.955       1588.8428     -22.857644      39.946893     -168.69079      17.690568      17.686392      17.688252      5534.3412    
       145   0             -2181.2372      1628.2001      1669.8024      1625.955       1588.8428     -22.857644      39.946893     -168.69079      17.690568      17.686392      17.688252      5534.3412    
       146   0             -2181.2372      1628.2001      1669.8024      1625.955       1588.8428     -22.857644      39.946893     -168.69079      17.690568      17.686392      17.688252      5534.3412    
       147   0             -2181.2372      1628.2001      1669.8024      1625.955       1588.8428     -22.857644      39.946893     -168.69079      17.690568      17.686392      17.688252      5534.3412    
       148   0             -2181.2372      1628.2001      1669.8024      1625.955       1588.8428     -22.857644      39.946893     -168.69079      17.690568      17.686392      17.688252      5534.3412    
       149   0             -2181.2372      1628.2001      1669.8024      1625.955       1588.8428     -22.857644      39.946893     -168.69079      17.690568      17.686392      17.688252      5534.3412    
       150   0             -2181.2372      1628.2001      1669.8024      1625.955       1588.8428     -22.857644      39.946893     -168.69079      17.690568      17.686392      17.688252      5534.3412    
       151   0             -2181.2372      1628.2001      1669.8024      1625.955       1588.8428     -22.857644      39.946893     -168.69079      17.690568      17.686392      17.688252      5534.3412    
       152   0             -2181.2372      1628.2001      1669.8024      1625.955       1588.8428     -22.857644      39.946893     -168.69079      17.690568      17.686392      17.688252      5534.3412    
       153   0             -2181.2372      1628.2001      1669.8024      1625.955       1588.8428     -22.857644      39.946893     -168.69079      17.690568      17.686392      17.688252      5534.3412    
       154   0             -2181.2372      1628.2001      1669.8024      1625.955       1588.8428     -22.857644      39.946893     -168.69079      17.690568      17.686392      17.688252      5534.3412    
       155   0             -2181.2372      1628.2001      1669.8024      1625.955       1588.8428     -22.857644      39.946893     -168.69079      17.690568      17.686392      17.688252      5534.3412    
       156   0             -2181.2372      1628.2001      1669.8024      1625.955       1588.8428     -22.857644      39.946893     -168.69079      17.690568      17.686392      17.688252      5534.3412    
       157   0             -2181.2372      1628.2001      1669.8024      1625.955       1588.8428     -22.857644      39.946893     -168.69079      17.690568      17.686392      17.688252      5534.3412    
       158   0             -2181.2372      1628.2001      1669.8024      1625.955       1588.8428     -22.857644      39.946893     -168.69079      17.690568      17.686392      17.688252      5534.3412    
       159   0             -2181.2372      1628.2001      1669.8024      1625.955       1588.8428     -22.857644      39.946893     -168.69079      17.690568      17.686392      17.688252      5534.3412    
       160   0             -2181.2372      1628.2001      1669.8024      1625.955       1588.8428     -22.857644      39.946893     -168.69079      17.690568      17.686392      17.688252      5534.3412    
Loop time of 0.162709 on 1 procs for 60 steps with 500 atoms

96.0% CPU use with 1 MPI tasks x 1 OpenMP threads

Minimization stats:
  Stopping criterion = force tolerance
  Energy initial, next-to-last, final = 
     -2180.99859179252  -2181.23720094572  -2181.23720094572
  Force two-norm initial, final = 2.0336021 7.1254447e-11
  Force max component initial, final = 0.18868726 1.2798246e-11
  Final line search alpha, max atom move = 1 1.2798246e-11
  Iterations, force evaluations = 60 118

MPI task timing breakdown:
Section |  min time  |  avg time  |  max time  |%varavg| %total
---------------------------------------------------------------
Pair    | 0.15966    | 0.15966    | 0.15966    |   0.0 | 98.13
Neigh   | 0          | 0          | 0          |   0.0 |  0.00
Comm    | 0.000829   | 0.000829   | 0.000829   |   0.0 |  0.51
Output  | 0.001066   | 0.001066   | 0.001066   |   0.0 |  0.66
Modify  | 0          | 0          | 0          |   0.0 |  0.00
Other   |            | 0.001154   |            |       |  0.71

Nlocal:            500 ave         500 max         500 min
Histogram: 1 0 0 0 0 0 0 0 0 0
Nghost:           1956 ave        1956 max        1956 min
Histogram: 1 0 0 0 0 0 0 0 0 0
Neighs:          33500 ave       33500 max       33500 min
Histogram: 1 0 0 0 0 0 0 0 0 0

Total # of neighbors = 33500
Ave neighs/atom = 67
Neighbor list builds = 0
Dangerous builds = 0
OMP_NUM_THREADS environment is not set. Defaulting to 1 thread. (src/comm.cpp:98)
  using 1 OpenMP thread(s) per MPI task
Loaded 1 plugins from F:\Lammps\LAMMPS 64-bit 2Aug2023\plugins

The 'box' command has been removed and will be ignored

Reading restart file ...
  restart file = 2 Aug 2023, LAMMPS = 2 Aug 2023
  restoring atom style atomic from restart
  triclinic box = (0.04972474 0.051804228 0.050874009) to (17.740275 17.738196 17.739126) with tilt (0 0 0)
  1 by 1 by 1 MPI processor grid
  pair style eam/alloy stores no restart info
  500 atoms
  read_restart CPU = 0.000 seconds
Changing box ...
  triclinic box = (0.04972474 0.051804228 0.050874009) to (17.740275 17.738178 17.739126) with tilt (0 0 0)
  triclinic box = (0.04972474 0.051804228 0.050874009) to (17.740275 17.738178 17.739126) with tilt (0 0 0)
Neighbor list info ...
  update: every = 1 steps, delay = 0 steps, check = yes
  max neighbors/atom: 2000, page size: 100000
  master list distance cutoff = 6.80375
  ghost atom cutoff = 6.80375
  1 neighbor lists, perpetual/occasional/extra = 1 0 0
  (1) pair eam/alloy, perpetual
      attributes: half, newton on
      pair build: half/nsq/newton
      stencil: none
      bin: none
Setting up cg style minimization ...
  Unit style    : metal
  Current step  : 100
Per MPI rank memory allocation (min/avg/max) = 4.482 | 4.482 | 4.482 Mbytes
   Step          Temp          PotEng         Press           Pxx            Pyy            Pzz            Pxy            Pxz            Pyz             Lx             Ly             Lz           Volume    
       100   0             -2180.9986      377.0887       378.66534      375.92216      376.6786      -0.32596539     92.181258     -145.78794      17.690551      17.686374      17.688252      5534.3302    
       101   0             -2181.1544      1143.4449      1170.484       1143.4275      1116.4231     -17.811117      73.359635     -152.82663      17.690551      17.686374      17.688252      5534.3302    
       102   0             -2181.2175      1677.1042      1722.4909      1682.5801      1626.2416     -32.525509      53.331892     -166.74807      17.690551      17.686374      17.688252      5534.3302    
       103   0             -2181.2303      1519.894       1548.0142      1520.0186      1491.6492     -16.33836       57.744281     -159.02236      17.690551      17.686374      17.688252      5534.3302    
       104   0             -2181.2352      1616.0561      1651.7068      1614.2703      1582.1911     -28.62342       46.047008     -162.63755      17.690551      17.686374      17.688252      5534.3302    
       105   0             -2181.2363      1671.1734      1710.3415      1669.3206      1633.8583     -27.097519      41.710083     -165.36986      17.690551      17.686374      17.688252      5534.3302    
       106   0             -2181.2369      1632.4871      1673.4363      1630.3386      1593.6865     -21.836587      39.044272     -169.42746      17.690551      17.686374      17.688252      5534.3302    
       107   0             -2181.2371      1627.9663      1668.1684      1626.3655      1589.3649     -21.123962      39.577185     -168.66465      17.690551      17.686374      17.688252      5534.3302    
       108   0             -2181.2371      1629.781       1670.162       1628.0658      1591.1153     -22.302273      40.134431     -167.97954      17.690551      17.686374      17.688252      5534.3302    
       109   0             -2181.2371      1631.8442      1673.0727      1630.4756      1591.9843     -23.306347      40.070732     -168.50499      17.690551      17.686374      17.688252      5534.3302    
       110   0             -2181.2372      1634.6897      1676.2219      1633.2663      1594.581      -23.122873      39.827882     -168.71135      17.690551      17.686374      17.688252      5534.3302    
       111   0             -2181.2372      1632.0316      1673.8296      1629.925       1592.34       -23.000665      39.913215     -168.75309      17.690551      17.686374      17.688252      5534.3302    
       112   0             -2181.2372      1631.4554      1673.2476      1629.2989      1591.8196     -23.435573      40.108994     -168.80928      17.690551      17.686374      17.688252      5534.3302    
       113   0             -2181.2372      1632.0698      1673.9348      1629.8224      1592.4522     -23.024938      40.104781     -168.39853      17.690551      17.686374      17.688252      5534.3302    
       114   0             -2181.2372      1632.106       1674.0152      1629.9277      1592.3751     -22.677156      39.872886     -168.4892       17.690551      17.686374      17.688252      5534.3302    
       115   0             -2181.2372      1632.1988      1674.0579      1630.1452      1592.3933     -22.812813      39.785434     -168.64611      17.690551      17.686374      17.688252      5534.3302    
       116   0             -2181.2372      1631.8045      1673.6589      1629.8333      1591.9212     -22.885383      39.855715     -168.69374      17.690551      17.686374      17.688252      5534.3302    
       117   0             -2181.2372      1631.7386      1673.6095      1629.792       1591.8143     -22.899722      39.899436     -168.69016      17.690551      17.686374      17.688252      5534.3302    
       118   0             -2181.2372      1631.9165      1673.7929      1629.9822      1591.9745     -22.884868      39.901069     -168.6986       17.690551      17.686374      17.688252      5534.3302    
       119   0             -2181.2372      1631.9496      1673.8275      1630.0233      1591.9979     -22.8631        39.92969      -168.71085      17.690551      17.686374      17.688252      5534.3302    
       120   0             -2181.2372      1631.9231      1673.8207      1629.9944      1591.9543     -22.860873      39.94244      -168.70873      17.690551      17.686374      17.688252      5534.3302    
       121   0             -2181.2372      1631.8942      1673.7939      1629.9683      1591.9202     -22.858558      39.942009     -168.69284      17.690551      17.686374      17.688252      5534.3302    
       122   0             -2181.2372      1631.8959      1673.8041      1629.964       1591.9195     -22.856409      39.936809     -168.68999      17.690551      17.686374      17.688252      5534.3302    
       123   0             -2181.2372      1631.9125      1673.8173      1629.9766      1591.9435     -22.859418      39.940344     -168.68622      17.690551      17.686374      17.688252      5534.3302    
       124   0             -2181.2372      1631.9128      1673.8163      1629.977       1591.9451     -22.860161      39.943908     -168.68544      17.690551      17.686374      17.688252      5534.3302    
       125   0             -2181.2372      1631.9008      1673.8037      1629.9656      1591.9332     -22.859042      39.942513     -168.68643      17.690551      17.686374      17.688252      5534.3302    
       126   0             -2181.2372      1631.9005      1673.8046      1629.9634      1591.9334     -22.858464      39.941731     -168.68522      17.690551      17.686374      17.688252      5534.3302    
       127   0             -2181.2372      1631.9032      1673.8078      1629.9656      1591.9363     -22.859555      39.942376     -168.68531      17.690551      17.686374      17.688252      5534.3302    
       128   0             -2181.2372      1631.905       1673.8089      1629.9675      1591.9384     -22.860142      39.942125     -168.6866       17.690551      17.686374      17.688252      5534.3302    
       129   0             -2181.2372      1631.9043      1673.8082      1629.9668      1591.9381     -22.859927      39.94246      -168.6868       17.690551      17.686374      17.688252      5534.3302    
       130   0             -2181.2372      1631.9034      1673.8072      1629.9659      1591.9372     -22.859906      39.942352     -168.68678      17.690551      17.686374      17.688252      5534.3302    
       131   0             -2181.2372      1631.9037      1673.8076      1629.9661      1591.9373     -22.85992       39.94209      -168.68666      17.690551      17.686374      17.688252      5534.3302    
       132   0             -2181.2372      1631.9039      1673.8081      1629.9662      1591.9374     -22.859834      39.942053     -168.68671      17.690551      17.686374      17.688252      5534.3302    
       133   0             -2181.2372      1631.9039      1673.8082      1629.9661      1591.9375     -22.859733      39.942149     -168.68686      17.690551      17.686374      17.688252      5534.3302    
       134   0             -2181.2372      1631.9039      1673.808       1629.9661      1591.9376     -22.859788      39.942211     -168.68687      17.690551      17.686374      17.688252      5534.3302    
       135   0             -2181.2372      1631.9037      1673.8078      1629.9659      1591.9374     -22.859819      39.942279     -168.68679      17.690551      17.686374      17.688252      5534.3302    
       136   0             -2181.2372      1631.9037      1673.8078      1629.9659      1591.9374     -22.859834      39.942267     -168.68679      17.690551      17.686374      17.688252      5534.3302    
       137   0             -2181.2372      1631.9038      1673.8079      1629.966       1591.9375     -22.85984       39.942274     -168.6868       17.690551      17.686374      17.688252      5534.3302    
       138   0             -2181.2372      1631.9038      1673.8078      1629.9659      1591.9375     -22.85983       39.942281     -168.68679      17.690551      17.686374      17.688252      5534.3302    
       139   0             -2181.2372      1631.9037      1673.8078      1629.9659      1591.9375     -22.859829      39.942279     -168.68679      17.690551      17.686374      17.688252      5534.3302    
       140   0             -2181.2372      1631.9037      1673.8078      1629.9659      1591.9375     -22.859826      39.942283     -168.68679      17.690551      17.686374      17.688252      5534.3302    
       141   0             -2181.2372      1631.9037      1673.8078      1629.9659      1591.9375     -22.859824      39.942284     -168.6868       17.690551      17.686374      17.688252      5534.3302    
       142   0             -2181.2372      1631.9037      1673.8078      1629.9659      1591.9375     -22.859825      39.942282     -168.6868       17.690551      17.686374      17.688252      5534.3302    
       143   0             -2181.2372      1631.9037      1673.8078      1629.9659      1591.9375     -22.859825      39.942282     -168.6868       17.690551      17.686374      17.688252      5534.3302    
       144   0             -2181.2372      1631.9037      1673.8078      1629.9659      1591.9375     -22.859825      39.942283     -168.68679      17.690551      17.686374      17.688252      5534.3302    
       145   0             -2181.2372      1631.9037      1673.8078      1629.9659      1591.9375     -22.859825      39.942284     -168.68679      17.690551      17.686374      17.688252      5534.3302    
       146   0             -2181.2372      1631.9037      1673.8078      1629.9659      1591.9375     -22.859826      39.942283     -168.68679      17.690551      17.686374      17.688252      5534.3302    
       147   0             -2181.2372      1631.9037      1673.8078      1629.9659      1591.9375     -22.859825      39.942283     -168.68679      17.690551      17.686374      17.688252      5534.3302    
       148   0             -2181.2372      1631.9037      1673.8078      1629.9659      1591.9375     -22.859825      39.942284     -168.68679      17.690551      17.686374      17.688252      5534.3302    
       149   0             -2181.2372      1631.9037      1673.8078      1629.9659      1591.9375     -22.859825      39.942283     -168.68679      17.690551      17.686374      17.688252      5534.3302    
       150   0             -2181.2372      1631.9037      1673.8078      1629.9659      1591.9375     -22.859826      39.942283     -168.68679      17.690551      17.686374      17.688252      5534.3302    
       151   0             -2181.2372      1631.9037      1673.8078      1629.9659      1591.9375     -22.859825      39.942283     -168.68679      17.690551      17.686374      17.688252      5534.3302    
       152   0             -2181.2372      1631.9037      1673.8078      1629.9659      1591.9375     -22.859825      39.942283     -168.68679      17.690551      17.686374      17.688252      5534.3302    
       153   0             -2181.2372      1631.9037      1673.8078      1629.9659      1591.9375     -22.859826      39.942283     -168.68679      17.690551      17.686374      17.688252      5534.3302    
       154   0             -2181.2372      1631.9037      1673.8078      1629.9659      1591.9375     -22.859826      39.942283     -168.68679      17.690551      17.686374      17.688252      5534.3302    
       155   0             -2181.2372      1631.9037      1673.8078      1629.9659      1591.9375     -22.859825      39.942283     -168.68679      17.690551      17.686374      17.688252      5534.3302    
       156   0             -2181.2372      1631.9037      1673.8078      1629.9659      1591.9375     -22.859825      39.942283     -168.68679      17.690551      17.686374      17.688252      5534.3302    
       157   0             -2181.2372      1631.9037      1673.8078      1629.9659      1591.9375     -22.859826      39.942283     -168.68679      17.690551      17.686374      17.688252      5534.3302    
       158   0             -2181.2372      1631.9037      1673.8078      1629.9659      1591.9375     -22.859826      39.942283     -168.68679      17.690551      17.686374      17.688252      5534.3302    
       159   0             -2181.2372      1631.9037      1673.8078      1629.9659      1591.9375     -22.859825      39.942283     -168.68679      17.690551      17.686374      17.688252      5534.3302    
       160   0             -2181.2372      1631.9037      1673.8078      1629.9659      1591.9375     -22.859825      39.942283     -168.68679      17.690551      17.686374      17.688252      5534.3302    
Loop time of 0.142338 on 1 procs for 60 steps with 500 atoms

98.8% CPU use with 1 MPI tasks x 1 OpenMP threads

Minimization stats:
  Stopping criterion = force tolerance
  Energy initial, next-to-last, final = 
     -2180.99858919999  -2181.23718954747  -2181.23718954747
  Force two-norm initial, final = 2.0335559 7.1329797e-11
  Force max component initial, final = 0.18868269 1.2946731e-11
  Final line search alpha, max atom move = 1 1.2946731e-11
  Iterations, force evaluations = 60 118

MPI task timing breakdown:
Section |  min time  |  avg time  |  max time  |%varavg| %total
---------------------------------------------------------------
Pair    | 0.13972    | 0.13972    | 0.13972    |   0.0 | 98.16
Neigh   | 0          | 0          | 0          |   0.0 |  0.00
Comm    | 0.000686   | 0.000686   | 0.000686   |   0.0 |  0.48
Output  | 0.000968   | 0.000968   | 0.000968   |   0.0 |  0.68
Modify  | 0          | 0          | 0          |   0.0 |  0.00
Other   |            | 0.000965   |            |       |  0.68

Nlocal:            500 ave         500 max         500 min
Histogram: 1 0 0 0 0 0 0 0 0 0
Nghost:           1956 ave        1956 max        1956 min
Histogram: 1 0 0 0 0 0 0 0 0 0
Neighs:          33500 ave       33500 max       33500 min
Histogram: 1 0 0 0 0 0 0 0 0 0

Total # of neighbors = 33500
Ave neighs/atom = 67
Neighbor list builds = 0
Dangerous builds = 0
OMP_NUM_THREADS environment is not set. Defaulting to 1 thread. (src/comm.cpp:98)
  using 1 OpenMP thread(s) per MPI task
Loaded 1 plugins from F:\Lammps\LAMMPS 64-bit 2Aug2023\plugins

The 'box' command has been removed and will be ignored

Reading restart file ...
  restart file = 2 Aug 2023, LAMMPS = 2 Aug 2023
  restoring atom style atomic from restart
  triclinic box = (0.04972474 0.051804228 0.050874009) to (17.740275 17.738196 17.739126) with tilt (0 0 0)
  1 by 1 by 1 MPI processor grid
  pair style eam/alloy stores no restart info
  500 atoms
  read_restart CPU = 0.000 seconds
Changing box ...
  triclinic box = (0.04972474 0.051804228 0.050874009) to (17.740275 17.738213 17.739126) with tilt (0 0 0)
  triclinic box = (0.04972474 0.051804228 0.050874009) to (17.740275 17.738213 17.739126) with tilt (0 0 0)
Neighbor list info ...
  update: every = 1 steps, delay = 0 steps, check = yes
  max neighbors/atom: 2000, page size: 100000
  master list distance cutoff = 6.80375
  ghost atom cutoff = 6.80375
  1 neighbor lists, perpetual/occasional/extra = 1 0 0
  (1) pair eam/alloy, perpetual
      attributes: half, newton on
      pair build: half/nsq/newton
      stencil: none
      bin: none
Setting up cg style minimization ...
  Unit style    : metal
  Current step  : 100
Per MPI rank memory allocation (min/avg/max) = 4.482 | 4.482 | 4.482 Mbytes
   Step          Temp          PotEng         Press           Pxx            Pyy            Pzz            Pxy            Pxz            Pyz             Lx             Ly             Lz           Volume    
       100   0             -2180.9986      373.33732      375.52925      370.94244      373.54026     -0.32748883     92.180371     -145.79067      17.690551      17.686409      17.688252      5534.3412    
       101   0             -2181.1544      1139.7148      1167.3692      1138.4714      1113.3038     -17.811343      73.359566     -152.83192      17.690551      17.686409      17.688252      5534.3412    
       102   0             -2181.2175      1673.3871      1719.3926      1677.6338      1623.1349     -32.523607      53.332435     -166.75286      17.690551      17.686409      17.688252      5534.3412    
       103   0             -2181.2303      1516.181       1544.9191      1515.0802      1488.5439     -16.337022      57.744157     -159.02891      17.690551      17.686409      17.688252      5534.3412    
       104   0             -2181.2352      1612.3674      1648.6372      1609.3552      1579.1097     -28.622509      46.046949     -162.64304      17.690551      17.686409      17.688252      5534.3412    
       105   0             -2181.2363      1667.468       1707.2551      1664.3884      1630.7606     -27.095602      41.710769     -165.37574      17.690551      17.686409      17.688252      5534.3412    
       106   0             -2181.2369      1628.777       1670.3442      1625.4029      1590.584      -21.835304      39.045014     -169.43267      17.690551      17.686409      17.688252      5534.3412    
       107   0             -2181.2371      1624.2584      1665.0783      1621.4323      1586.2647     -21.122643      39.578052     -168.66957      17.690551      17.686409      17.688252      5534.3412    
       108   0             -2181.2371      1626.0736      1667.0722      1623.1333      1588.0153     -22.300732      40.135443     -167.98464      17.690551      17.686409      17.688252      5534.3412    
       109   0             -2181.2372      1628.1382      1669.9842      1625.5447      1588.8856     -23.304814      40.071576     -168.51016      17.690551      17.686409      17.688252      5534.3412    
       110   0             -2181.2372      1630.9829      1673.1326      1628.3345      1591.4816     -23.121286      39.828779     -168.71638      17.690551      17.686409      17.688252      5534.3412    
       111   0             -2181.2372      1628.3233      1670.7387      1624.9921      1589.2392     -22.999181      39.91416      -168.75805      17.690551      17.686409      17.688252      5534.3412    
       112   0             -2181.2372      1627.7483      1670.1577      1624.3672      1588.72       -23.434155      40.109947     -168.81416      17.690551      17.686409      17.688252      5534.3412    
       113   0             -2181.2372      1628.3631      1670.8454      1624.891       1589.353      -23.023392      40.105711     -168.40348      17.690551      17.686409      17.688252      5534.3412    
       114   0             -2181.2372      1628.399       1670.9254      1624.996       1589.2755     -22.675637      39.873821     -168.4942       17.690551      17.686409      17.688252      5534.3412    
       115   0             -2181.2372      1628.4916      1670.968       1625.2133      1589.2936     -22.811323      39.786355     -168.65109      17.690551      17.686409      17.688252      5534.3412    
       116   0             -2181.2372      1628.0971      1670.5688      1624.9012      1588.8214     -22.883867      39.85665      -168.69869      17.690551      17.686409      17.688252      5534.3412    
       117   0             -2181.2372      1628.0314      1670.5195      1624.86        1588.7146     -22.898215      39.900372     -168.69512      17.690551      17.686409      17.688252      5534.3412    
       118   0             -2181.2372      1628.2094      1670.703       1625.0503      1588.8748     -22.883355      39.902003     -168.70357      17.690551      17.686409      17.688252      5534.3412    
       119   0             -2181.2372      1628.2424      1670.7376      1625.0914      1588.8982     -22.861592      39.93062      -168.71583      17.690551      17.686409      17.688252      5534.3412    
       120   0             -2181.2372      1628.2159      1670.7307      1625.0624      1588.8546     -22.859367      39.943365     -168.7137       17.690551      17.686409      17.688252      5534.3412    
       121   0             -2181.2372      1628.1869      1670.704       1625.0364      1588.8205     -22.85705       39.942933     -168.69781      17.690551      17.686409      17.688252      5534.3412    
       122   0             -2181.2372      1628.1887      1670.7142      1625.0321      1588.8197     -22.854902      39.937734     -168.69496      17.690551      17.686409      17.688252      5534.3412    
       123   0             -2181.2372      1628.2052      1670.7274      1625.0446      1588.8438     -22.857913      39.94127      -168.69119      17.690551      17.686409      17.688252      5534.3412    
       124   0             -2181.2372      1628.2056      1670.7263      1625.045       1588.8454     -22.858655      39.944834     -168.69041      17.690551      17.686409      17.688252      5534.3412    
       125   0             -2181.2372      1628.1936      1670.7138      1625.0336      1588.8335     -22.857535      39.943438     -168.6914       17.690551      17.686409      17.688252      5534.3412    
       126   0             -2181.2372      1628.1933      1670.7147      1625.0314      1588.8337     -22.856957      39.942656     -168.6902       17.690551      17.686409      17.688252      5534.3412    
       127   0             -2181.2372      1628.196       1670.7178      1625.0336      1588.8366     -22.858049      39.943301     -168.69028      17.690551      17.686409      17.688252      5534.3412    
       128   0             -2181.2372      1628.1977      1670.7189      1625.0356      1588.8387     -22.858635      39.94305      -168.69157      17.690551      17.686409      17.688252      5534.3412    
       129   0             -2181.2372      1628.1971      1670.7182      1625.0348      1588.8384     -22.85842       39.943385     -168.69177      17.690551      17.686409      17.688252      5534.3412    
       130   0             -2181.2372      1628.1962      1670.7172      1625.0339      1588.8375     -22.858399      39.943277     -168.69175      17.690551      17.686409      17.688252      5534.3412    
       131   0             -2181.2372      1628.1964      1670.7176      1625.0341      1588.8376     -22.858413      39.943015     -168.69163      17.690551      17.686409      17.688252      5534.3412    
       132   0             -2181.2372      1628.1967      1670.7182      1625.0342      1588.8377     -22.858327      39.942978     -168.69168      17.690551      17.686409      17.688252      5534.3412    
       133   0             -2181.2372      1628.1967      1670.7182      1625.0342      1588.8378     -22.858226      39.943074     -168.69183      17.690551      17.686409      17.688252      5534.3412    
       134   0             -2181.2372      1628.1966      1670.718       1625.0341      1588.8378     -22.858281      39.943136     -168.69184      17.690551      17.686409      17.688252      5534.3412    
       135   0             -2181.2372      1628.1965      1670.7178      1625.0339      1588.8377     -22.858312      39.943204     -168.69176      17.690551      17.686409      17.688252      5534.3412    
       136   0             -2181.2372      1628.1965      1670.7178      1625.034       1588.8377     -22.858327      39.943192     -168.69176      17.690551      17.686409      17.688252      5534.3412    
[...]
       153   0             -2181.2372      1630.05        1672.2615      1627.4992      1590.3892     -21.682916      39.943943     -168.68888      17.690551      17.686392      17.688252      5534.3357    
       154   0             -2181.2372      1630.05        1672.2615      1627.4992      1590.3892     -21.682916      39.943943     -168.68888      17.690551      17.686392      17.688252      5534.3357    
       155   0             -2181.2372      1630.05        1672.2615      1627.4992      1590.3892     -21.682916      39.943943     -168.68888      17.690551      17.686392      17.688252      5534.3357    
       156   0             -2181.2372      1630.05        1672.2615      1627.4992      1590.3892     -21.682916      39.943943     -168.68888      17.690551      17.686392      17.688252      5534.3357    
       157   0             -2181.2372      1630.05        1672.2615      1627.4992      1590.3892     -21.682916      39.943943     -168.68888      17.690551      17.686392      17.688252      5534.3357    
       158   0             -2181.2372      1630.05        1672.2615      1627.4992      1590.3892     -21.682916      39.943943     -168.68888      17.690551      17.686392      17.688252      5534.3357    
       159   0             -2181.2372      1630.05        1672.2615      1627.4992      1590.3892     -21.682916      39.943943     -168.68888      17.690551      17.686392      17.688252      5534.3357    
       160   0             -2181.2372      1630.05        1672.2615      1627.4992      1590.3892     -21.682916      39.943943     -168.68888      17.690551      17.686392      17.688252      5534.3357    
Loop time of 0.144067 on 1 procs for 60 steps with 500 atoms

97.6% CPU use with 1 MPI tasks x 1 OpenMP threads

Minimization stats:
  Stopping criterion = force tolerance
  Energy initial, next-to-last, final = 
     -2180.99859049331  -2181.23719525047  -2181.23719525048
  Force two-norm initial, final = 2.033579 7.1289621e-11
  Force max component initial, final = 0.18868383 1.285716e-11
  Final line search alpha, max atom move = 1 1.285716e-11
  Iterations, force evaluations = 60 118

MPI task timing breakdown:
Section |  min time  |  avg time  |  max time  |%varavg| %total
---------------------------------------------------------------
Pair    | 0.14134    | 0.14134    | 0.14134    |   0.0 | 98.11
Neigh   | 0          | 0          | 0          |   0.0 |  0.00
Comm    | 0.000753   | 0.000753   | 0.000753   |   0.0 |  0.52
Output  | 0.000931   | 0.000931   | 0.000931   |   0.0 |  0.65
Modify  | 0          | 0          | 0          |   0.0 |  0.00
Other   |            | 0.001041   |            |       |  0.72

Nlocal:            500 ave         500 max         500 min
Histogram: 1 0 0 0 0 0 0 0 0 0
Nghost:           1956 ave        1956 max        1956 min
Histogram: 1 0 0 0 0 0 0 0 0 0
Neighs:          33500 ave       33500 max       33500 min
Histogram: 1 0 0 0 0 0 0 0 0 0

Total # of neighbors = 33500
Ave neighs/atom = 67
Neighbor list builds = 0
Dangerous builds = 0
OMP_NUM_THREADS environment is not set. Defaulting to 1 thread. (src/comm.cpp:98)
  using 1 OpenMP thread(s) per MPI task
Loaded 1 plugins from F:\Lammps\LAMMPS 64-bit 2Aug2023\plugins

The 'box' command has been removed and will be ignored

Reading restart file ...
  restart file = 2 Aug 2023, LAMMPS = 2 Aug 2023
  restoring atom style atomic from restart
  triclinic box = (0.04972474 0.051804228 0.050874009) to (17.740275 17.738196 17.739126) with tilt (0 0 0)
  1 by 1 by 1 MPI processor grid
  pair style eam/alloy stores no restart info
  500 atoms
  read_restart CPU = 0.000 seconds
Changing box ...
  triclinic box = (0.04972474 0.051804228 0.050874009) to (17.740275 17.738196 17.739126) with tilt (1.7686392e-05 0 0)
Neighbor list info ...
  update: every = 1 steps, delay = 0 steps, check = yes
  max neighbors/atom: 2000, page size: 100000
  master list distance cutoff = 6.80375
  ghost atom cutoff = 6.80375
  1 neighbor lists, perpetual/occasional/extra = 1 0 0
  (1) pair eam/alloy, perpetual
      attributes: half, newton on
      pair build: half/nsq/newton
      stencil: none
      bin: none
Setting up cg style minimization ...
  Unit style    : metal
  Current step  : 100
Per MPI rank memory allocation (min/avg/max) = 4.482 | 4.482 | 4.482 Mbytes
   Step          Temp          PotEng         Press           Pxx            Pyy            Pzz            Pxy            Pxz            Pyz             Lx             Ly             Lz           Volume    
       100   0             -2180.9986      375.21225      377.09703      373.43154      375.10818     -1.5121285      92.180576     -145.78945      17.690551      17.686392      17.688252      5534.3357    
       101   0             -2181.1544      1141.5777      1168.9252      1140.9476      1114.8604     -18.990323      73.358865     -152.82933      17.690551      17.686392      17.688252      5534.3357    
       102   0             -2181.2175      1675.2446      1720.9421      1680.1065      1624.6853     -33.70183       53.331056     -166.7507       17.690551      17.686392      17.688252      5534.3357    
       103   0             -2181.2303      1518.0368      1546.4669      1517.549       1490.0944     -17.512545      57.742938     -159.0262       17.690551      17.686392      17.688252      5534.3357    
       104   0             -2181.2352      1614.2136      1650.1752      1611.8152      1580.6503     -29.799173      46.045675     -162.64084      17.690551      17.686392      17.688252      5534.3357    
       105   0             -2181.2363      1669.3211      1708.7999      1666.8554      1632.308      -28.272817      41.709199     -165.37325      17.690551      17.686392      17.688252      5534.3357    
       106   0             -2181.2369      1630.632       1671.8913      1627.8712      1592.1334     -23.01188       39.043423     -169.43046      17.690551      17.686392      17.688252      5534.3357    
       107   0             -2181.2371      1626.1124      1666.6247      1623.8996      1587.8131     -22.299495      39.576421     -168.66749      17.690551      17.686392      17.688252      5534.3357    
       108   0             -2181.2371      1627.9274      1668.6184      1625.6003      1589.5636     -23.477635      40.133745     -167.98249      17.690551      17.686392      17.688252      5534.3357    
       109   0             -2181.2372      1629.9914      1671.5299      1628.011       1590.4334     -24.481743      40.069954     -168.508        17.690551      17.686392      17.688252      5534.3357    
       110   0             -2181.2372      1632.8365      1674.6787      1630.8012      1593.0297     -24.298258      39.827138     -168.71428      17.690551      17.686392      17.688252      5534.3357    
       111   0             -2181.2372      1630.1776      1672.2855      1627.4593      1590.7879     -24.176062      39.91249      -168.75597      17.690551      17.686392      17.688252      5534.3357    
       112   0             -2181.2372      1629.602       1671.704       1626.8338      1590.2682     -24.61102       40.108283     -168.81212      17.690551      17.686392      17.688252      5534.3357    
       113   0             -2181.2372      1630.2167      1672.3915      1627.3575      1590.901      -24.200306      40.104051     -168.4014       17.690551      17.686392      17.688252      5534.3357    
       114   0             -2181.2372      1630.2526      1672.4716      1627.4626      1590.8237     -23.85252       39.872159     -168.49209      17.690551      17.686392      17.688252      5534.3357    
       115   0             -2181.2372      1630.3454      1672.5144      1627.68        1590.8418     -23.988205      39.784696     -168.64899      17.690551      17.686392      17.688252      5534.3357    
       116   0             -2181.2372      1629.951       1672.1152      1627.368       1590.3696     -24.060762      39.854983     -168.69661      17.690551      17.686392      17.688252      5534.3357    
       117   0             -2181.2372      1629.8851      1672.0659      1627.3267      1590.2628     -24.075115      39.898708     -168.69303      17.690551      17.686392      17.688252      5534.3357    
       118   0             -2181.2372      1630.0631      1672.2494      1627.517       1590.423      -24.060263      39.90034      -168.70148      17.690551      17.686392      17.688252      5534.3357    
       119   0             -2181.2372      1630.0961      1672.2839      1627.5581      1590.4464     -24.038499      39.928958     -168.71374      17.690551      17.686392      17.688252      5534.3357    
       120   0             -2181.2372      1630.0697      1672.2771      1627.5291      1590.4028     -24.036274      39.941705     -168.71161      17.690551      17.686392      17.688252      5534.3357    
       121   0             -2181.2372      1630.0407      1672.2503      1627.5031      1590.3687     -24.033959      39.941275     -168.69572      17.690551      17.686392      17.688252      5534.3357    
       122   0             -2181.2372      1630.0424      1672.2605      1627.4988      1590.368      -24.03181       39.936074     -168.69287      17.690551      17.686392      17.688252      5534.3357    
       123   0             -2181.2372      1630.059       1672.2737      1627.5113      1590.392      -24.034821      39.93961      -168.6891       17.690551      17.686392      17.688252      5534.3357    
       124   0             -2181.2372      1630.0593      1672.2727      1627.5118      1590.3936     -24.035564      39.943174     -168.68832      17.690551      17.686392      17.688252      5534.3357    
       125   0             -2181.2372      1630.0474      1672.2601      1627.5004      1590.3817     -24.034445      39.941779     -168.68931      17.690551      17.686392      17.688252      5534.3357    
       126   0             -2181.2372      1630.047       1672.261       1627.4981      1590.3819     -24.033866      39.940997     -168.6881       17.690551      17.686392      17.688252      5534.3357    
       127   0             -2181.2372      1630.0498      1672.2642      1627.5003      1590.3848     -24.034958      39.941642     -168.68819      17.690551      17.686392      17.688252      5534.3357    
       128   0             -2181.2372      1630.0515      1672.2653      1627.5023      1590.3869     -24.035545      39.941391     -168.68948      17.690551      17.686392      17.688252      5534.3357    
       129   0             -2181.2372      1630.0509      1672.2646      1627.5015      1590.3866     -24.03533       39.941726     -168.68968      17.690551      17.686392      17.688252      5534.3357    
       130   0             -2181.2372      1630.05        1672.2636      1627.5007      1590.3857     -24.035309      39.941618     -168.68966      17.690551      17.686392      17.688252      5534.3357    
       131   0             -2181.2372      1630.0502      1672.264       1627.5009      1590.3858     -24.035322      39.941356     -168.68954      17.690551      17.686392      17.688252      5534.3357    
       132   0             -2181.2372      1630.0505      1672.2645      1627.5009      1590.3859     -24.035237      39.941319     -168.68959      17.690551      17.686392      17.688252      5534.3357    
       133   0             -2181.2372      1630.0505      1672.2646      1627.5009      1590.386      -24.035136      39.941415     -168.68974      17.690551      17.686392      17.688252      5534.3357    
       134   0             -2181.2372      1630.0504      1672.2644      1627.5008      1590.386      -24.03519       39.941477     -168.68975      17.690551      17.686392      17.688252      5534.3357    
       135   0             -2181.2372      1630.0502      1672.2642      1627.5007      1590.3859     -24.035222      39.941545     -168.68967      17.690551      17.686392      17.688252      5534.3357    
       136   0             -2181.2372      1630.0503      1672.2642      1627.5007      1590.3859     -24.035236      39.941532     -168.68967      17.690551      17.686392      17.688252      5534.3357    
       137   0             -2181.2372      1630.0503      1672.2643      1627.5007      1590.386      -24.035243      39.94154      -168.68968      17.690551      17.686392      17.688252      5534.3357    
       138   0             -2181.2372      1630.0503      1672.2643      1627.5007      1590.386      -24.035232      39.941547     -168.68967      17.690551      17.686392      17.688252      5534.3357    
       139   0             -2181.2372      1630.0503      1672.2642      1627.5007      1590.386      -24.035232      39.941545     -168.68967      17.690551      17.686392      17.688252      5534.3357    
       140   0             -2181.2372      1630.0503      1672.2642      1627.5007      1590.386      -24.035229      39.941549     -168.68967      17.690551      17.686392      17.688252      5534.3357    
       141   0             -2181.2372      1630.0503      1672.2642      1627.5007      1590.386      -24.035227      39.94155      -168.68968      17.690551      17.686392      17.688252      5534.3357    
       142   0             -2181.2372      1630.0503      1672.2642      1627.5007      1590.386      -24.035228      39.941548     -168.68968      17.690551      17.686392      17.688252      5534.3357    
       143   0             -2181.2372      1630.0503      1672.2642      1627.5007      1590.386      -24.035228      39.941548     -168.68968      17.690551      17.686392      17.688252      5534.3357    
       144   0             -2181.2372      1630.0503      1672.2642      1627.5007      1590.386      -24.035228      39.941549     -168.68968      17.690551      17.686392      17.688252      5534.3357    
       145   0             -2181.2372      1630.0503      1672.2642      1627.5007      1590.386      -24.035228      39.941549     -168.68967      17.690551      17.686392      17.688252      5534.3357    
       146   0             -2181.2372      1630.0503      1672.2642      1627.5007      1590.386      -24.035228      39.941549     -168.68967      17.690551      17.686392      17.688252      5534.3357    
       147   0             -2181.2372      1630.0503      1672.2642      1627.5007      1590.386      -24.035228      39.941549     -168.68967      17.690551      17.686392      17.688252      5534.3357    
       148   0             -2181.2372      1630.0503      1672.2642      1627.5007      1590.386      -24.035228      39.94155      -168.68967      17.690551      17.686392      17.688252      5534.3357    
       149   0             -2181.2372      1630.0503      1672.2642      1627.5007      1590.386      -24.035228      39.941549     -168.68967      17.690551      17.686392      17.688252      5534.3357    
       150   0             -2181.2372      1630.0503      1672.2642      1627.5007      1590.386      -24.035228      39.941549     -168.68967      17.690551      17.686392      17.688252      5534.3357    
       151   0             -2181.2372      1630.0503      1672.2642      1627.5007      1590.386      -24.035228      39.941549     -168.68967      17.690551      17.686392      17.688252      5534.3357    
       152   0             -2181.2372      1630.0503      1672.2642      1627.5007      1590.386      -24.035228      39.941549     -168.68967      17.690551      17.686392      17.688252      5534.3357    
       153   0             -2181.2372      1630.0503      1672.2642      1627.5007      1590.386      -24.035228      39.941549     -168.68967      17.690551      17.686392      17.688252      5534.3357    
       154   0             -2181.2372      1630.0503      1672.2642      1627.5007      1590.386      -24.035228      39.941549     -168.68967      17.690551      17.686392      17.688252      5534.3357    
       155   0             -2181.2372      1630.0503      1672.2642      1627.5007      1590.386      -24.035228      39.941549     -168.68967      17.690551      17.686392      17.688252      5534.3357    
       156   0             -2181.2372      1630.0503      1672.2642      1627.5007      1590.386      -24.035228      39.941549     -168.68967      17.690551      17.686392      17.688252      5534.3357    
       157   0             -2181.2372      1630.0503      1672.2642      1627.5007      1590.386      -24.035228      39.941549     -168.68967      17.690551      17.686392      17.688252      5534.3357    
       158   0             -2181.2372      1630.0503      1672.2642      1627.5007      1590.386      -24.035228      39.941549     -168.68967      17.690551      17.686392      17.688252      5534.3357    
       159   0             -2181.2372      1630.0503      1672.2642      1627.5007      1590.386      -24.035228      39.941549     -168.68967      17.690551      17.686392      17.688252      5534.3357    
       160   0             -2181.2372      1630.0503      1672.2642      1627.5007      1590.386      -24.035228      39.941549     -168.68967      17.690551      17.686392      17.688252      5534.3357    
Loop time of 0.143306 on 1 procs for 60 steps with 500 atoms

98.1% CPU use with 1 MPI tasks x 1 OpenMP threads

Minimization stats:
  Stopping criterion = force tolerance
  Energy initial, next-to-last, final = 
     -2180.99859049106  -2181.23719509253  -2181.23719509252
  Force two-norm initial, final = 2.0335782 7.1341639e-11
  Force max component initial, final = 0.18868459 1.2971261e-11
  Final line search alpha, max atom move = 1 1.2971261e-11
  Iterations, force evaluations = 60 118

MPI task timing breakdown:
Section |  min time  |  avg time  |  max time  |%varavg| %total
---------------------------------------------------------------
Pair    | 0.14059    | 0.14059    | 0.14059    |   0.0 | 98.10
Neigh   | 0          | 0          | 0          |   0.0 |  0.00
Comm    | 0.000717   | 0.000717   | 0.000717   |   0.0 |  0.50
Output  | 0.001009   | 0.001009   | 0.001009   |   0.0 |  0.70
Modify  | 0          | 0          | 0          |   0.0 |  0.00
Other   |            | 0.000992   |            |       |  0.69

Nlocal:            500 ave         500 max         500 min
Histogram: 1 0 0 0 0 0 0 0 0 0
Nghost:           1956 ave        1956 max        1956 min
Histogram: 1 0 0 0 0 0 0 0 0 0
Neighs:          33500 ave       33500 max       33500 min
Histogram: 1 0 0 0 0 0 0 0 0 0

Total # of neighbors = 33500
Ave neighs/atom = 67
Neighbor list builds = 0
Dangerous builds = 0
=========================================
Components of the Elastic Constant Tensor
=========================================
Elastic Constant C11all = 246.042161108002 GPa
Elastic Constant C22all = 246.599153008501 GPa
Elastic Constant C33all = 246.466371795002 GPa
Elastic Constant C12all = 154.495468101999 GPa
Elastic Constant C13all = 154.48293468275 GPa
Elastic Constant C23all = 154.987326603503 GPa
Elastic Constant C44all = 117.72748476415 GPa
Elastic Constant C55all = 117.478505477945 GPa
Elastic Constant C66all = 117.615608850815 GPa
Elastic Constant C14all = 0.159373407850922 GPa
Elastic Constant C15all = -0.418679360393753 GPa
Elastic Constant C16all = -0.140501647359429 GPa
Elastic Constant C24all = 0.265437510848187 GPa
Elastic Constant C25all = -0.0482654112872751 GPa
Elastic Constant C26all = -0.0753409008625568 GPa
Elastic Constant C34all = 0.171290861698935 GPa
Elastic Constant C35all = -0.318487249652663 GPa
Elastic Constant C36all = 0.163065625583044 GPa
Elastic Constant C45all = -0.0173712021975234 GPa
Elastic Constant C46all = 0.0375038101949485 GPa
Elastic Constant C56all = 0.119674950694958 GPa
=========================================
Average properties for a cubic crystal
=========================================
Bulk Modulus = 185.226571632001 GPa
Shear Modulus 1 = 117.607199697637 GPa
Shear Modulus 2 = 45.8569927538755 GPa
Poisson Ratio = 0.385650387987877
Total wall time: 0:00:02
