LAMMPS (2 Aug 2023 - Update 3)
OMP_NUM_THREADS environment is not set. Defaulting to 1 thread. (src/comm.cpp:98)
  using 1 OpenMP thread(s) per MPI task
Loaded 1 plugins from F:\Lammps\LAMMPS 64-bit 2Aug2023\plugins
Reading data file ...
  orthogonal box = (0 0 0) to (17.79 17.79 17.79)
  1 by 1 by 1 MPI processor grid
  reading atoms ...
  500 atoms
  read_data CPU = 0.001 seconds
Changing box ...
  triclinic box = (0 0 0) to (17.79 17.79 17.79) with tilt (0 0 0)
Neighbor list info ...
  update: every = 1 steps, delay = 0 steps, check = yes
  max neighbors/atom: 2000, page size: 100000
  master list distance cutoff = 6.80375
  ghost atom cutoff = 6.80375
  1 neighbor lists, perpetual/occasional/extra = 1 0 0
  (1) pair eam/alloy, perpetual
      attributes: half, newton on
      pair build: half/nsq/newton
      stencil: none
      bin: none
Setting up cg style minimization ...
  Unit style    : metal
  Current step  : 0
WARNING: Energy due to 3 extra global DOFs will be included in minimizer energies
 (src/min.cpp:228)
Per MPI rank memory allocation (min/avg/max) = 4.492 | 4.492 | 4.492 Mbytes
   Step          Temp          PotEng         Press           Pxx            Pyy            Pzz            Pxy            Pxz            Pyz             Lx             Ly             Lz           Volume    
         0   0             -2179.7649     -33924.769     -33943.225     -33898.05      -33933.03      -98.770683     -52.932458      90.362202      17.79          17.79          17.79          5630.2521    
         1   0             -2179.8003     -33379.172     -33397.368     -33352.333     -33387.814     -98.60111      -52.985216      90.327673      17.788221      17.788223      17.788222      5628.5642    
         2   0             -2179.8352     -32833.143     -32851.081     -32806.188     -32842.161     -98.427687     -53.038248      90.295169      17.786442      17.786447      17.786443      5626.8765    
         3   0             -2179.8695     -32286.678     -32304.358     -32259.608     -32296.068     -98.250012     -53.091656      90.264777      17.784663      17.78467       17.784665      5625.1892    
         4   0             -2179.9032     -31739.788     -31757.212     -31712.606     -31749.545     -98.068488     -53.145239      90.236341      17.782884      17.782894      17.782886      5623.5022    
         5   0             -2179.9363     -31192.549     -31209.725     -31165.253     -31202.671     -97.884567     -53.198749      90.209269      17.781105      17.781117      17.781107      5621.8156    
         6   0             -2179.9689     -30645.02      -30661.953     -30617.607     -30655.501     -97.699636     -53.251798      90.183636      17.779326      17.779341      17.779329      5620.1293    
         7   0             -2180.0009     -30097.201     -30113.899     -30069.669     -30108.036     -97.514164     -53.304446      90.160028      17.777547      17.777564      17.77755       5618.4434    
         8   0             -2180.0323     -29549.048     -29565.511     -29521.399     -29560.233     -97.327657     -53.356349      90.138031      17.775768      17.775788      17.775772      5616.7577    
         9   0             -2180.0631     -29000.497     -29016.721     -28972.74      -29012.029     -97.138501     -53.408573      90.118138      17.773989      17.774012      17.773993      5615.0725    
        10   0             -2180.0933     -28451.514     -28467.494     -28423.657     -28463.391     -96.946232     -53.462683      90.100166      17.77221       17.772235      17.772214      5613.3875    
        11   0             -2180.1229     -27902.12      -27917.852     -27874.17      -27914.339     -96.751131     -53.518532      90.084124      17.770431      17.770459      17.770435      5611.703     
        12   0             -2180.152      -27352.364     -27367.854     -27324.316     -27364.923     -96.553736     -53.576493      90.071239      17.768652      17.768683      17.768657      5610.0187    
        13   0             -2180.1804     -26802.274     -26817.529     -26774.123     -26815.17      -96.355018     -53.635077      90.062         17.766873      17.766907      17.766878      5608.3348    
        14   0             -2180.2083     -26251.901     -26266.929     -26223.641     -26265.132     -96.154553     -53.692688      90.054351      17.765094      17.76513       17.765099      5606.6513    
        15   0             -2180.2356     -25701.197     -25715.999     -25672.834     -25714.758     -95.951956     -53.748553      90.046794      17.763315      17.763354      17.76332       5604.968     
        16   0             -2180.2623     -25150.111     -25164.686     -25121.651     -25163.996     -95.747578     -53.802111      90.039017      17.761536      17.761578      17.761541      5603.2852    
        17   0             -2180.2885     -24598.616     -24612.962     -24570.066     -24612.82      -95.541067     -53.853664      90.031333      17.759757      17.759802      17.759762      5601.6026    
        18   0             -2180.314      -24046.694     -24060.814     -24018.056     -24061.214     -95.332258     -53.904738      90.027071      17.757978      17.758027      17.757983      5599.9204    
        19   0             -2180.339      -23494.448     -23508.347     -23465.719     -23509.278     -95.120323     -53.956448      90.027859      17.756199      17.756251      17.756204      5598.2386    
        20   0             -2180.3634     -22941.902     -22955.584     -22913.083     -22957.039     -94.905767     -54.008869      90.033464      17.75442       17.754475      17.754425      5596.5572    
        21   0             -2180.3872     -22389.081     -22402.548     -22360.173     -22404.522     -94.689731     -54.062603      90.043586      17.752641      17.752699      17.752646      5594.8761    
        22   0             -2180.4104     -21835.904     -21849.154     -21806.916     -21851.643     -94.472896     -54.116112      90.056215      17.750862      17.750924      17.750867      5593.1955    
        23   0             -2180.433      -21282.405     -21295.436     -21253.342     -21298.438     -94.255966     -54.169284      90.071025      17.749084      17.749149      17.749088      5591.5152    
        24   0             -2180.455      -20728.576     -20741.387     -20699.444     -20744.896     -94.038592     -54.221923      90.088329      17.747305      17.747373      17.747309      5589.8353    
        25   0             -2180.4765     -20174.475     -20187.068     -20145.276     -20191.08      -93.819017     -54.273344      90.106818      17.745526      17.745598      17.74553       5588.1558    
        26   0             -2180.4974     -19620.114     -19632.489     -19590.85      -19637.004     -93.597069     -54.322733      90.124918      17.743747      17.743823      17.743751      5586.4767    
        27   0             -2180.5176     -19065.445     -19077.599     -19036.115     -19082.62      -93.371361     -54.37061       90.143372      17.741969      17.742049      17.741972      5584.798     
        28   0             -2180.5373     -18510.471     -18522.403     -18481.078     -18527.931     -93.141615     -54.41738       90.163073      17.74019       17.740274      17.740193      5583.1197    
        29   0             -2180.5564     -17955.207     -17966.92      -17925.756     -17972.945     -92.90973      -54.464473      90.189163      17.738412      17.738499      17.738414      5581.4419    
        30   0             -2180.575      -17399.665     -17411.164     -17370.159     -17417.672     -92.675734     -54.512272      90.222609      17.736633      17.736725      17.736635      5579.7644    
        31   0             -2180.5929     -16843.883     -16855.173     -16814.327     -16862.151     -92.440942     -54.560284      90.262618      17.734855      17.734951      17.734856      5578.0873    
        32   0             -2180.6103     -16287.822     -16298.901     -16258.22      -16306.344     -92.205361     -54.607072      90.304746      17.733077      17.733177      17.733077      5576.4107    
        33   0             -2180.627      -15731.45      -15742.315     -15701.81      -15750.225     -91.967104     -54.652576      90.344648      17.731299      17.731403      17.731298      5574.7345    
        34   0             -2180.6432     -15174.77      -15185.417     -15145.099     -15193.794     -91.725923     -54.696699      90.382186      17.729521      17.72963       17.729519      5573.0587    
        35   0             -2180.6588     -14617.788     -14628.213     -14588.091     -14637.059     -91.48172      -54.739449      90.418004      17.727743      17.727856      17.72774       5571.3834    
        36   0             -2180.6738     -14060.575     -14070.778     -14030.859     -14080.089     -91.234382     -54.781358      90.456486      17.725965      17.726083      17.725961      5569.7085    
        37   0             -2180.6882     -13503.165     -13513.145     -13473.437     -13522.914     -90.98469      -54.821882      90.499912      17.724187      17.724311      17.724182      5568.034     
        38   0             -2180.7021     -12945.57      -12955.325     -12915.838     -12965.547     -90.733052     -54.860879      90.548241      17.722409      17.722538      17.722403      5566.36      
        39   0             -2180.7153     -12387.752     -12397.28      -12358.027     -12407.947     -90.479241     -54.899062      90.601995      17.720632      17.720766      17.720624      5564.6865    
        40   0             -2180.728      -11829.654     -11838.954     -11799.948     -11850.059     -90.224225     -54.935962      90.657356      17.718854      17.718994      17.718845      5563.0135    
        41   0             -2180.7401     -11271.251     -11280.323     -11241.573     -11291.858     -89.966981     -54.971441      90.714685      17.717077      17.717223      17.717066      5561.3409    
        42   0             -2180.7516     -10712.573     -10721.415     -10682.931     -10733.374     -89.707375     -55.005423      90.774011      17.7153        17.715452      17.715287      5559.6689    
        43   0             -2180.7625     -10153.707     -10162.319     -10124.108     -10174.694     -89.445851     -55.037601      90.836835      17.713523      17.713681      17.713508      5557.9974    
        44   0             -2180.7728     -9594.6861     -9603.0685     -9565.1413     -9615.8485     -89.182621     -55.06783       90.903748      17.711746      17.711911      17.711729      5556.3264    
        45   0             -2180.7825     -9035.5549     -9043.7059     -9006.0787     -9056.88       -88.919004     -55.097256      90.974188      17.709969      17.710141      17.70995       5554.656     
        46   0             -2180.7917     -8476.2647     -8484.1792     -8446.8763     -8497.7387     -88.655352     -55.126165      91.046664      17.708193      17.708372      17.708171      5552.9862    
        47   0             -2180.8002     -7916.8213     -7924.4923     -7887.5421     -7938.4296     -88.390802     -55.1546        91.1206        17.706416      17.706604      17.706392      5551.317     
        48   0             -2180.8082     -7357.2296     -7364.6494     -7328.0832     -7378.9561     -88.125406     -55.182588      91.196257      17.704641      17.704836      17.704613      5549.6485    
        49   0             -2180.8156     -6797.5016     -6804.6653     -6768.5116     -6819.328      -87.858313     -55.208522      91.274582      17.702865      17.70307       17.702834      5547.9807    
        50   0             -2180.8225     -6237.6234     -6244.5278     -6208.8157     -6259.5268     -87.590047     -55.230921      91.355926      17.70109       17.701304      17.701055      5546.3136    
        51   0             -2180.8287     -5677.6214     -5684.2632     -5649.0239     -5699.5769     -87.320847     -55.249841      91.440114      17.699315      17.699539      17.699276      5544.6474    
        52   0             -2180.8343     -5117.5585     -5123.9334     -5089.2056     -5139.5366     -87.050302     -55.265409      91.52745       17.697541      17.697776      17.697497      5542.9821    
        53   0             -2180.8394     -4557.5444     -4563.6464     -4529.4777     -4579.5091     -86.777938     -55.278631      91.618002      17.695767      17.696015      17.695718      5541.3179    
        54   0             -2180.8439     -3997.6815     -4003.5016     -3969.9606     -4019.5822     -86.50389      -55.291204      91.712166      17.693994      17.694255      17.693939      5539.6548    
        55   0             -2180.8478     -3438.0197     -3443.5461     -3410.7198     -3459.7932     -86.228401     -55.30322       91.810025      17.692223      17.692498      17.69216       5537.9932    
        56   0             -2180.8512     -2878.5847     -2883.7996     -2851.8076     -2900.1468     -85.951939     -55.313901      91.911022      17.690452      17.690744      17.690381      5536.3333    
        57   0             -2180.8539     -2319.4601     -2324.3423     -2293.3284     -2340.7096     -85.674061     -55.322662      92.015286      17.688683      17.688995      17.688602      5534.6757    
        58   0             -2180.8562     -1760.8872     -1765.4074     -1735.5764     -1781.6777     -85.394685     -55.327658      92.123521      17.686916      17.687252      17.686823      5533.0211    
        59   0             -2180.8578     -1203.3831     -1207.501      -1179.1632     -1223.4852     -85.113234     -55.328216      92.237691      17.685154      17.685519      17.685044      5531.3712    
        60   0             -2180.859      -648.19354     -651.83394     -625.57518     -667.17149     -84.829297     -55.325087      92.361193      17.683398      17.683805      17.683265      5529.7296    
        61   0             -2180.8597     -99.160256     -102.12769     -79.450972     -115.90211     -84.540717     -55.31789       92.504126      17.68166       17.682137      17.681486      5528.1083    
        62   0             -2180.8616      389.04059      388.60452      393.25741      385.25985     -84.209472     -55.297584      92.821849      17.680092      17.680917      17.679707      5526.6809    
        63   0             -2180.863      -137.76546     -137.56901     -139.35123     -136.37613     -84.416284     -55.293772      92.856587      17.681749      17.682696      17.681286      5528.2484    
        64   0             -2180.8668      423.47093      424.24711      419.44475      426.72091     -83.957338     -55.249196      93.386506      17.680005      17.681011      17.679507      5526.6206    
        65   0             -2180.8685     -134.53729     -134.04847     -138.32403     -131.23938     -84.165683     -55.240911      93.437711      17.681779      17.682774      17.681286      5528.2824    
        66   0             -2180.8728      410.25801      410.19024      411.85574      408.72806     -83.686031     -55.188602      94.023342      17.680114      17.680995      17.679694      5526.7079    
        67   0             -2180.8745     -147.11136     -147.47641     -145.15717     -148.70051     -83.892878     -55.179722      94.073986      17.681887      17.682753      17.681473      5528.3678    
        68   0             -2180.8788      420.51805      420.66517      420.83577      420.0532      -83.400267     -55.130039      94.67744       17.68013       17.681039      17.679694      5526.7266    
        69   0             -2180.8806     -136.7002      -136.69839     -137.08575     -136.31647     -83.602792     -55.120219      94.735712      17.6819        17.682818      17.681455      5528.3866    
        70   0             -2180.8852      440.74781      440.96308      440.60437      440.67598     -83.090609     -55.067973      95.374298      17.680121      17.681039      17.679679      5526.7189    
        71   0             -2180.8869     -119.0801      -119.09466     -119.40783     -118.73781     -83.293594     -55.057524      95.429559      17.6819        17.682816      17.681457      5528.3865    
        72   0             -2180.8921      456.81752      456.96196      457.23839      456.25221     -82.756067     -55.000996      96.128719      17.680132      17.681037      17.679699      5526.7281    
        73   0             -2180.8937     -103.31689     -103.39673     -103.12353     -103.43041     -82.961723     -54.990784      96.174076      17.681911      17.682815      17.681476      5528.3959    
        74   0             -2180.8995      476.54287      476.76073      476.55411      476.31377     -82.386839     -54.928731      96.957666      17.680135      17.681048      17.679697      5526.7321    
        75   0             -2180.9011     -83.757217     -83.761        -84.02685      -83.483802     -82.594892     -54.918741      96.993304      17.681914      17.682827      17.681474      5528.3996    
        76   0             -2180.9079      497.55925      497.71724      498.04594      496.91457     -81.962322     -54.846699      97.90756       17.680147      17.681048      17.679716      5526.7416    
        77   0             -2180.9094     -63.142498     -63.214764     -62.906884     -63.305845     -82.173451     -54.837016      97.931353      17.681926      17.682827      17.681493      5528.4094    
        78   0             -2180.9182      523.75361      524.07162      523.32335      523.86587     -81.437753     -54.748005      99.077766      17.680155      17.681076      17.679714      5526.7525    
        79   0             -2180.9196     -37.224089     -37.149261     -37.859312     -36.663694     -81.651775     -54.738821      99.088977      17.681934      17.682854      17.681492      5528.4202    
        80   0             -2180.9331      546.01086      545.77157      549.213        543.04802     -80.659655     -54.601903      100.8124       17.680236      17.681075      17.679846      5526.8185    
        81   0             -2180.9344     -13.388985     -13.816782     -10.77258      -15.577591     -80.87623      -54.594348      100.80633      17.682007      17.682854      17.681611      5528.4802    
        82   0             -2180.9607      458.95133      464.19513      427.58946      485.06939     -79.234808     -54.348914      104.09786      17.680672      17.68228       17.679832      5527.327     
        83   0             -2180.9617     -75.566263     -71.463808     -101.63225     -53.60273      -79.443646     -54.341495      104.06162      17.68238       17.683866      17.681611      5528.9131    
        84   0             -2180.9654      204.40801      200.84134      226.97788      185.40481     -79.089836     -54.285133      104.56464      17.681685      17.682087      17.681555      5528.122     
        85   0             -2180.9665     -322.28998     -325.17014     -305.56332     -336.13649     -79.278141     -54.276664      104.57514      17.683338      17.683866      17.683133      5529.6884    
        86   0             -2180.9686      177.18914      176.86544      179.97949      174.7225      -78.930749     -54.264349      104.95699      17.68174       17.682585      17.681354      5528.2321    
        87   0             -2180.9706     -331.98068     -331.264       -337.39849     -327.27954     -79.057295     -54.24857       105.0889       17.68334       17.684364      17.682847      5529.7556    
        88   0             -2180.9725      228.09885      229.42103      220.69726      234.17826     -78.687183     -54.232185      105.46143      17.681588      17.682661      17.681068      5528.119     
        89   0             -2180.9753     -309.99996     -309.55158     -314.03058     -306.41771     -78.78265      -54.205246      105.66933      17.683323      17.684315      17.682847      5529.735     
        90   0             -2180.9774      241.06873      241.23972      240.58393      241.38252     -78.403772     -54.184569      106.06332      17.681619      17.682536      17.681188      5528.1272    
        91   0             -2180.9802     -297.96031     -298.56852     -295.39568     -299.91674     -78.490834     -54.156735      106.28774      17.683356      17.684201      17.682967      5529.7473    
        92   0             -2180.9825      271.76339      271.38599      274.97282      268.93136     -78.088789     -54.135033      106.7217       17.681586      17.682422      17.681206      5528.0869    
        93   0             -2180.9855     -273.5594      -273.93776     -272.13439     -274.60605     -78.171842     -54.108689      106.96147      17.683329      17.684201      17.682928      5529.7267    
        94   0             -2180.988       291.99264      292.16973      291.97622      291.83198     -77.757455     -54.085657      107.4288       17.681569      17.682478      17.681149      5528.0812    
        95   0             -2180.991      -255.52541     -255.43296     -257.00663     -254.13664     -77.844427     -54.060398      107.65762      17.68332       17.684257      17.682882      5529.7267    
        96   0             -2180.9937      318.6993       319.07178      317.44618      319.57994     -77.407288     -54.034241      108.16725      17.681541      17.682478      17.681106      5528.0589    
        97   0             -2180.9966     -233.61806     -233.65485     -234.37005     -232.82928     -77.496891     -54.008664      108.38819      17.683313      17.684234      17.682885      5529.7182    
        98   0             -2180.9996      336.0704       336.18156      336.45867      335.57096     -77.043888     -53.980303      108.93593      17.681554      17.682455      17.681141      5528.0669    
        99   0             -2181.0024     -217.68847     -217.94386     -217.00214     -218.1194      -77.140712     -53.956096      109.13868      17.683328      17.684218      17.68292       5529.729     
       100   0             -2181.0057      358.47228      358.56229      359.18134      357.67322     -76.663716     -53.926126      109.73553      17.681549      17.682444      17.681143      5528.0623    
Loop time of 0.116693 on 1 procs for 100 steps with 500 atoms

107.1% CPU use with 1 MPI tasks x 1 OpenMP threads

Minimization stats:
  Stopping criterion = max iterations
  Energy initial, next-to-last, final = 
     -2179.76485053034  -2181.00238496354  -2181.00565709804
  Force two-norm initial, final = 206.51537 3.0842264
  Force max component initial, final = 119.28081 1.2468379
  Final line search alpha, max atom move = 0.00023824937 0.00029705834
  Iterations, force evaluations = 100 100

MPI task timing breakdown:
Section |  min time  |  avg time  |  max time  |%varavg| %total
---------------------------------------------------------------
Pair    | 0.10899    | 0.10899    | 0.10899    |   0.0 | 93.40
Neigh   | 0          | 0          | 0          |   0.0 |  0.00
Comm    | 0.000594   | 0.000594   | 0.000594   |   0.0 |  0.51
Output  | 0.001375   | 0.001375   | 0.001375   |   0.0 |  1.18
Modify  | 0          | 0          | 0          |   0.0 |  0.00
Other   |            | 0.005737   |            |       |  4.92

Nlocal:            500 ave         500 max         500 min
Histogram: 1 0 0 0 0 0 0 0 0 0
Nghost:           1956 ave        1956 max        1956 min
Histogram: 1 0 0 0 0 0 0 0 0 0
Neighs:          33500 ave       33500 max       33500 min
Histogram: 1 0 0 0 0 0 0 0 0 0

Total # of neighbors = 33500
Ave neighs/atom = 67
Neighbor list builds = 0
Dangerous builds = 0
Displacing atoms ...
System init for write_restart ...
OMP_NUM_THREADS environment is not set. Defaulting to 1 thread. (src/comm.cpp:98)
  using 1 OpenMP thread(s) per MPI task
Loaded 1 plugins from F:\Lammps\LAMMPS 64-bit 2Aug2023\plugins

The 'box' command has been removed and will be ignored

Reading restart file ...
  restart file = 2 Aug 2023, LAMMPS = 2 Aug 2023
  restoring atom style atomic from restart
  triclinic box = (0.054225576 0.053777986 0.054428614) to (17.735774 17.736222 17.735571) with tilt (0 0 0)
  1 by 1 by 1 MPI processor grid
  pair style eam/alloy stores no restart info
  500 atoms
  read_restart CPU = 0.000 seconds
Changing box ...
  triclinic box = (0.054225576 0.053777986 0.054428614) to (17.735757 17.736222 17.735571) with tilt (0 0 0)
  triclinic box = (0.054225576 0.053777986 0.054428614) to (17.735757 17.736222 17.735571) with tilt (0 0 0)
  triclinic box = (0.054225576 0.053777986 0.054428614) to (17.735757 17.736222 17.735571) with tilt (0 0 0)
Neighbor list info ...
  update: every = 1 steps, delay = 0 steps, check = yes
  max neighbors/atom: 2000, page size: 100000
  master list distance cutoff = 6.80375
  ghost atom cutoff = 6.80375
  1 neighbor lists, perpetual/occasional/extra = 1 0 0
  (1) pair eam/alloy, perpetual
      attributes: half, newton on
      pair build: half/nsq/newton
      stencil: none
      bin: none
Setting up cg style minimization ...
  Unit style    : metal
  Current step  : 100
Per MPI rank memory allocation (min/avg/max) = 4.482 | 4.482 | 4.482 Mbytes
   Step          Temp          PotEng         Press           Pxx            Pyy            Pzz            Pxy            Pxz            Pyz             Lx             Ly             Lz           Volume    
       100   0             -2181.0057      360.31974      361.0672       360.69136      359.20067     -76.600436     -53.915314      109.75458      17.681531      17.682444      17.681143      5528.0568    
       101   0             -2181.1911      1311.5776      1312.4309      1311.7546      1310.5474     -57.885782     -49.902524      143.6542       17.681531      17.682444      17.681143      5528.0568    
       102   0             -2181.2604      1939.6404      1939.3242      1948.985       1930.612      -47.886456     -54.333729      164.52932      17.681531      17.682444      17.681143      5528.0568    
       103   0             -2181.2776      1759.0343      1759.1118      1777.0316      1740.9594     -46.411224     -65.473223      162.6542       17.681531      17.682444      17.681143      5528.0568    
       104   0             -2181.2833      1879.4115      1891.1471      1892.7764      1854.3111     -43.566235     -64.722602      159.24604      17.681531      17.682444      17.681143      5528.0568    
       105   0             -2181.2847      1926.0021      1937.8498      1938.5704      1901.5862     -42.482775     -61.756427      159.41192      17.681531      17.682444      17.681143      5528.0568    
       106   0             -2181.2853      1882.2704      1894.163       1893.3338      1859.3144     -41.094856     -58.745849      156.6035       17.681531      17.682444      17.681143      5528.0568    
       107   0             -2181.2854      1875.8522      1888.4259      1885.8828      1853.2479     -39.648776     -59.089         155.47778      17.681531      17.682444      17.681143      5528.0568    
       108   0             -2181.2855      1880.4343      1892.238       1890.9354      1858.1294     -38.764626     -60.36985       155.3327       17.681531      17.682444      17.681143      5528.0568    
       109   0             -2181.2855      1883.6644      1895.1112      1894.3765      1861.5057     -38.306506     -60.227913      155.63223      17.681531      17.682444      17.681143      5528.0568    
       110   0             -2181.2855      1884.7454      1895.9087      1895.7238      1862.6038     -38.014175     -59.867529      155.37739      17.681531      17.682444      17.681143      5528.0568    
       111   0             -2181.2855      1880.7303      1891.788       1891.8805      1858.5223     -38.369377     -60.062169      155.28135      17.681531      17.682444      17.681143      5528.0568    
       112   0             -2181.2855      1879.9625      1891.1417      1891.1389      1857.607      -38.453092     -60.284592      154.85579      17.681531      17.682444      17.681143      5528.0568    
       113   0             -2181.2855      1881.9889      1892.9751      1893.11        1859.8815     -38.180734     -60.217114      154.90598      17.681531      17.682444      17.681143      5528.0568    
       114   0             -2181.2855      1882.0983      1893.0269      1893.202       1860.0659     -38.278655     -60.144456      155.10582      17.681531      17.682444      17.681143      5528.0568    
       115   0             -2181.2856      1881.6363      1892.6518      1892.6754      1859.5818     -38.321969     -60.168135      155.27224      17.681531      17.682444      17.681143      5528.0568    
       116   0             -2181.2856      1881.2761      1892.328       1892.2627      1859.2375     -38.331253     -60.130707      155.19366      17.681531      17.682444      17.681143      5528.0568    
       117   0             -2181.2856      1881.2501      1892.2965      1892.2258      1859.228      -38.334741     -60.144804      155.13529      17.681531      17.682444      17.681143      5528.0568    
       118   0             -2181.2856      1881.4398      1892.4709      1892.4303      1859.4183     -38.333658     -60.164818      155.10899      17.681531      17.682444      17.681143      5528.0568    
       119   0             -2181.2856      1881.4143      1892.4335      1892.4058      1859.4037     -38.314762     -60.167381      155.11837      17.681531      17.682444      17.681143      5528.0568    
       120   0             -2181.2856      1881.3388      1892.3592      1892.3237      1859.3334     -38.31217      -60.164776      155.12161      17.681531      17.682444      17.681143      5528.0568    
       121   0             -2181.2856      1881.346       1892.3562      1892.3347      1859.3473     -38.306035     -60.151887      155.11876      17.681531      17.682444      17.681143      5528.0568    
       122   0             -2181.2856      1881.3747      1892.3804      1892.3754      1859.3685     -38.317551     -60.142096      155.11162      17.681531      17.682444      17.681143      5528.0568    
       123   0             -2181.2856      1881.3878      1892.3927      1892.3971      1859.3735     -38.316768     -60.141714      155.11585      17.681531      17.682444      17.681143      5528.0568    
       124   0             -2181.2856      1881.3782      1892.3848      1892.3872      1859.3627     -38.315322     -60.145188      155.12191      17.681531      17.682444      17.681143      5528.0568    
       125   0             -2181.2856      1881.3667      1892.3738      1892.3757      1859.3505     -38.314291     -60.146452      155.12178      17.681531      17.682444      17.681143      5528.0568    
       126   0             -2181.2856      1881.3688      1892.3757      1892.377       1859.3537     -38.31426      -60.14625       155.12137      17.681531      17.682444      17.681143      5528.0568    
       127   0             -2181.2856      1881.3719      1892.3785      1892.3794      1859.3578     -38.313843     -60.146732      155.12119      17.681531      17.682444      17.681143      5528.0568    
       128   0             -2181.2856      1881.3721      1892.379       1892.3797      1859.3575     -38.313849     -60.146394      155.12155      17.681531      17.682444      17.681143      5528.0568    
       129   0             -2181.2856      1881.3708      1892.378       1892.3786      1859.3559     -38.31444      -60.146126      155.12133      17.681531      17.682444      17.681143      5528.0568    
       130   0             -2181.2856      1881.3704      1892.378       1892.378       1859.3552     -38.314468     -60.146367      155.1212       17.681531      17.682444      17.681143      5528.0568    
       131   0             -2181.2856      1881.3707      1892.3784      1892.3784      1859.3554     -38.314408     -60.146326      155.12136      17.681531      17.682444      17.681143      5528.0568    
       132   0             -2181.2856      1881.371       1892.3786      1892.3788      1859.3556     -38.314431     -60.146284      155.12151      17.681531      17.682444      17.681143      5528.0568    
       133   0             -2181.2856      1881.3708      1892.3783      1892.3788      1859.3552     -38.314444     -60.146367      155.1214       17.681531      17.682444      17.681143      5528.0568    
       134   0             -2181.2856      1881.3705      1892.3781      1892.3786      1859.3549     -38.314336     -60.146348      155.12137      17.681531      17.682444      17.681143      5528.0568    
       135   0             -2181.2856      1881.3706      1892.3782      1892.3786      1859.355      -38.314278     -60.146244      155.12145      17.681531      17.682444      17.681143      5528.0568    
       136   0             -2181.2856      1881.3706      1892.3782      1892.3786      1859.355      -38.314316     -60.146243      155.12146      17.681531      17.682444      17.681143      5528.0568    
       137   0             -2181.2856      1881.3706      1892.3782      1892.3786      1859.355      -38.314339     -60.146265      155.12145      17.681531      17.682444      17.681143      5528.0568    
       138   0             -2181.2856      1881.3706      1892.3782      1892.3786      1859.355      -38.314349     -60.146274      155.12144      17.681531      17.682444      17.681143      5528.0568    
       139   0             -2181.2856      1881.3706      1892.3781      1892.3786      1859.355      -38.314344     -60.146265      155.12144      17.681531      17.682444      17.681143      5528.0568    
       140   0             -2181.2856      1881.3706      1892.3782      1892.3786      1859.355      -38.314343     -60.146264      155.12144      17.681531      17.682444      17.681143      5528.0568    
       141   0             -2181.2856      1881.3706      1892.3782      1892.3786      1859.355      -38.314345     -60.146268      155.12145      17.681531      17.682444      17.681143      5528.0568    
       142   0             -2181.2856      1881.3706      1892.3782      1892.3786      1859.355      -38.314347     -60.146267      155.12144      17.681531      17.682444      17.681143      5528.0568    
       143   0             -2181.2856      1881.3706      1892.3782      1892.3786      1859.355      -38.314347     -60.146266      155.12144      17.681531      17.682444      17.681143      5528.0568    
       144   0             -2181.2856      1881.3706      1892.3782      1892.3786      1859.355      -38.314347     -60.146266      155.12144      17.681531      17.682444      17.681143      5528.0568    
       145   0             -2181.2856      1881.3706      1892.3782      1892.3786      1859.355      -38.314346     -60.146267      155.12144      17.681531      17.682444      17.681143      5528.0568    
       146   0             -2181.2856      1881.3706      1892.3782      1892.3786      1859.355      -38.314346     -60.146267      155.12144      17.681531      17.682444      17.681143      5528.0568    
       147   0             -2181.2856      1881.3706      1892.3782      1892.3786      1859.355      -38.314346     -60.146267      155.12144      17.681531      17.682444      17.681143      5528.0568    
       148   0             -2181.2856      1881.3706      1892.3782      1892.3786      1859.355      -38.314346     -60.146267      155.12144      17.681531      17.682444      17.681143      5528.0568    
       149   0             -2181.2856      1881.3706      1892.3782      1892.3786      1859.355      -38.314346     -60.146267      155.12144      17.681531      17.682444      17.681143      5528.0568    
       150   0             -2181.2856      1881.3706      1892.3782      1892.3786      1859.355      -38.314346     -60.146267      155.12144      17.681531      17.682444      17.681143      5528.0568    
       151   0             -2181.2856      1881.3706      1892.3782      1892.3786      1859.355      -38.314346     -60.146267      155.12144      17.681531      17.682444      17.681143      5528.0568    
       152   0             -2181.2856      1881.3706      1892.3782      1892.3786      1859.355      -38.314346     -60.146267      155.12144      17.681531      17.682444      17.681143      5528.0568    
       153   0             -2181.2856      1881.3706      1892.3782      1892.3786      1859.355      -38.314346     -60.146267      155.12144      17.681531      17.682444      17.681143      5528.0568    
       154   0             -2181.2856      1881.3706      1892.3782      1892.3786      1859.355      -38.314346     -60.146267      155.12144      17.681531      17.682444      17.681143      5528.0568    
       155   0             -2181.2856      1881.3706      1892.3782      1892.3786      1859.355      -38.314346     -60.146267      155.12144      17.681531      17.682444      17.681143      5528.0568    
       156   0             -2181.2856      1881.3706      1892.3782      1892.3786      1859.355      -38.314346     -60.146267      155.12144      17.681531      17.682444      17.681143      5528.0568    
       157   0             -2181.2856      1881.3706      1892.3782      1892.3786      1859.355      -38.314346     -60.146267      155.12144      17.681531      17.682444      17.681143      5528.0568    
       158   0             -2181.2856      1881.3706      1892.3782      1892.3786      1859.355      -38.314346     -60.146267      155.12144      17.681531      17.682444      17.681143      5528.0568    
       159   0             -2181.2856      1881.3706      1892.3782      1892.3786      1859.355      -38.314346     -60.146267      155.12144      17.681531      17.682444      17.681143      5528.0568    
Loop time of 0.137478 on 1 procs for 59 steps with 500 atoms

102.3% CPU use with 1 MPI tasks x 1 OpenMP threads

Minimization stats:
  Stopping criterion = force tolerance
  Energy initial, next-to-last, final = 
     -2181.00565017928  -2181.28555053583  -2181.28555053583
  Force two-norm initial, final = 2.2060556 8.6742915e-11
  Force max component initial, final = 0.18511584 8.1010684e-12
  Final line search alpha, max atom move = 1 8.1010684e-12
  Iterations, force evaluations = 59 116

MPI task timing breakdown:
Section |  min time  |  avg time  |  max time  |%varavg| %total
---------------------------------------------------------------
Pair    | 0.13489    | 0.13489    | 0.13489    |   0.0 | 98.11
Neigh   | 0          | 0          | 0          |   0.0 |  0.00
Comm    | 0.000703   | 0.000703   | 0.000703   |   0.0 |  0.51
Output  | 0.000955   | 0.000955   | 0.000955   |   0.0 |  0.69
Modify  | 0          | 0          | 0          |   0.0 |  0.00
Other   |            | 0.000935   |            |       |  0.68

Nlocal:            500 ave         500 max         500 min
Histogram: 1 0 0 0 0 0 0 0 0 0
Nghost:           1956 ave        1956 max        1956 min
Histogram: 1 0 0 0 0 0 0 0 0 0
Neighs:          33500 ave       33500 max       33500 min
Histogram: 1 0 0 0 0 0 0 0 0 0

Total # of neighbors = 33500
Ave neighs/atom = 67
Neighbor list builds = 0
Dangerous builds = 0
OMP_NUM_THREADS environment is not set. Defaulting to 1 thread. (src/comm.cpp:98)
  using 1 OpenMP thread(s) per MPI task
Loaded 1 plugins from F:\Lammps\LAMMPS 64-bit 2Aug2023\plugins

The 'box' command has been removed and will be ignored

Reading restart file ...
  restart file = 2 Aug 2023, LAMMPS = 2 Aug 2023
  restoring atom style atomic from restart
  triclinic box = (0.054225576 0.053777986 0.054428614) to (17.735774 17.736222 17.735571) with tilt (0 0 0)
  1 by 1 by 1 MPI processor grid
  pair style eam/alloy stores no restart info
  500 atoms
  read_restart CPU = 0.000 seconds
Changing box ...
  triclinic box = (0.054225576 0.053777986 0.054428614) to (17.735792 17.736222 17.735571) with tilt (0 0 0)
  triclinic box = (0.054225576 0.053777986 0.054428614) to (17.735792 17.736222 17.735571) with tilt (0 0 0)
  triclinic box = (0.054225576 0.053777986 0.054428614) to (17.735792 17.736222 17.735571) with tilt (0 0 0)
Neighbor list info ...
  update: every = 1 steps, delay = 0 steps, check = yes
  max neighbors/atom: 2000, page size: 100000
  master list distance cutoff = 6.80375
  ghost atom cutoff = 6.80375
  1 neighbor lists, perpetual/occasional/extra = 1 0 0
  (1) pair eam/alloy, perpetual
      attributes: half, newton on
      pair build: half/nsq/newton
      stencil: none
      bin: none
Setting up cg style minimization ...
  Unit style    : metal
  Current step  : 100
Per MPI rank memory allocation (min/avg/max) = 4.482 | 4.482 | 4.482 Mbytes
   Step          Temp          PotEng         Press           Pxx            Pyy            Pzz            Pxy            Pxz            Pyz             Lx             Ly             Lz           Volume    
       100   0             -2181.0057      356.57151      356.09595      357.55449      356.06409     -76.602144     -53.915184      109.75294      17.681567      17.682444      17.681143      5528.0678    
       101   0             -2181.1911      1307.8468      1307.4785      1308.6339      1307.4278     -57.886825     -49.905145      143.65365      17.681567      17.682444      17.681143      5528.0678    
       102   0             -2181.2604      1935.9377      1934.396       1945.8945      1927.5226     -47.884891     -54.336481      164.52981      17.681567      17.682444      17.681143      5528.0678    
       103   0             -2181.2776      1755.3336      1754.1893      1773.9425      1737.8691     -46.4116       -65.474443      162.65503      17.681567      17.682444      17.681143      5528.0678    
       104   0             -2181.2833      1875.738       1886.2505      1889.7151      1851.2484     -43.564676     -64.723124      159.24734      17.681567      17.682444      17.681143      5528.0678    
       105   0             -2181.2847      1922.3049      1932.9286      1935.4855      1898.5005     -42.481665     -61.757086      159.41251      17.681567      17.682444      17.681143      5528.0678    
       106   0             -2181.2853      1878.5699      1889.2399      1890.2453      1856.2244     -41.093961     -58.746602      156.60418      17.681567      17.682444      17.681143      5528.0678    
       107   0             -2181.2854      1872.1555      1883.5065      1882.7982      1850.1618     -39.647667     -59.089603      155.47854      17.681567      17.682444      17.681143      5528.0678    
       108   0             -2181.2855      1876.7378      1887.3187      1887.8512      1855.0436     -38.76355      -60.370469      155.33352      17.681567      17.682444      17.681143      5528.0678    
       109   0             -2181.2855      1879.9688      1890.193       1891.2929      1858.4205     -38.305476     -60.228391      155.63301      17.681567      17.682444      17.681143      5528.0678    
       110   0             -2181.2855      1881.0488      1890.9896      1892.6392      1859.5176     -38.013191     -59.868103      155.37814      17.681567      17.682444      17.681143      5528.0678    
       111   0             -2181.2856      1877.0328      1886.8683      1888.795       1855.4352     -38.368347     -60.062863      155.28208      17.681567      17.682444      17.681143      5528.0678    
       112   0             -2181.2856      1876.2666      1886.2237      1888.0549      1854.5214     -38.452007     -60.285202      154.85657      17.681567      17.682444      17.681143      5528.0678    
       113   0             -2181.2856      1878.2929      1888.0569      1890.0258      1856.7958     -38.179685     -60.217729      154.90678      17.681567      17.682444      17.681143      5528.0678    
       114   0             -2181.2856      1878.402       1888.1085      1890.1175      1856.9799     -38.277605     -60.145052      155.10661      17.681567      17.682444      17.681143      5528.0678    
       115   0             -2181.2856      1877.94        1887.7333      1889.5909      1856.4957     -38.320908     -60.168735      155.273        17.681567      17.682444      17.681143      5528.0678    
       116   0             -2181.2856      1877.5797      1887.4095      1889.1782      1856.1515     -38.330196     -60.131332      155.19441      17.681567      17.682444      17.681143      5528.0678    
       117   0             -2181.2856      1877.5538      1887.3781      1889.1413      1856.1421     -38.33369      -60.145418      155.13606      17.681567      17.682444      17.681143      5528.0678    
       118   0             -2181.2856      1877.7436      1887.5525      1889.3458      1856.3324     -38.332599     -60.165427      155.10977      17.681567      17.682444      17.681143      5528.0678    
       119   0             -2181.2856      1877.718       1887.5151      1889.3213      1856.3176     -38.313708     -60.167998      155.11914      17.681567      17.682444      17.681143      5528.0678    
       120   0             -2181.2856      1877.6425      1887.4408      1889.2392      1856.2474     -38.311112     -60.165393      155.12237      17.681567      17.682444      17.681143      5528.0678    
       121   0             -2181.2856      1877.6497      1887.4378      1889.2502      1856.2613     -38.304974     -60.152504      155.11952      17.681567      17.682444      17.681143      5528.0678    
       122   0             -2181.2856      1877.6785      1887.462       1889.2909      1856.2825     -38.316492     -60.142714      155.11239      17.681567      17.682444      17.681143      5528.0678    
       123   0             -2181.2856      1877.6915      1887.4742      1889.3126      1856.2876     -38.315708     -60.142331      155.11661      17.681567      17.682444      17.681143      5528.0678    
       124   0             -2181.2856      1877.6819      1887.4664      1889.3027      1856.2767     -38.314263     -60.145806      155.12268      17.681567      17.682444      17.681143      5528.0678    
       125   0             -2181.2856      1877.6704      1887.4554      1889.2912      1856.2645     -38.313232     -60.147069      155.12254      17.681567      17.682444      17.681143      5528.0678    
       126   0             -2181.2856      1877.6725      1887.4573      1889.2925      1856.2677     -38.313201     -60.146867      155.12214      17.681567      17.682444      17.681143      5528.0678    
       127   0             -2181.2856      1877.6756      1887.4601      1889.2949      1856.2718     -38.312785     -60.147349      155.12196      17.681567      17.682444      17.681143      5528.0678    
       128   0             -2181.2856      1877.6758      1887.4606      1889.2952      1856.2715     -38.31279      -60.147011      155.12232      17.681567      17.682444      17.681143      5528.0678    
       129   0             -2181.2856      1877.6745      1887.4596      1889.2941      1856.27       -38.313381     -60.146743      155.1221       17.681567      17.682444      17.681143      5528.0678    
       130   0             -2181.2856      1877.6741      1887.4596      1889.2935      1856.2692     -38.313409     -60.146984      155.12197      17.681567      17.682444      17.681143      5528.0678    
       131   0             -2181.2856      1877.6744      1887.46        1889.2939      1856.2694     -38.313349     -60.146943      155.12213      17.681567      17.682444      17.681143      5528.0678    
       132   0             -2181.2856      1877.6747      1887.4602      1889.2943      1856.2696     -38.313372     -60.146901      155.12227      17.681567      17.682444      17.681143      5528.0678    
       133   0             -2181.2856      1877.6745      1887.4599      1889.2943      1856.2692     -38.313385     -60.146984      155.12217      17.681567      17.682444      17.681143      5528.0678    
       134   0             -2181.2856      1877.6742      1887.4596      1889.2941      1856.2689     -38.313277     -60.146965      155.12214      17.681567      17.682444      17.681143      5528.0678    
       135   0             -2181.2856      1877.6743      1887.4598      1889.2941      1856.269      -38.313219     -60.146861      155.12222      17.681567      17.682444      17.681143      5528.0678    
       136   0             -2181.2856      1877.6743      1887.4598      1889.2941      1856.269      -38.313258     -60.14686       155.12223      17.681567      17.682444      17.681143      5528.0678    
       137   0             -2181.2856      1877.6743      1887.4598      1889.2941      1856.2691     -38.31328      -60.146882      155.12221      17.681567      17.682444      17.681143      5528.0678    
       138   0             -2181.2856      1877.6743      1887.4597      1889.2941      1856.269      -38.313291     -60.146891      155.1222       17.681567      17.682444      17.681143      5528.0678    
       139   0             -2181.2856      1877.6743      1887.4597      1889.2941      1856.269      -38.313285     -60.146881      155.12221      17.681567      17.682444      17.681143      5528.0678    
       140   0             -2181.2856      1877.6743      1887.4597      1889.2941      1856.269      -38.313284     -60.146881      155.12221      17.681567      17.682444      17.681143      5528.0678    
       141   0             -2181.2856      1877.6743      1887.4597      1889.2941      1856.269      -38.313286     -60.146885      155.12221      17.681567      17.682444      17.681143      5528.0678    
       142   0             -2181.2856      1877.6743      1887.4597      1889.2941      1856.269      -38.313288     -60.146884      155.12221      17.681567      17.682444      17.681143      5528.0678    
       143   0             -2181.2856      1877.6743      1887.4597      1889.2941      1856.269      -38.313289     -60.146883      155.12221      17.681567      17.682444      17.681143      5528.0678    
       144   0             -2181.2856      1877.6743      1887.4597      1889.2941      1856.269      -38.313288     -60.146883      155.12221      17.681567      17.682444      17.681143      5528.0678    
       145   0             -2181.2856      1877.6743      1887.4597      1889.2941      1856.269      -38.313288     -60.146884      155.12221      17.681567      17.682444      17.681143      5528.0678    
       146   0             -2181.2856      1877.6743      1887.4597      1889.2941      1856.269      -38.313288     -60.146884      155.12221      17.681567      17.682444      17.681143      5528.0678    
       147   0             -2181.2856      1877.6743      1887.4597      1889.2941      1856.269      -38.313287     -60.146884      155.12221      17.681567      17.682444      17.681143      5528.0678    
       148   0             -2181.2856      1877.6743      1887.4597      1889.2941      1856.269      -38.313287     -60.146884      155.12221      17.681567      17.682444      17.681143      5528.0678    
       149   0             -2181.2856      1877.6743      1887.4597      1889.2941      1856.269      -38.313287     -60.146884      155.12221      17.681567      17.682444      17.681143      5528.0678    
       150   0             -2181.2856      1877.6743      1887.4597      1889.2941      1856.269      -38.313287     -60.146884      155.12221      17.681567      17.682444      17.681143      5528.0678    
       151   0             -2181.2856      1877.6743      1887.4597      1889.2941      1856.269      -38.313287     -60.146884      155.12221      17.681567      17.682444      17.681143      5528.0678    
       152   0             -2181.2856      1877.6743      1887.4597      1889.2941      1856.269      -38.313287     -60.146884      155.12221      17.681567      17.682444      17.681143      5528.0678    
       153   0             -2181.2856      1877.6743      1887.4597      1889.2941      1856.269      -38.313287     -60.146884      155.12221      17.681567      17.682444      17.681143      5528.0678    
       154   0             -2181.2856      1877.6743      1887.4597      1889.2941      1856.269      -38.313287     -60.146884      155.12221      17.681567      17.682444      17.681143      5528.0678    
       155   0             -2181.2856      1877.6743      1887.4597      1889.2941      1856.269      -38.313287     -60.146884      155.12221      17.681567      17.682444      17.681143      5528.0678    
       156   0             -2181.2856      1877.6743      1887.4597      1889.2941      1856.269      -38.313287     -60.146884      155.12221      17.681567      17.682444      17.681143      5528.0678    
       157   0             -2181.2856      1877.6743      1887.4597      1889.2941      1856.269      -38.313287     -60.146884      155.12221      17.681567      17.682444      17.681143      5528.0678    
       158   0             -2181.2856      1877.6743      1887.4597      1889.2941      1856.269      -38.313287     -60.146884      155.12221      17.681567      17.682444      17.681143      5528.0678    
       159   0             -2181.2856      1877.6743      1887.4597      1889.2941      1856.269      -38.313287     -60.146884      155.12221      17.681567      17.682444      17.681143      5528.0678    
Loop time of 0.13987 on 1 procs for 59 steps with 500 atoms

89.4% CPU use with 1 MPI tasks x 1 OpenMP threads

Minimization stats:
  Stopping criterion = force tolerance
  Energy initial, next-to-last, final = 
     -2181.00565265373  -2181.28556357759  -2181.28556357759
  Force two-norm initial, final = 2.2061065 8.6752627e-11
  Force max component initial, final = 0.1851199 8.1184642e-12
  Final line search alpha, max atom move = 1 8.1184642e-12
  Iterations, force evaluations = 59 116

MPI task timing breakdown:
Section |  min time  |  avg time  |  max time  |%varavg| %total
---------------------------------------------------------------
Pair    | 0.13734    | 0.13734    | 0.13734    |   0.0 | 98.19
Neigh   | 0          | 0          | 0          |   0.0 |  0.00
Comm    | 0.000674   | 0.000674   | 0.000674   |   0.0 |  0.48
Output  | 0.000891   | 0.000891   | 0.000891   |   0.0 |  0.64
Modify  | 0          | 0          | 0          |   0.0 |  0.00
Other   |            | 0.000961   |            |       |  0.69

Nlocal:            500 ave         500 max         500 min
Histogram: 1 0 0 0 0 0 0 0 0 0
Nghost:           1956 ave        1956 max        1956 min
Histogram: 1 0 0 0 0 0 0 0 0 0
Neighs:          33500 ave       33500 max       33500 min
Histogram: 1 0 0 0 0 0 0 0 0 0

Total # of neighbors = 33500
Ave neighs/atom = 67
Neighbor list builds = 0
Dangerous builds = 0
OMP_NUM_THREADS environment is not set. Defaulting to 1 thread. (src/comm.cpp:98)
  using 1 OpenMP thread(s) per MPI task
Loaded 1 plugins from F:\Lammps\LAMMPS 64-bit 2Aug2023\plugins

The 'box' command has been removed and will be ignored

Reading restart file ...
  restart file = 2 Aug 2023, LAMMPS = 2 Aug 2023
  restoring atom style atomic from restart
  triclinic box = (0.054225576 0.053777986 0.054428614) to (17.735774 17.736222 17.735571) with tilt (0 0 0)
  1 by 1 by 1 MPI processor grid
  pair style eam/alloy stores no restart info
  500 atoms
  read_restart CPU = 0.000 seconds
Changing box ...
  triclinic box = (0.054225576 0.053777986 0.054428614) to (17.735774 17.736204 17.735571) with tilt (0 0 0)
  triclinic box = (0.054225576 0.053777986 0.054428614) to (17.735774 17.736204 17.735571) with tilt (0 0 0)
Neighbor list info ...
  update: every = 1 steps, delay = 0 steps, check = yes
  max neighbors/atom: 2000, page size: 100000
  master list distance cutoff = 6.80375
  ghost atom cutoff = 6.80375
  1 neighbor lists, perpetual/occasional/extra = 1 0 0
  (1) pair eam/alloy, perpetual
      attributes: half, newton on
      pair build: half/nsq/newton
      stencil: none
      bin: none
Setting up cg style minimization ...
  Unit style    : metal
  Current step  : 100
Per MPI rank memory allocation (min/avg/max) = 4.482 | 4.482 | 4.482 Mbytes
   Step          Temp          PotEng         Press           Pxx            Pyy            Pzz            Pxy            Pxz            Pyz             Lx             Ly             Lz           Volume    
       100   0             -2181.0057      360.31949      360.15001      361.60953      359.19894     -76.600299     -53.914993      109.75386      17.681549      17.682426      17.681143      5528.0568    
       101   0             -2181.1911      1311.5854      1311.5249      1312.677       1310.5544     -57.885765     -49.902574      143.65402      17.681549      17.682426      17.681143      5528.0568    
       102   0             -2181.2604      1939.6447      1938.4126      1949.9064      1930.6151     -47.886666     -54.334032      164.5287       17.681549      17.682426      17.681143      5528.0568    
       103   0             -2181.2776      1759.0314      1758.1961      1777.9431      1740.955      -46.411362     -65.471741      162.6536       17.681549      17.682426      17.681143      5528.0568    
       104   0             -2181.2833      1879.3982      1890.2191      1893.6797      1854.2959     -43.567106     -64.721209      159.24507      17.681549      17.682426      17.681143      5528.0568    
       105   0             -2181.2847      1925.9989      1936.9316      1939.4841      1901.5811     -42.483307     -61.754914      159.41135      17.681549      17.682426      17.681143      5528.0568    
       106   0             -2181.2853      1882.2693      1893.2472      1894.2491      1859.3115     -41.095351     -58.744322      156.60311      17.681549      17.682426      17.681143      5528.0568    
       107   0             -2181.2854      1875.8497      1887.5087      1886.7968      1853.2436     -39.649387     -59.087469      155.47732      17.681549      17.682426      17.681143      5528.0568    
       108   0             -2181.2855      1880.4312      1891.3204      1891.8486      1858.1244     -38.765287     -60.368232      155.33216      17.681549      17.682426      17.681143      5528.0568    
       109   0             -2181.2855      1883.661       1894.1933      1895.2893      1861.5003     -38.307157     -60.226402      155.6317       17.681549      17.682426      17.681143      5528.0568    
       110   0             -2181.2855      1884.7426      1894.9915      1896.6372      1862.5991     -38.014861     -59.866025      155.37688      17.681549      17.682426      17.681143      5528.0568    
       111   0             -2181.2855      1880.7279      1890.8714      1892.7942      1858.518      -38.370056     -60.060616      155.28086      17.681549      17.682426      17.681143      5528.0568    
       112   0             -2181.2855      1879.9596      1890.2245      1892.052       1857.6021     -38.453783     -60.283039      154.8553       17.681549      17.682426      17.681143      5528.0568    
       113   0             -2181.2855      1881.9859      1892.058       1894.023       1859.8766     -38.181424     -60.215573      154.90546      17.681549      17.682426      17.681143      5528.0568    
       114   0             -2181.2855      1882.0955      1892.11        1894.1152      1860.0612     -38.279334     -60.142923      155.10532      17.681549      17.682426      17.681143      5528.0568    
       115   0             -2181.2856      1881.6336      1891.7349      1893.5887      1859.5771     -38.322659     -60.166604      155.27175      17.681549      17.682426      17.681143      5528.0568    
       116   0             -2181.2856      1881.2733      1891.411       1893.176       1859.2329     -38.331946     -60.129164      155.19316      17.681549      17.682426      17.681143      5528.0568    
       117   0             -2181.2856      1881.2473      1891.3795      1893.139       1859.2233     -38.335427     -60.143266      155.13479      17.681549      17.682426      17.681143      5528.0568    
       118   0             -2181.2856      1881.437       1891.5539      1893.3435      1859.4136     -38.334345     -60.163282      155.10849      17.681549      17.682426      17.681143      5528.0568    
       119   0             -2181.2856      1881.4115      1891.5166      1893.319       1859.399      -38.315448     -60.165843      155.11787      17.681549      17.682426      17.681143      5528.0568    
       120   0             -2181.2856      1881.336       1891.4423      1893.2369      1859.3287     -38.312857     -60.163239      155.12111      17.681549      17.682426      17.681143      5528.0568    
       121   0             -2181.2856      1881.3432      1891.4392      1893.2479      1859.3426     -38.306722     -60.150349      155.11826      17.681549      17.682426      17.681143      5528.0568    
       122   0             -2181.2856      1881.3719      1891.4634      1893.2886      1859.3638     -38.318237     -60.14056       155.11112      17.681549      17.682426      17.681143      5528.0568    
       123   0             -2181.2856      1881.385       1891.4757      1893.3103      1859.3689     -38.317454     -60.140178      155.11535      17.681549      17.682426      17.681143      5528.0568    
       124   0             -2181.2856      1881.3754      1891.4679      1893.3004      1859.358      -38.316009     -60.143651      155.12141      17.681549      17.682426      17.681143      5528.0568    
       125   0             -2181.2856      1881.3639      1891.4569      1893.2889      1859.3458     -38.314977     -60.144915      155.12128      17.681549      17.682426      17.681143      5528.0568    
       126   0             -2181.2856      1881.366       1891.4587      1893.2902      1859.349      -38.314946     -60.144713      155.12088      17.681549      17.682426      17.681143      5528.0568    
       127   0             -2181.2856      1881.3691      1891.4615      1893.2926      1859.3531     -38.31453      -60.145195      155.12069      17.681549      17.682426      17.681143      5528.0568    
       128   0             -2181.2856      1881.3693      1891.4621      1893.2929      1859.3528     -38.314535     -60.144857      155.12105      17.681549      17.682426      17.681143      5528.0568    
       129   0             -2181.2856      1881.368       1891.461       1893.2918      1859.3513     -38.315126     -60.144589      155.12084      17.681549      17.682426      17.681143      5528.0568    
       130   0             -2181.2856      1881.3676      1891.461       1893.2912      1859.3505     -38.315154     -60.14483       155.1207       17.681549      17.682426      17.681143      5528.0568    
       131   0             -2181.2856      1881.3679      1891.4614      1893.2916      1859.3507     -38.315095     -60.144789      155.12086      17.681549      17.682426      17.681143      5528.0568    
       132   0             -2181.2856      1881.3682      1891.4616      1893.292       1859.3509     -38.315117     -60.144747      155.12101      17.681549      17.682426      17.681143      5528.0568    
       133   0             -2181.2856      1881.368       1891.4614      1893.2921      1859.3505     -38.315131     -60.14483       155.12091      17.681549      17.682426      17.681143      5528.0568    
       134   0             -2181.2856      1881.3677      1891.4611      1893.2918      1859.3502     -38.315022     -60.144811      155.12087      17.681549      17.682426      17.681143      5528.0568    
       135   0             -2181.2856      1881.3678      1891.4612      1893.2918      1859.3503     -38.314964     -60.144707      155.12095      17.681549      17.682426      17.681143      5528.0568    
       136   0             -2181.2856      1881.3678      1891.4612      1893.2918      1859.3503     -38.315003     -60.144706      155.12096      17.681549      17.682426      17.681143      5528.0568    
       137   0             -2181.2856      1881.3678      1891.4612      1893.2918      1859.3504     -38.315026     -60.144728      155.12095      17.681549      17.682426      17.681143      5528.0568    
       138   0             -2181.2856      1881.3678      1891.4612      1893.2918      1859.3503     -38.315036     -60.144737      155.12094      17.681549      17.682426      17.681143      5528.0568    
       139   0             -2181.2856      1881.3678      1891.4612      1893.2918      1859.3503     -38.315031     -60.144728      155.12094      17.681549      17.682426      17.681143      5528.0568    
       140   0             -2181.2856      1881.3678      1891.4612      1893.2918      1859.3503     -38.31503      -60.144727      155.12095      17.681549      17.682426      17.681143      5528.0568    
       141   0             -2181.2856      1881.3678      1891.4612      1893.2918      1859.3503     -38.315032     -60.144731      155.12095      17.681549      17.682426      17.681143      5528.0568    
       142   0             -2181.2856      1881.3678      1891.4612      1893.2918      1859.3503     -38.315034     -60.14473       155.12094      17.681549      17.682426      17.681143      5528.0568    
       143   0             -2181.2856      1881.3678      1891.4612      1893.2918      1859.3503     -38.315034     -60.144729      155.12094      17.681549      17.682426      17.681143      5528.0568    
       144   0             -2181.2856      1881.3678      1891.4612      1893.2918      1859.3503     -38.315033     -60.144729      155.12095      17.681549      17.682426      17.681143      5528.0568    
       145   0             -2181.2856      1881.3678      1891.4612      1893.2918      1859.3503     -38.315033     -60.14473       155.12095      17.681549      17.682426      17.681143      5528.0568    
       146   0             -2181.2856      1881.3678      1891.4612      1893.2918      1859.3503     -38.315033     -60.14473       155.12095      17.681549      17.682426      17.681143      5528.0568    
       147   0             -2181.2856      1881.3678      1891.4612      1893.2918      1859.3503     -38.315033     -60.14473       155.12095      17.681549      17.682426      17.681143      5528.0568    
       148   0             -2181.2856      1881.3678      1891.4612      1893.2918      1859.3503     -38.315032     -60.14473       155.12094      17.681549      17.682426      17.681143      5528.0568    
       149   0             -2181.2856      1881.3678      1891.4612      1893.2918      1859.3503     -38.315032     -60.14473       155.12095      17.681549      17.682426      17.681143      5528.0568    
       150   0             -2181.2856      1881.3678      1891.4612      1893.2918      1859.3503     -38.315032     -60.14473       155.12095      17.681549      17.682426      17.681143      5528.0568    
       151   0             -2181.2856      1881.3678      1891.4612      1893.2918      1859.3503     -38.315032     -60.14473       155.12095      17.681549      17.682426      17.681143      5528.0568    
       152   0             -2181.2856      1881.3678      1891.4612      1893.2918      1859.3503     -38.315032     -60.14473       155.12095      17.681549      17.682426      17.681143      5528.0568    
       153   0             -2181.2856      1881.3678      1891.4612      1893.2918      1859.3503     -38.315032     -60.14473       155.12095      17.681549      17.682426      17.681143      5528.0568    
       154   0             -2181.2856      1881.3678      1891.4612      1893.2918      1859.3503     -38.315033     -60.14473       155.12095      17.681549      17.682426      17.681143      5528.0568    
       155   0             -2181.2856      1881.3678      1891.4612      1893.2918      1859.3503     -38.315033     -60.14473       155.12095      17.681549      17.682426      17.681143      5528.0568    
       156   0             -2181.2856      1881.3678      1891.4612      1893.2918      1859.3503     -38.315033     -60.14473       155.12095      17.681549      17.682426      17.681143      5528.0568    
       157   0             -2181.2856      1881.3678      1891.4612      1893.2918      1859.3503     -38.315032     -60.14473       155.12095      17.681549      17.682426      17.681143      5528.0568    
       158   0             -2181.2856      1881.3678      1891.4612      1893.2918      1859.3503     -38.315032     -60.14473       155.12095      17.681549      17.682426      17.681143      5528.0568    
       159   0             -2181.2856      1881.3678      1891.4612      1893.2918      1859.3503     -38.315032     -60.14473       155.12095      17.681549      17.682426      17.681143      5528.0568    
Loop time of 0.140261 on 1 procs for 59 steps with 500 atoms

100.3% CPU use with 1 MPI tasks x 1 OpenMP threads

Minimization stats:
  Stopping criterion = force tolerance
  Energy initial, next-to-last, final = 
     -2181.00565017742   -2181.2855505327  -2181.28555053269
  Force two-norm initial, final = 2.2060555 8.6736555e-11
  Force max component initial, final = 0.18511406 8.1112929e-12
  Final line search alpha, max atom move = 1 8.1112929e-12
  Iterations, force evaluations = 59 116

MPI task timing breakdown:
Section |  min time  |  avg time  |  max time  |%varavg| %total
---------------------------------------------------------------
Pair    | 0.13749    | 0.13749    | 0.13749    |   0.0 | 98.02
Neigh   | 0          | 0          | 0          |   0.0 |  0.00
Comm    | 0.000697   | 0.000697   | 0.000697   |   0.0 |  0.50
Output  | 0.001016   | 0.001016   | 0.001016   |   0.0 |  0.72
Modify  | 0          | 0          | 0          |   0.0 |  0.00
Other   |            | 0.00106    |            |       |  0.76

Nlocal:            500 ave         500 max         500 min
Histogram: 1 0 0 0 0 0 0 0 0 0
Nghost:           1956 ave        1956 max        1956 min
Histogram: 1 0 0 0 0 0 0 0 0 0
Neighs:          33500 ave       33500 max       33500 min
Histogram: 1 0 0 0 0 0 0 0 0 0

Total # of neighbors = 33500
Ave neighs/atom = 67
Neighbor list builds = 0
Dangerous builds = 0
OMP_NUM_THREADS environment is not set. Defaulting to 1 thread. (src/comm.cpp:98)
  using 1 OpenMP thread(s) per MPI task
Loaded 1 plugins from F:\Lammps\LAMMPS 64-bit 2Aug2023\plugins

The 'box' command has been removed and will be ignored

Reading restart file ...
  restart file = 2 Aug 2023, LAMMPS = 2 Aug 2023
  restoring atom style atomic from restart
  triclinic box = (0.054225576 0.053777986 0.054428614) to (17.735774 17.736222 17.735571) with tilt (0 0 0)
  1 by 1 by 1 MPI processor grid
  pair style eam/alloy stores no restart info
  500 atoms
  read_restart CPU = 0.000 seconds
Changing box ...
  triclinic box = (0.054225576 0.053777986 0.054428614) to (17.735774 17.73624 17.735571) with tilt (0 0 0)
  triclinic box = (0.054225576 0.053777986 0.054428614) to (17.735774 17.73624 17.735571) with tilt (0 0 0)
Neighbor list info ...
  update: every = 1 steps, delay = 0 steps, check = yes
  max neighbors/atom: 2000, page size: 100000
  master list distance cutoff = 6.80375
  ghost atom cutoff = 6.80375
  1 neighbor lists, perpetual/occasional/extra = 1 0 0
  (1) pair eam/alloy, perpetual
      attributes: half, newton on
      pair build: half/nsq/newton
      stencil: none
      bin: none
Setting up cg style minimization ...
  Unit style    : metal
  Current step  : 100
Per MPI rank memory allocation (min/avg/max) = 4.482 | 4.482 | 4.482 Mbytes
   Step          Temp          PotEng         Press           Pxx            Pyy            Pzz            Pxy            Pxz            Pyz             Lx             Ly             Lz           Volume    
       100   0             -2181.0057      356.57176      357.01315      356.63632      356.06582     -76.60228      -53.915505      109.75366      17.681549      17.682462      17.681143      5528.0678    
       101   0             -2181.1911      1307.839       1308.3845      1307.7115      1307.4209     -57.886842     -49.905095      143.65383      17.681549      17.682462      17.681143      5528.0678    
       102   0             -2181.2604      1935.9334      1935.3076      1944.9731      1927.5195     -47.884681     -54.336178      164.53043      17.681549      17.682462      17.681143      5528.0678    
       103   0             -2181.2776      1755.3365      1755.105       1773.031       1737.8735     -46.411462     -65.475925      162.65563      17.681549      17.682462      17.681143      5528.0678    
       104   0             -2181.2833      1875.7513      1887.1784      1888.8119      1851.2636     -43.563804     -64.724517      159.24831      17.681549      17.682462      17.681143      5528.0678    
       105   0             -2181.2847      1922.308       1933.8468      1934.5718      1898.5056     -42.481133     -61.7586        159.41307      17.681549      17.682462      17.681143      5528.0678    
       106   0             -2181.2853      1878.571       1890.1557      1889.33        1856.2273     -41.093466     -58.748129      156.60457      17.681549      17.682462      17.681143      5528.0678    
       107   0             -2181.2854      1872.158       1884.4236      1881.8842      1850.1661     -39.647056     -59.091134      155.479        17.681549      17.682462      17.681143      5528.0678    
       108   0             -2181.2855      1876.7409      1888.2363      1886.9379      1855.0486     -38.762889     -60.372087      155.33406      17.681549      17.682462      17.681143      5528.0678    
       109   0             -2181.2855      1879.9723      1891.1109      1890.38        1858.4259     -38.304824     -60.229902      155.63354      17.681549      17.682462      17.681143      5528.0678    
       110   0             -2181.2855      1881.0516      1891.9068      1891.7258      1859.5223     -38.012505     -59.869607      155.37865      17.681549      17.682462      17.681143      5528.0678    
       111   0             -2181.2856      1877.0353      1887.785       1887.8813      1855.4395     -38.367668     -60.064415      155.28258      17.681549      17.682462      17.681143      5528.0678    
       112   0             -2181.2856      1876.2696      1887.1408      1887.1418      1854.5262     -38.451316     -60.286756      154.85707      17.681549      17.682462      17.681143      5528.0678    
       113   0             -2181.2856      1878.2959      1888.974       1889.1129      1856.8007     -38.178994     -60.219269      154.90729      17.681549      17.682462      17.681143      5528.0678    
       114   0             -2181.2856      1878.4048      1889.0255      1889.2043      1856.9846     -38.276926     -60.146585      155.10712      17.681549      17.682462      17.681143      5528.0678    
       115   0             -2181.2856      1877.9427      1888.6503      1888.6776      1856.5003     -38.320217     -60.170265      155.2735       17.681549      17.682462      17.681143      5528.0678    
       116   0             -2181.2856      1877.5825      1888.3264      1888.2649      1856.1561     -38.329504     -60.132875      155.19491      17.681549      17.682462      17.681143      5528.0678    
       117   0             -2181.2856      1877.5567      1888.2951      1888.2281      1856.1468     -38.333003     -60.146955      155.13656      17.681549      17.682462      17.681143      5528.0678    
       118   0             -2181.2856      1877.7464      1888.4695      1888.4326      1856.3371     -38.331912     -60.166963      155.11027      17.681549      17.682462      17.681143      5528.0678    
       119   0             -2181.2856      1877.7208      1888.432       1888.408       1856.3223     -38.313022     -60.169536      155.11964      17.681549      17.682462      17.681143      5528.0678    
       120   0             -2181.2856      1877.6453      1888.3578      1888.326       1856.2521     -38.310425     -60.16693       155.12287      17.681549      17.682462      17.681143      5528.0678    
       121   0             -2181.2856      1877.6525      1888.3547      1888.3369      1856.266      -38.304287     -60.154042      155.12002      17.681549      17.682462      17.681143      5528.0678    
       122   0             -2181.2856      1877.6813      1888.3789      1888.3777      1856.2872     -38.315806     -60.144251      155.11289      17.681549      17.682462      17.681143      5528.0678    
       123   0             -2181.2856      1877.6943      1888.3912      1888.3994      1856.2922     -38.315022     -60.143867      155.11711      17.681549      17.682462      17.681143      5528.0678    
       124   0             -2181.2856      1877.6847      1888.3834      1888.3895      1856.2814     -38.313577     -60.147343      155.12317      17.681549      17.682462      17.681143      5528.0678    
       125   0             -2181.2856      1877.6732      1888.3723      1888.378       1856.2692     -38.312546     -60.148606      155.12304      17.681549      17.682462      17.681143      5528.0678    
       126   0             -2181.2856      1877.6753      1888.3743      1888.3793      1856.2723     -38.312514     -60.148404      155.12264      17.681549      17.682462      17.681143      5528.0678    
       127   0             -2181.2856      1877.6784      1888.377       1888.3817      1856.2765     -38.312098     -60.148886      155.12246      17.681549      17.682462      17.681143      5528.0678    
       128   0             -2181.2856      1877.6786      1888.3776      1888.382       1856.2762     -38.312104     -60.148548      155.12282      17.681549      17.682462      17.681143      5528.0678    
       129   0             -2181.2856      1877.6774      1888.3765      1888.3809      1856.2746     -38.312694     -60.148281      155.1226       17.681549      17.682462      17.681143      5528.0678    
       130   0             -2181.2856      1877.6769      1888.3765      1888.3802      1856.2739     -38.312722     -60.148521      155.12247      17.681549      17.682462      17.681143      5528.0678    
       131   0             -2181.2856      1877.6772      1888.3769      1888.3807      1856.2741     -38.312663     -60.14848       155.12262      17.681549      17.682462      17.681143      5528.0678    
       132   0             -2181.2856      1877.6775      1888.3771      1888.3811      1856.2743     -38.312685     -60.148438      155.12277      17.681549      17.682462      17.681143      5528.0678    
       133   0             -2181.2856      1877.6773      1888.3769      1888.3811      1856.2739     -38.312699     -60.148522      155.12267      17.681549      17.682462      17.681143      5528.0678    
       134   0             -2181.2856      1877.677       1888.3766      1888.3809      1856.2736     -38.31259      -60.148503      155.12264      17.681549      17.682462      17.681143      5528.0678    
       135   0             -2181.2856      1877.6771      1888.3767      1888.3809      1856.2737     -38.312533     -60.148398      155.12272      17.681549      17.682462      17.681143      5528.0678    
       136   0             -2181.2856      1877.6771      1888.3767      1888.3809      1856.2737     -38.312571     -60.148398      155.12273      17.681549      17.682462      17.681143      5528.0678    
       137   0             -2181.2856      1877.6771      1888.3768      1888.3809      1856.2737     -38.312594     -60.14842       155.12271      17.681549      17.682462      17.681143      5528.0678    
       138   0             -2181.2856      1877.6771      1888.3767      1888.3809      1856.2737     -38.312604     -60.148428      155.1227       17.681549      17.682462      17.681143      5528.0678    
       139   0             -2181.2856      1877.6771      1888.3767      1888.3809      1856.2737     -38.312599     -60.148419      155.12271      17.681549      17.682462      17.681143      5528.0678    
[...]
       151   0             -2181.2856      1879.5214      1889.9185      1890.8351      1857.8107     -37.129664     -60.14651       155.12225      17.681549      17.682444      17.681143      5528.0623    
       152   0             -2181.2856      1879.5214      1889.9185      1890.8351      1857.8107     -37.129664     -60.14651       155.12225      17.681549      17.682444      17.681143      5528.0623    
       153   0             -2181.2856      1879.5214      1889.9185      1890.8351      1857.8107     -37.129664     -60.14651       155.12225      17.681549      17.682444      17.681143      5528.0623    
       154   0             -2181.2856      1879.5214      1889.9185      1890.8351      1857.8107     -37.129664     -60.14651       155.12225      17.681549      17.682444      17.681143      5528.0623    
       155   0             -2181.2856      1879.5214      1889.9185      1890.8351      1857.8107     -37.129664     -60.14651       155.12225      17.681549      17.682444      17.681143      5528.0623    
       156   0             -2181.2856      1879.5214      1889.9185      1890.8351      1857.8107     -37.129664     -60.14651       155.12225      17.681549      17.682444      17.681143      5528.0623    
       157   0             -2181.2856      1879.5214      1889.9185      1890.8351      1857.8107     -37.129664     -60.14651       155.12225      17.681549      17.682444      17.681143      5528.0623    
       158   0             -2181.2856      1879.5214      1889.9185      1890.8351      1857.8107     -37.129664     -60.14651       155.12225      17.681549      17.682444      17.681143      5528.0623    
       159   0             -2181.2856      1879.5214      1889.9185      1890.8351      1857.8107     -37.129664     -60.14651       155.12225      17.681549      17.682444      17.681143      5528.0623    
Loop time of 0.136482 on 1 procs for 59 steps with 500 atoms

103.0% CPU use with 1 MPI tasks x 1 OpenMP threads

Minimization stats:
  Stopping criterion = force tolerance
  Energy initial, next-to-last, final = 
     -2181.00565168303  -2181.28555719111  -2181.28555719111
  Force two-norm initial, final = 2.2060806 8.6757029e-11
  Force max component initial, final = 0.1851176 8.1187002e-12
  Final line search alpha, max atom move = 1 8.1187002e-12
  Iterations, force evaluations = 59 116

MPI task timing breakdown:
Section |  min time  |  avg time  |  max time  |%varavg| %total
---------------------------------------------------------------
Pair    | 0.13387    | 0.13387    | 0.13387    |   0.0 | 98.09
Neigh   | 0          | 0          | 0          |   0.0 |  0.00
Comm    | 0.000679   | 0.000679   | 0.000679   |   0.0 |  0.50
Output  | 0.000894   | 0.000894   | 0.000894   |   0.0 |  0.66
Modify  | 0          | 0          | 0          |   0.0 |  0.00
Other   |            | 0.00104    |            |       |  0.76

Nlocal:            500 ave         500 max         500 min
Histogram: 1 0 0 0 0 0 0 0 0 0
Nghost:           1956 ave        1956 max        1956 min
Histogram: 1 0 0 0 0 0 0 0 0 0
Neighs:          33500 ave       33500 max       33500 min
Histogram: 1 0 0 0 0 0 0 0 0 0

Total # of neighbors = 33500
Ave neighs/atom = 67
Neighbor list builds = 0
Dangerous builds = 0
OMP_NUM_THREADS environment is not set. Defaulting to 1 thread. (src/comm.cpp:98)
  using 1 OpenMP thread(s) per MPI task
Loaded 1 plugins from F:\Lammps\LAMMPS 64-bit 2Aug2023\plugins

The 'box' command has been removed and will be ignored

Reading restart file ...
  restart file = 2 Aug 2023, LAMMPS = 2 Aug 2023
  restoring atom style atomic from restart
  triclinic box = (0.054225576 0.053777986 0.054428614) to (17.735774 17.736222 17.735571) with tilt (0 0 0)
  1 by 1 by 1 MPI processor grid
  pair style eam/alloy stores no restart info
  500 atoms
  read_restart CPU = 0.000 seconds
Changing box ...
  triclinic box = (0.054225576 0.053777986 0.054428614) to (17.735774 17.736222 17.735571) with tilt (1.7682444e-05 0 0)
Neighbor list info ...
  update: every = 1 steps, delay = 0 steps, check = yes
  max neighbors/atom: 2000, page size: 100000
  master list distance cutoff = 6.80375
  ghost atom cutoff = 6.80375
  1 neighbor lists, perpetual/occasional/extra = 1 0 0
  (1) pair eam/alloy, perpetual
      attributes: half, newton on
      pair build: half/nsq/newton
      stencil: none
      bin: none
Setting up cg style minimization ...
  Unit style    : metal
  Current step  : 100
Per MPI rank memory allocation (min/avg/max) = 4.482 | 4.482 | 4.482 Mbytes
   Step          Temp          PotEng         Press           Pxx            Pyy            Pzz            Pxy            Pxz            Pyz             Lx             Ly             Lz           Volume    
       100   0             -2181.0057      358.44466      358.58057      359.12193      357.63148     -77.791867     -53.915649      109.75366      17.681549      17.682444      17.681143      5528.0623    
       101   0             -2181.1911      1309.7104      1309.9527      1310.1926      1308.986      -59.071603     -49.904174      143.65372      17.681549      17.682444      17.681143      5528.0623    
       102   0             -2181.2604      1937.7864      1936.8572      1947.4373      1929.0647     -49.070998     -54.334972      164.5293       17.681549      17.682444      17.681143      5528.0623    
       103   0             -2181.2776      1757.1858      1756.6519      1775.489       1739.4166     -47.593999     -65.474101      162.65428      17.681549      17.682444      17.681143      5528.0623    
       104   0             -2181.2833      1877.5786      1888.702       1891.2498      1852.7841     -44.749628     -64.723109      159.24638      17.681549      17.682444      17.681143      5528.0623    
       105   0             -2181.2847      1924.1549      1935.39        1937.0294      1900.0452     -43.666784     -61.75681       159.4117       17.681549      17.682444      17.681143      5528.0623    
       106   0             -2181.2853      1880.4204      1891.7012      1891.7899      1857.77       -42.278505     -58.746296      156.60337      17.681549      17.682444      17.681143      5528.0623    
       107   0             -2181.2854      1874.0046      1885.9664      1884.3414      1851.706      -40.832455     -59.089401      155.47776      17.681549      17.682444      17.681143      5528.0623    
       108   0             -2181.2855      1878.5872      1889.7789      1889.3946      1856.588      -39.948294     -60.370228      155.33268      17.681549      17.682444      17.681143      5528.0623    
       109   0             -2181.2855      1881.8178      1892.6528      1892.8361      1859.9647     -39.490184     -60.228192      155.63221      17.681549      17.682444      17.681143      5528.0623    
       110   0             -2181.2855      1882.8981      1893.4496      1894.1827      1861.062      -39.197879     -59.867879      155.37735      17.681549      17.682444      17.681143      5528.0623    
       111   0             -2181.2855      1878.8824      1889.3285      1890.3388      1856.98       -39.553025     -60.062593      155.28129      17.681549      17.682444      17.681143      5528.0623    
       112   0             -2181.2856      1878.1156      1888.6832      1889.5982      1856.0656     -39.636726     -60.284971      154.85575      17.681549      17.682444      17.681143      5528.0623    
       113   0             -2181.2856      1880.1419      1890.5165      1891.5692      1858.3401     -39.364372     -60.217486      154.90595      17.681549      17.682444      17.681143      5528.0623    
       114   0             -2181.2856      1880.2511      1890.5682      1891.661       1858.5243     -39.462281     -60.144814      155.1058       17.681549      17.682444      17.681143      5528.0623    
       115   0             -2181.2856      1879.7891      1890.193       1891.1343      1858.04       -39.505588     -60.168499      155.2722       17.681549      17.682444      17.681143      5528.0623    
       116   0             -2181.2856      1879.4289      1889.8692      1890.7217      1857.6958     -39.514874     -60.131085      155.19361      17.681549      17.682444      17.681143      5528.0623    
       117   0             -2181.2856      1879.403       1889.8378      1890.6848      1857.6864     -39.518369     -60.145176      155.13526      17.681549      17.682444      17.681143      5528.0623    
       118   0             -2181.2856      1879.5927      1890.0121      1890.8893      1857.8767     -39.517285     -60.165187      155.10896      17.681549      17.682444      17.681143      5528.0623    
       119   0             -2181.2856      1879.5672      1889.9748      1890.8648      1857.862      -39.498387     -60.167755      155.11834      17.681549      17.682444      17.681143      5528.0623    
       120   0             -2181.2856      1879.4916      1889.9005      1890.7826      1857.7918     -39.495792     -60.16515       155.12157      17.681549      17.682444      17.681143      5528.0623    
       121   0             -2181.2856      1879.4989      1889.8974      1890.7936      1857.8056     -39.489657     -60.152262      155.11872      17.681549      17.682444      17.681143      5528.0623    
       122   0             -2181.2856      1879.5276      1889.9216      1890.8343      1857.8269     -39.501174     -60.14247       155.11159      17.681549      17.682444      17.681143      5528.0623    
       123   0             -2181.2856      1879.5406      1889.9339      1890.8561      1857.8319     -39.500391     -60.142087      155.11581      17.681549      17.682444      17.681143      5528.0623    
       124   0             -2181.2856      1879.5311      1889.9261      1890.8462      1857.821      -39.498946     -60.145562      155.12187      17.681549      17.682444      17.681143      5528.0623    
       125   0             -2181.2856      1879.5195      1889.9151      1890.8347      1857.8089     -39.497914     -60.146826      155.12174      17.681549      17.682444      17.681143      5528.0623    
       126   0             -2181.2856      1879.5217      1889.917       1890.836       1857.812      -39.497883     -60.146624      155.12134      17.681549      17.682444      17.681143      5528.0623    
       127   0             -2181.2856      1879.5247      1889.9197      1890.8383      1857.8162     -39.497467     -60.147106      155.12116      17.681549      17.682444      17.681143      5528.0623    
       128   0             -2181.2856      1879.5249      1889.9203      1890.8387      1857.8158     -39.497472     -60.146768      155.12152      17.681549      17.682444      17.681143      5528.0623    
       129   0             -2181.2856      1879.5237      1889.9192      1890.8376      1857.8143     -39.498063     -60.1465        155.1213       17.681549      17.682444      17.681143      5528.0623    
       130   0             -2181.2856      1879.5232      1889.9192      1890.8369      1857.8136     -39.498091     -60.146741      155.12116      17.681549      17.682444      17.681143      5528.0623    
       131   0             -2181.2856      1879.5236      1889.9196      1890.8374      1857.8138     -39.498031     -60.1467        155.12132      17.681549      17.682444      17.681143      5528.0623    
       132   0             -2181.2856      1879.5239      1889.9198      1890.8378      1857.814      -39.498054     -60.146658      155.12147      17.681549      17.682444      17.681143      5528.0623    
       133   0             -2181.2856      1879.5236      1889.9196      1890.8378      1857.8135     -39.498067     -60.146741      155.12137      17.681549      17.682444      17.681143      5528.0623    
       134   0             -2181.2856      1879.5234      1889.9193      1890.8376      1857.8133     -39.497959     -60.146722      155.12134      17.681549      17.682444      17.681143      5528.0623    
       135   0             -2181.2856      1879.5235      1889.9194      1890.8376      1857.8134     -39.497901     -60.146617      155.12142      17.681549      17.682444      17.681143      5528.0623    
       136   0             -2181.2856      1879.5235      1889.9194      1890.8376      1857.8134     -39.497939     -60.146617      155.12142      17.681549      17.682444      17.681143      5528.0623    
       137   0             -2181.2856      1879.5235      1889.9195      1890.8376      1857.8134     -39.497962     -60.146639      155.12141      17.681549      17.682444      17.681143      5528.0623    
       138   0             -2181.2856      1879.5234      1889.9194      1890.8376      1857.8134     -39.497972     -60.146648      155.1214       17.681549      17.682444      17.681143      5528.0623    
       139   0             -2181.2856      1879.5234      1889.9194      1890.8375      1857.8134     -39.497967     -60.146638      155.12141      17.681549      17.682444      17.681143      5528.0623    
       140   0             -2181.2856      1879.5234      1889.9194      1890.8375      1857.8134     -39.497966     -60.146638      155.12141      17.681549      17.682444      17.681143      5528.0623    
       141   0             -2181.2856      1879.5234      1889.9194      1890.8375      1857.8134     -39.497968     -60.146642      155.12141      17.681549      17.682444      17.681143      5528.0623    
       142   0             -2181.2856      1879.5234      1889.9194      1890.8375      1857.8134     -39.49797      -60.146641      155.12141      17.681549      17.682444      17.681143      5528.0623    
       143   0             -2181.2856      1879.5234      1889.9194      1890.8375      1857.8134     -39.497971     -60.14664       155.12141      17.681549      17.682444      17.681143      5528.0623    
       144   0             -2181.2856      1879.5234      1889.9194      1890.8375      1857.8134     -39.49797      -60.14664       155.12141      17.681549      17.682444      17.681143      5528.0623    
       145   0             -2181.2856      1879.5234      1889.9194      1890.8375      1857.8134     -39.497969     -60.146641      155.12141      17.681549      17.682444      17.681143      5528.0623    
       146   0             -2181.2856      1879.5234      1889.9194      1890.8375      1857.8134     -39.497969     -60.146641      155.12141      17.681549      17.682444      17.681143      5528.0623    
       147   0             -2181.2856      1879.5234      1889.9194      1890.8375      1857.8134     -39.497969     -60.146641      155.12141      17.681549      17.682444      17.681143      5528.0623    
       148   0             -2181.2856      1879.5234      1889.9194      1890.8375      1857.8134     -39.497969     -60.146641      155.12141      17.681549      17.682444      17.681143      5528.0623    
       149   0             -2181.2856      1879.5234      1889.9194      1890.8375      1857.8134     -39.497969     -60.146641      155.12141      17.681549      17.682444      17.681143      5528.0623    
       150   0             -2181.2856      1879.5234      1889.9194      1890.8375      1857.8134     -39.497969     -60.146641      155.12141      17.681549      17.682444      17.681143      5528.0623    
       151   0             -2181.2856      1879.5234      1889.9194      1890.8375      1857.8134     -39.497969     -60.146641      155.12141      17.681549      17.682444      17.681143      5528.0623    
       152   0             -2181.2856      1879.5234      1889.9194      1890.8375      1857.8134     -39.497969     -60.146641      155.12141      17.681549      17.682444      17.681143      5528.0623    
       153   0             -2181.2856      1879.5234      1889.9194      1890.8375      1857.8134     -39.497969     -60.146641      155.12141      17.681549      17.682444      17.681143      5528.0623    
       154   0             -2181.2856      1879.5234      1889.9194      1890.8375      1857.8134     -39.497969     -60.146641      155.12141      17.681549      17.682444      17.681143      5528.0623    
       155   0             -2181.2856      1879.5234      1889.9194      1890.8375      1857.8134     -39.497969     -60.146641      155.12141      17.681549      17.682444      17.681143      5528.0623    
       156   0             -2181.2856      1879.5234      1889.9194      1890.8375      1857.8134     -39.497969     -60.146641      155.12141      17.681549      17.682444      17.681143      5528.0623    
       157   0             -2181.2856      1879.5234      1889.9194      1890.8375      1857.8134     -39.497969     -60.146641      155.12141      17.681549      17.682444      17.681143      5528.0623    
       158   0             -2181.2856      1879.5234      1889.9194      1890.8375      1857.8134     -39.497969     -60.146641      155.12141      17.681549      17.682444      17.681143      5528.0623    
       159   0             -2181.2856      1879.5234      1889.9194      1890.8375      1857.8134     -39.497969     -60.146641      155.12141      17.681549      17.682444      17.681143      5528.0623    
Loop time of 0.1375 on 1 procs for 59 steps with 500 atoms

102.3% CPU use with 1 MPI tasks x 1 OpenMP threads

Minimization stats:
  Stopping criterion = force tolerance
  Energy initial, next-to-last, final = 
     -2181.00565115444  -2181.28555692674  -2181.28555692673
  Force two-norm initial, final = 2.2060815 8.6768328e-11
  Force max component initial, final = 0.18511815 8.1066126e-12
  Final line search alpha, max atom move = 1 8.1066126e-12
  Iterations, force evaluations = 59 116

MPI task timing breakdown:
Section |  min time  |  avg time  |  max time  |%varavg| %total
---------------------------------------------------------------
Pair    | 0.13491    | 0.13491    | 0.13491    |   0.0 | 98.12
Neigh   | 0          | 0          | 0          |   0.0 |  0.00
Comm    | 0.000671   | 0.000671   | 0.000671   |   0.0 |  0.49
Output  | 0.000949   | 0.000949   | 0.000949   |   0.0 |  0.69
Modify  | 0          | 0          | 0          |   0.0 |  0.00
Other   |            | 0.000966   |            |       |  0.70

Nlocal:            500 ave         500 max         500 min
Histogram: 1 0 0 0 0 0 0 0 0 0
Nghost:           1956 ave        1956 max        1956 min
Histogram: 1 0 0 0 0 0 0 0 0 0
Neighs:          33500 ave       33500 max       33500 min
Histogram: 1 0 0 0 0 0 0 0 0 0

Total # of neighbors = 33500
Ave neighs/atom = 67
Neighbor list builds = 0
Dangerous builds = 0
=========================================
Components of the Elastic Constant Tensor
=========================================
Elastic Constant C11all = 245.920843603002 GPa
Elastic Constant C22all = 245.546494233 GPa
Elastic Constant C33all = 245.525285192503 GPa
Elastic Constant C12all = 154.224956326754 GPa
Elastic Constant C13all = 154.3006317935 GPa
Elastic Constant C23all = 153.83305154775 GPa
Elastic Constant C44all = 118.37363378125 GPa
Elastic Constant C55all = 118.515189341365 GPa
Elastic Constant C66all = 118.41524467884 GPa
Elastic Constant C14all = -0.0461051021759431 GPa
Elastic Constant C15all = 0.0368560057902698 GPa
Elastic Constant C16all = -0.0491022423800587 GPa
Elastic Constant C24all = -0.103766086672295 GPa
Elastic Constant C25all = 0.187569949907896 GPa
Elastic Constant C26all = -0.121588830940368 GPa
Elastic Constant C34all = -0.0620842128014374 GPa
Elastic Constant C35all = 0.0549160986486186 GPa
Elastic Constant C36all = -0.136339453977712 GPa
Elastic Constant C45all = -0.0870477742550406 GPa
Elastic Constant C46all = 0.0448870795376024 GPa
Elastic Constant C56all = 0.00651291951749045 GPa
=========================================
Average properties for a cubic crystal
=========================================
Bulk Modulus = 184.634433596057 GPa
Shear Modulus 1 = 118.434689267152 GPa
Shear Modulus 2 = 45.7723305600835 GPa
Poisson Ratio = 0.3855072771829
Total wall time: 0:00:02
