LAMMPS (2 Aug 2023 - Update 3)
OMP_NUM_THREADS environment is not set. Defaulting to 1 thread. (src/comm.cpp:98)
  using 1 OpenMP thread(s) per MPI task
Loaded 1 plugins from F:\Lammps\LAMMPS 64-bit 2Aug2023\plugins
Reading data file ...
  orthogonal box = (0 0 0) to (17.79 17.79 17.79)
  1 by 1 by 1 MPI processor grid
  reading atoms ...
  500 atoms
  read_data CPU = 0.001 seconds
Changing box ...
  triclinic box = (0 0 0) to (17.79 17.79 17.79) with tilt (0 0 0)
Neighbor list info ...
  update: every = 1 steps, delay = 0 steps, check = yes
  max neighbors/atom: 2000, page size: 100000
  master list distance cutoff = 6.80375
  ghost atom cutoff = 6.80375
  1 neighbor lists, perpetual/occasional/extra = 1 0 0
  (1) pair eam/alloy, perpetual
      attributes: half, newton on
      pair build: half/nsq/newton
      stencil: none
      bin: none
Setting up cg style minimization ...
  Unit style    : metal
  Current step  : 0
WARNING: Energy due to 3 extra global DOFs will be included in minimizer energies
 (src/min.cpp:228)
Per MPI rank memory allocation (min/avg/max) = 4.492 | 4.492 | 4.492 Mbytes
   Step          Temp          PotEng         Press           Pxx            Pyy            Pzz            Pxy            Pxz            Pyz             Lx             Ly             Lz           Volume    
         0   0             -2179.7783     -32812.075     -32873.383     -32735.781     -32827.062     -101.41928     -29.095327     -15.139824      17.79          17.79          17.79          5630.2521    
         1   0             -2179.8125     -32270.858     -32331.508     -32195.442     -32285.623     -101.06579     -29.949896     -15.076851      17.788221      17.788228      17.788224      5628.5664    
         2   0             -2179.8462     -31729.201     -31789.187     -31654.669     -31743.747     -100.71235     -30.80376      -15.018008      17.786442      17.786457      17.786447      5626.881     
         3   0             -2179.8793     -31187.099     -31246.416     -31113.453     -31201.427     -100.35893     -31.656852     -14.963149      17.784663      17.784685      17.784671      5625.1959    
         4   0             -2179.9118     -30644.567     -30703.21      -30571.812     -30658.678     -100.00567     -32.509813     -14.910948      17.782884      17.782914      17.782894      5623.5112    
         5   0             -2179.9437     -30101.686     -30159.655     -30029.824     -30115.578     -99.652389     -33.36145      -14.856913      17.781105      17.781143      17.781118      5621.8269    
         6   0             -2179.9751     -29558.5       -29615.796     -29487.534     -29572.171     -99.299106     -34.210882     -14.800909      17.779326      17.779371      17.779341      5620.1429    
         7   0             -2180.0059     -29015.009     -29071.63      -28944.941     -29028.454     -98.945906     -35.058079     -14.742933      17.777547      17.7776        17.777565      5618.4593    
         8   0             -2180.0361     -28471.161     -28527.106     -28401.998     -28484.381     -98.590379     -35.903533     -14.684784      17.775768      17.775829      17.775789      5616.7761    
         9   0             -2180.0657     -27926.899     -27982.161     -27858.643     -27939.892     -98.233559     -36.748978     -14.628846      17.773989      17.774058      17.774012      5615.0931    
        10   0             -2180.0948     -27382.195     -27436.771     -27314.852     -27394.963     -97.875928     -37.595711     -14.574959      17.77221       17.772286      17.772236      5613.4106    
        11   0             -2180.1232     -26837.072     -26890.958     -26770.645     -26849.613     -97.518597     -38.443724     -14.522306      17.770431      17.770515      17.77046       5611.7284    
        12   0             -2180.1511     -26291.575     -26344.769     -26226.064     -26303.891     -97.163624     -39.293171     -14.47065       17.768652      17.768744      17.768683      5610.0466    
        13   0             -2180.1785     -25745.728     -25798.228     -25681.134     -25757.821     -96.809927     -40.142631     -14.419211      17.766873      17.766973      17.766907      5608.3651    
        14   0             -2180.2052     -25199.569     -25251.372     -25135.891     -25211.443     -96.456281     -40.991466     -14.368292      17.765094      17.765202      17.765131      5606.6841    
        15   0             -2180.2314     -24653.055     -24704.159     -24590.299     -24664.708     -96.101085     -41.839504     -14.317308      17.763315      17.763432      17.763355      5605.0033    
        16   0             -2180.2569     -24106.144     -24156.548     -24044.315     -24117.57      -95.74398      -42.686401     -14.265403      17.761536      17.761661      17.761579      5603.323     
        17   0             -2180.2819     -23558.817     -23608.521     -23497.921     -23570.01      -95.385317     -43.531962     -14.21251       17.759757      17.75989       17.759802      5601.643     
        18   0             -2180.3064     -23011.065     -23060.068     -22951.104     -23022.024     -95.026774     -44.376179     -14.158928      17.757978      17.758119      17.758026      5599.9633    
        19   0             -2180.3302     -22462.973     -22511.268     -22403.948     -22473.704     -94.669029     -45.219298     -14.106345      17.756199      17.756349      17.75625       5598.2841    
        20   0             -2180.3535     -21914.559     -21962.136     -21856.471     -21925.069     -94.312168     -46.061208     -14.054709      17.75442       17.754578      17.754474      5596.6052    
        21   0             -2180.3762     -21365.85      -21412.704     -21308.704     -21376.142     -93.955185     -46.903159     -14.004388      17.752641      17.752808      17.752698      5594.9267    
        22   0             -2180.3983     -20816.772     -20862.899     -20760.577     -20826.84      -93.597031     -47.745152     -13.95474       17.750862      17.751038      17.750922      5593.2485    
        23   0             -2180.4198     -20267.348     -20312.747     -20212.11      -20277.186     -93.238296     -48.586822     -13.905282      17.749083      17.749267      17.749146      5591.5707    
        24   0             -2180.4407     -19717.571     -19762.242     -19663.299     -19727.172     -92.87958      -49.428028     -13.855929      17.747304      17.747497      17.747371      5589.8933    
        25   0             -2180.4611     -19167.486     -19211.428     -19114.178     -19176.851     -92.521664     -50.267563     -13.805112      17.745525      17.745727      17.745595      5588.2163    
        26   0             -2180.4809     -18617.107     -18660.321     -18564.767     -18626.235     -92.164396     -51.105651     -13.750521      17.743746      17.743957      17.743819      5586.5397    
        27   0             -2180.5001     -18066.397     -18108.88      -18015.026     -18075.285     -91.806474     -51.942364     -13.692402      17.741967      17.742187      17.742043      5584.8634    
        28   0             -2180.5187     -17515.358     -17557.107     -17464.96      -17524.006     -91.446806     -52.777759     -13.631928      17.740188      17.740417      17.740267      5583.1876    
        29   0             -2180.5368     -16963.999     -17005.01      -16914.58      -16972.408     -91.086032     -53.613058     -13.573797      17.738409      17.738648      17.738492      5581.5121    
        30   0             -2180.5542     -16412.337     -16452.601     -16363.902     -16420.508     -90.724395     -54.448561     -13.518461      17.73663       17.736878      17.736716      5579.837     
        31   0             -2180.5711     -15860.4       -15899.913     -15812.954     -15868.333     -90.36252      -55.284314     -13.465703      17.734851      17.735109      17.734941      5578.1623    
        32   0             -2180.5874     -15308.155     -15346.912     -15261.706     -15315.846     -90.001127     -56.118948     -13.412068      17.733072      17.73334       17.733165      5576.488     
        33   0             -2180.6031     -14755.566     -14793.559     -14710.121     -14763.018     -89.638713     -56.949963     -13.356685      17.731293      17.731571      17.73139       5574.8141    
        34   0             -2180.6183     -14202.641     -14239.863     -14158.204     -14209.856     -89.274869     -57.777197     -13.299559      17.729514      17.729802      17.729615      5573.1406    
        35   0             -2180.6328     -13649.385     -13685.828     -13605.961     -13656.365     -88.909086     -58.600947     -13.240628      17.727735      17.728033      17.727839      5571.4676    
        36   0             -2180.6468     -13095.876     -13131.54      -13053.469     -13102.618     -88.540531     -59.423813     -13.180333      17.725956      17.726264      17.726064      5569.7949    
        37   0             -2180.6602     -12542.144     -12577.029     -12500.762     -12548.641     -88.169823     -60.246559     -13.119397      17.724177      17.724496      17.724289      5568.1227    
        38   0             -2180.673      -11988.199     -12022.302     -11947.85      -11994.446     -87.797009     -61.069289     -13.057824      17.722398      17.722728      17.722514      5566.4509    
        39   0             -2180.6853     -11434         -11467.308     -11394.699     -11439.994     -87.422576     -61.891214     -12.997863      17.720619      17.72096       17.720739      5564.7795    
        40   0             -2180.6969     -10879.484     -10911.988     -10841.24      -10885.223     -87.046539     -62.711198     -12.936982      17.71884       17.719192      17.718965      5563.1086    
        41   0             -2180.708      -10324.619     -10356.313     -10287.44      -10330.103     -86.668859     -63.528709     -12.875201      17.717061      17.717425      17.71719       5561.4382    
        42   0             -2180.7185     -9769.4339     -9800.3139     -9733.3244     -9774.6634     -86.289284     -64.343578     -12.81234       17.715282      17.715658      17.715415      5559.7682    
        43   0             -2180.7284     -9214.0103     -9244.0636     -9178.9792     -9218.988      -85.908035     -65.154739     -12.750178      17.713503      17.713891      17.713641      5558.0987    
        44   0             -2180.7377     -8658.3759     -8687.5877     -8624.4357     -8663.1045     -85.525466     -65.963078     -12.689652      17.711724      17.712124      17.711867      5556.4297    
        45   0             -2180.7465     -8102.5765     -8130.9289     -8069.7458     -8107.0549     -85.141267     -66.769566     -12.630436      17.709945      17.710358      17.710093      5554.7613    
        46   0             -2180.7547     -7546.5578     -7574.0382     -7514.8563     -7550.779      -84.755101     -67.575698     -12.57015       17.708166      17.708593      17.708319      5553.0934    
        47   0             -2180.7623     -6990.3253     -7016.9243     -6959.7697     -6994.2819     -84.365792     -68.381721     -12.50818       17.706387      17.706828      17.706546      5551.426     
        48   0             -2180.7693     -6433.8909     -6459.5964     -6404.499      -6437.5774     -83.973478     -69.186535     -12.443776      17.704608      17.705063      17.704772      5549.7593    
        49   0             -2180.7757     -5877.2609     -5902.0567     -5849.0497     -5880.6763     -83.578112     -69.988726     -12.378161      17.702829      17.703299      17.703         5548.0932    
        50   0             -2180.7816     -5320.4394     -5344.3018     -5293.4348     -5323.5815     -83.180812     -70.788494     -12.310447      17.70105       17.701536      17.701227      5546.4278    
        51   0             -2180.7869     -4763.4446     -4786.3497     -4737.6728     -4766.3112     -82.781427     -71.586158     -12.240314      17.699271      17.699774      17.699455      5544.7632    
        52   0             -2180.7916     -4206.3273     -4228.2457     -4181.8211     -4208.9152     -82.380225     -72.382986     -12.167618      17.697492      17.698014      17.697683      5543.0994    
        53   0             -2180.7957     -3649.179      -3670.078      -3625.9704     -3651.4885     -81.976898     -73.178726     -12.09337       17.695713      17.696254      17.695913      5541.4367    
        54   0             -2180.7993     -3092.1118     -3111.9414     -3070.2531     -3094.1408     -81.571307     -73.973131     -12.018216      17.693934      17.694497      17.694143      5539.7751    
        55   0             -2180.8023     -2535.1978     -2553.8916     -2514.7584     -2536.9432     -81.162522     -74.765882     -11.94212       17.692155      17.692741      17.692374      5538.115     
        56   0             -2180.8047     -1978.5201     -1995.9812     -1959.6038     -1979.9753     -80.748926     -75.556763     -11.864477      17.690376      17.69099       17.690607      5536.4568    
        57   0             -2180.8066     -1422.2483     -1438.3423     -1404.9977     -1423.405      -80.32832      -76.345602     -11.784813      17.688597      17.689243      17.688842      5534.8014    
        58   0             -2180.8079     -866.87851     -881.37608     -851.53158     -867.72786     -79.897741     -77.131374     -11.702605      17.686818      17.687506      17.687081      5533.1503    
        59   0             -2180.8088     -313.8495      -326.26664     -300.90327     -314.37859     -79.450201     -77.913449     -11.615047      17.685039      17.685787      17.68533       5531.5084    
        60   0             -2180.8095      228.44866      220.11777      236.93554      228.29266     -78.936419     -78.685231     -11.507741      17.68326       17.684146      17.683616      5529.9028    
        61   0             -2180.8121     -263.11888     -261.58916     -264.5399      -263.22758     -78.858114     -78.031626     -11.464505      17.684643      17.685925      17.685189      5531.3834    
        62   0             -2180.8138      290.86435      295.08591      286.41206      291.09508     -78.162517     -78.827807     -11.312644      17.682864      17.684227      17.683447      5529.7514    
        63   0             -2180.8163     -259.5549      -256.51428     -262.52888     -259.62155     -78.151407     -78.076374     -11.286243      17.684643      17.685974      17.685211      5531.4057    
        64   0             -2180.8186      297.03262      298.83904      295.0634       297.19542     -77.346369     -78.878211     -11.108705      17.682937      17.684195      17.683468      5529.771     
        65   0             -2180.821      -247.18263     -247.63176     -246.57205     -247.34407     -77.350281     -78.133008     -11.086206      17.684716      17.6859        17.685212      5531.4061    
        66   0             -2180.8236      317.47174      316.96541      317.87036      317.57945     -76.485867     -78.952088     -10.894667      17.682966      17.684121      17.683446      5529.75      
        67   0             -2180.826      -237.25709     -238.31908     -236.02176     -237.43043     -76.503349     -78.194048     -10.874242      17.684745      17.685893      17.685222      5531.416     
        68   0             -2180.8288      329.06807      329.31068      328.68987      329.20367     -75.593141     -79.021293     -10.671887      17.682966      17.684138      17.683452      5529.7571    
        69   0             -2180.8312     -226.00578     -225.99893     -225.87503     -226.14339     -75.622737     -78.262706     -10.653946      17.684739      17.685917      17.685228      5531.4236    
        70   0             -2180.8342      343.71095      344.58212      342.67972      343.87101     -74.674486     -79.097728     -10.443278      17.68296       17.684144      17.68345       5529.7564    
        71   0             -2180.8364     -210.66025     -210.48116     -210.71319     -210.78641     -74.716378     -78.339088     -10.428178      17.684739      17.685911      17.685224      5531.4202    
        72   0             -2180.8396      358.69305      359.30664      357.91996      358.85256     -73.733158     -79.176686     -10.209826      17.682972      17.684132      17.683448      5529.7558    
        73   0             -2180.8417     -195.54308     -195.6963      -195.26129     -195.67166     -73.791768     -78.417505     -10.198567      17.684751      17.685897      17.685221      5531.4184    
        74   0             -2180.8451      375.5852       376.08147      374.92457      375.74956     -72.764943     -79.262154     -9.9703556      17.682976      17.684118      17.683442      5529.7509    
        75   0             -2180.8472     -179.73413     -179.87819     -179.4694      -179.8548      -72.840728     -78.500952     -9.9628901      17.684755      17.685888      17.685217      5531.416     
        76   0             -2180.8508      392.18377      392.81086      391.38072      392.35973     -71.763423     -79.35189      -9.7233129      17.682979      17.684112      17.683438      5529.7486    
        77   0             -2180.8527     -163.46396     -163.47823     -163.34044     -163.57322     -71.85726      -78.589418     -9.7197838      17.684758      17.685882      17.685213      5531.4138    
        78   0             -2180.8566      409.41771      410.07055      408.58027      409.60231     -70.720891     -79.447512     -9.4670409      17.682984      17.684104      17.683434      5529.7465    
        79   0             -2180.8585     -146.33808     -146.36588     -146.20868     -146.43966     -70.833281     -78.683806     -9.4673032      17.684763      17.685873      17.685209      5531.4112    
        80   0             -2180.8627      427.69537      428.33886      426.85928      427.88796     -69.624666     -79.550881     -9.1987459      17.68299       17.684094      17.68343       5529.7439    
        81   0             -2180.8645     -128.45322     -128.48509     -128.32806     -128.54652     -69.756471     -78.785355     -9.2026265      17.684769      17.685863      17.685205      5531.4089    
        82   0             -2180.8692      447.04937      447.73655      446.15966      447.2519      -68.455168     -79.664054     -8.9136382      17.682996      17.684085      17.683426      5529.7418    
        83   0             -2180.8709     -109.47547     -109.46332     -109.40458     -109.5585      -68.606971     -78.896446     -8.9210739      17.684775      17.685855      17.685201      5531.407     
        84   0             -2180.8762      467.84874      468.55315      466.93197      468.06111     -67.179501     -79.79055      -8.6039782      17.683004      17.684076      17.683423      5529.7407    
        85   0             -2180.8778     -89.014938     -88.994348     -88.96245      -89.088018     -67.352276     -79.020598     -8.614927       17.684783      17.685846      17.685198      5531.4059    
        86   0             -2180.8841      491.24341      491.98675      490.27638      491.46711     -65.734304     -79.938147     -8.2547839      17.683014      17.684067      17.68342       5529.7401    
        87   0             -2180.8856     -66.018431     -65.961694     -66.013562     -66.080038     -65.929355     -79.165433     -8.2692366      17.684793      17.685838      17.685196      5531.4055    
        88   0             -2180.8936      519.08586      519.8466       518.08785      519.32314     -63.968438     -80.124035     -7.8304671      17.683029      17.684059      17.68342       5529.742     
        89   0             -2180.895      -38.60737      -38.537397     -38.628841     -38.655873     -64.187951     -79.347681     -7.8482946      17.684808      17.685829      17.685195      5531.4075    
        90   0             -2180.9076      560.60495      561.49423      559.45615      560.86447     -61.302116     -80.417269     -7.1937802      17.683053      17.68405       17.683421      5529.7472    
        91   0             -2180.909       2.4507054      2.6367208      2.2923237      2.4230717     -61.54997      -79.635918     -7.2152181      17.684832      17.685821      17.685197      5531.4127    
        92   0             -2180.9657     -331.28574     -333.5494      -328.75996     -331.54787     -50.488314     -80.302007     -4.5791946      17.686611      17.687368      17.686832      5532.9643    
        93   0             -2180.9664      230.13046      229.13481      231.08513      230.17145     -49.89455      -81.13459      -4.4858182      17.684832      17.685613      17.685063      5531.3058    
        94   0             -2180.9715     -286.96424     -283.78543     -290.07516     -287.03213     -49.265338     -80.5165       -4.2991155      17.68644       17.687392      17.68675       5532.8929    
        95   0             -2180.9728      278.07927      281.51496      274.4387       278.28414     -48.526135     -81.371385     -4.1740191      17.684678      17.685613      17.684977      5531.2309    
        96   0             -2180.9771     -240.37233     -241.9352      -238.61502     -240.56678     -48.055348     -80.721651     -4.0285022      17.686457      17.687207      17.686666      5532.8142    
        97   0             -2180.979       325.9299       324.5055       327.28111      326.00309     -47.186849     -81.595975     -3.8749486      17.684701      17.685428      17.684897      5531.1551    
        98   0             -2180.983      -222.06229     -223.76786     -220.16322     -222.2558      -46.797015     -80.905194     -3.7438217      17.686479      17.687207      17.686673      5532.8233    
        99   0             -2180.9855      343.90909      344.06423      343.62639      344.03664     -45.79059      -81.80133      -3.5589729      17.6847        17.68547       17.684911      5531.1723    
       100   0             -2180.9892     -198.10716     -197.12545     -198.99135     -198.20467     -45.461579     -81.114321     -3.4422279      17.686434      17.687249      17.686664      5532.8195    
Loop time of 0.116541 on 1 procs for 100 steps with 500 atoms

93.9% CPU use with 1 MPI tasks x 1 OpenMP threads

Minimization stats:
  Stopping criterion = max iterations
  Energy initial, next-to-last, final = 
     -2179.77826353822  -2180.98547335708  -2180.98921582154
  Force two-norm initial, final = 199.74241 2.2842651
  Force max component initial, final = 115.52125 0.69117178
  Final line search alpha, max atom move = 0.00018190273 0.00012572603
  Iterations, force evaluations = 100 100

MPI task timing breakdown:
Section |  min time  |  avg time  |  max time  |%varavg| %total
---------------------------------------------------------------
Pair    | 0.10874    | 0.10874    | 0.10874    |   0.0 | 93.31
Neigh   | 0          | 0          | 0          |   0.0 |  0.00
Comm    | 0.000597   | 0.000597   | 0.000597   |   0.0 |  0.51
Output  | 0.001386   | 0.001386   | 0.001386   |   0.0 |  1.19
Modify  | 0          | 0          | 0          |   0.0 |  0.00
Other   |            | 0.005818   |            |       |  4.99

Nlocal:            500 ave         500 max         500 min
Histogram: 1 0 0 0 0 0 0 0 0 0
Nghost:           1956 ave        1956 max        1956 min
Histogram: 1 0 0 0 0 0 0 0 0 0
Neighs:          33500 ave       33500 max       33500 min
Histogram: 1 0 0 0 0 0 0 0 0 0

Total # of neighbors = 33500
Ave neighs/atom = 67
Neighbor list builds = 0
Dangerous builds = 0
Displacing atoms ...
System init for write_restart ...
OMP_NUM_THREADS environment is not set. Defaulting to 1 thread. (src/comm.cpp:98)
  using 1 OpenMP thread(s) per MPI task
Loaded 1 plugins from F:\Lammps\LAMMPS 64-bit 2Aug2023\plugins

The 'box' command has been removed and will be ignored

Reading restart file ...
  restart file = 2 Aug 2023, LAMMPS = 2 Aug 2023
  restoring atom style atomic from restart
  triclinic box = (0.051783161 0.051375285 0.051667827) to (17.738217 17.738625 17.738332) with tilt (0 0 0)
  1 by 1 by 1 MPI processor grid
  pair style eam/alloy stores no restart info
  500 atoms
  read_restart CPU = 0.000 seconds
Changing box ...
  triclinic box = (0.051783161 0.051375285 0.051667827) to (17.738199 17.738625 17.738332) with tilt (0 0 0)
  triclinic box = (0.051783161 0.051375285 0.051667827) to (17.738199 17.738625 17.738332) with tilt (0 0 0)
  triclinic box = (0.051783161 0.051375285 0.051667827) to (17.738199 17.738625 17.738332) with tilt (0 0 0)
Neighbor list info ...
  update: every = 1 steps, delay = 0 steps, check = yes
  max neighbors/atom: 2000, page size: 100000
  master list distance cutoff = 6.80375
  ghost atom cutoff = 6.80375
  1 neighbor lists, perpetual/occasional/extra = 1 0 0
  (1) pair eam/alloy, perpetual
      attributes: half, newton on
      pair build: half/nsq/newton
      stencil: none
      bin: none
Setting up cg style minimization ...
  Unit style    : metal
  Current step  : 100
Per MPI rank memory allocation (min/avg/max) = 4.482 | 4.482 | 4.482 Mbytes
   Step          Temp          PotEng         Press           Pxx            Pyy            Pzz            Pxy            Pxz            Pyz             Lx             Ly             Lz           Volume    
       100   0             -2180.9892     -196.16412     -194.6328      -197.34358     -196.51598     -45.407482     -81.062852     -3.4321183      17.686416      17.687249      17.686664      5532.814     
       101   0             -2181.1462      713.91244      739.27811      697.9149       704.54431      8.7267169     -92.160599      7.0343169      17.686416      17.687249      17.686664      5532.814     
       102   0             -2181.1974      1149.9762      1177.796       1149.1822      1122.9503      34.856329     -102.58952      7.7690835      17.686416      17.687249      17.686664      5532.814     
       103   0             -2181.206       1119.436       1142.4729      1120.4011      1095.434       39.348403     -106.65919      22.985058      17.686416      17.687249      17.686664      5532.814     
       104   0             -2181.2088      1023.7967      1040.4377      1032.2542      998.69804      40.702021     -107.95383      18.687198      17.686416      17.687249      17.686664      5532.814     
       105   0             -2181.21        1080.4313      1094.4911      1092.8358      1053.9669      45.341751     -111.70031      9.8883008      17.686416      17.687249      17.686664      5532.814     
       106   0             -2181.2104      1083.574       1096.2093      1096.6995      1057.8132      44.512895     -110.62799      10.643463      17.686416      17.687249      17.686664      5532.814     
       107   0             -2181.2105      1066.0437      1077.8495      1080.7734      1039.5082      43.633453     -107.67162      11.224797      17.686416      17.687249      17.686664      5532.814     
       108   0             -2181.2105      1071.9921      1084.6638      1086.5458      1044.7667      43.839822     -107.46521      11.683781      17.686416      17.687249      17.686664      5532.814     
       109   0             -2181.2106      1074.1815      1086.8395      1088.7198      1046.9852      43.094342     -107.46232      11.999834      17.686416      17.687249      17.686664      5532.814     
       110   0             -2181.2106      1070.704       1082.3091      1085.9724      1043.8305      42.971101     -107.32046      11.491186      17.686416      17.687249      17.686664      5532.814     
       111   0             -2181.2106      1072.1256      1083.3251      1088.154       1044.8977      43.949116     -107.59021      11.45062       17.686416      17.687249      17.686664      5532.814     
       112   0             -2181.2106      1072.8587      1084.1919      1089.0805      1045.3037      43.837035     -107.85599      11.486288      17.686416      17.687249      17.686664      5532.814     
       113   0             -2181.2106      1071.9377      1083.2524      1088.3218      1044.2389      43.36261      -107.86941      11.516274      17.686416      17.687249      17.686664      5532.814     
       114   0             -2181.2106      1072.0872      1083.4981      1088.4545      1044.3092      43.647639     -107.71455      11.595781      17.686416      17.687249      17.686664      5532.814     
       115   0             -2181.2106      1072.1409      1083.5674      1088.5389      1044.3164      43.750234     -107.70027      11.654469      17.686416      17.687249      17.686664      5532.814     
       116   0             -2181.2106      1071.8782      1083.2932      1088.2799      1044.0615      43.697023     -107.7268       11.643299      17.686416      17.687249      17.686664      5532.814     
       117   0             -2181.2106      1071.9737      1083.3548      1088.3701      1044.1963      43.694698     -107.70664      11.630098      17.686416      17.687249      17.686664      5532.814     
       118   0             -2181.2106      1071.9838      1083.3278      1088.3767      1044.2469      43.72212      -107.70022      11.606551      17.686416      17.687249      17.686664      5532.814     
       119   0             -2181.2106      1071.9273      1083.2684      1088.327       1044.1864      43.705125     -107.69892      11.604698      17.686416      17.687249      17.686664      5532.814     
       120   0             -2181.2106      1071.9585      1083.3055      1088.3607      1044.2092      43.673507     -107.71881      11.60601       17.686416      17.687249      17.686664      5532.814     
       121   0             -2181.2106      1071.9953      1083.3393      1088.4042      1044.2426      43.687392     -107.71196      11.601676      17.686416      17.687249      17.686664      5532.814     
       122   0             -2181.2106      1071.975       1083.3161      1088.3867      1044.2223      43.697779     -107.70776      11.596897      17.686416      17.687249      17.686664      5532.814     
       123   0             -2181.2106      1071.962       1083.305       1088.3729      1044.2082      43.6967       -107.71176      11.597141      17.686416      17.687249      17.686664      5532.814     
       124   0             -2181.2106      1071.9633      1083.3055      1088.3746      1044.2099      43.697839     -107.7143       11.598386      17.686416      17.687249      17.686664      5532.814     
       125   0             -2181.2106      1071.9639      1083.3049      1088.3765      1044.2104      43.696619     -107.71347      11.597322      17.686416      17.687249      17.686664      5532.814     
       126   0             -2181.2106      1071.9663      1083.3082      1088.3782      1044.2124      43.696222     -107.71184      11.596492      17.686416      17.687249      17.686664      5532.814     
       127   0             -2181.2106      1071.9686      1083.3114      1088.3802      1044.2142      43.696184     -107.71099      11.597571      17.686416      17.687249      17.686664      5532.814     
       128   0             -2181.2106      1071.9668      1083.3091      1088.3789      1044.2125      43.69594      -107.71099      11.597317      17.686416      17.687249      17.686664      5532.814     
       129   0             -2181.2106      1071.967       1083.309       1088.3794      1044.2127      43.695807     -107.71125      11.596984      17.686416      17.687249      17.686664      5532.814     
       130   0             -2181.2106      1071.9677      1083.3099      1088.38        1044.2131      43.695745     -107.71137      11.597121      17.686416      17.687249      17.686664      5532.814     
       131   0             -2181.2106      1071.9674      1083.3097      1088.3797      1044.2127      43.695596     -107.71136      11.597322      17.686416      17.687249      17.686664      5532.814     
       132   0             -2181.2106      1071.9675      1083.3099      1088.38        1044.2126      43.695657     -107.7113       11.597371      17.686416      17.687249      17.686664      5532.814     
       133   0             -2181.2106      1071.9675      1083.3099      1088.3801      1044.2126      43.695741     -107.71125      11.59728       17.686416      17.687249      17.686664      5532.814     
       134   0             -2181.2106      1071.9675      1083.3098      1088.3799      1044.2126      43.695747     -107.71129      11.597209      17.686416      17.687249      17.686664      5532.814     
       135   0             -2181.2106      1071.9676      1083.31        1088.3801      1044.2128      43.695727     -107.71126      11.597186      17.686416      17.687249      17.686664      5532.814     
       136   0             -2181.2106      1071.9676      1083.31        1088.3801      1044.2128      43.695742     -107.71126      11.597221      17.686416      17.687249      17.686664      5532.814     
       137   0             -2181.2106      1071.9676      1083.31        1088.3801      1044.2128      43.695726     -107.71128      11.59724       17.686416      17.687249      17.686664      5532.814     
       138   0             -2181.2106      1071.9676      1083.31        1088.3801      1044.2128      43.695724     -107.71127      11.597254      17.686416      17.687249      17.686664      5532.814     
       139   0             -2181.2106      1071.9676      1083.31        1088.3801      1044.2128      43.695735     -107.71127      11.597251      17.686416      17.687249      17.686664      5532.814     
       140   0             -2181.2106      1071.9676      1083.31        1088.3801      1044.2128      43.695738     -107.71127      11.597254      17.686416      17.687249      17.686664      5532.814     
       141   0             -2181.2106      1071.9676      1083.31        1088.3801      1044.2128      43.695736     -107.71127      11.597256      17.686416      17.687249      17.686664      5532.814     
       142   0             -2181.2106      1071.9676      1083.31        1088.3801      1044.2128      43.695735     -107.71128      11.597254      17.686416      17.687249      17.686664      5532.814     
       143   0             -2181.2106      1071.9676      1083.31        1088.3801      1044.2128      43.695734     -107.71128      11.597255      17.686416      17.687249      17.686664      5532.814     
       144   0             -2181.2106      1071.9676      1083.31        1088.3801      1044.2128      43.695734     -107.71127      11.597257      17.686416      17.687249      17.686664      5532.814     
       145   0             -2181.2106      1071.9676      1083.31        1088.3801      1044.2128      43.695735     -107.71128      11.597257      17.686416      17.687249      17.686664      5532.814     
       146   0             -2181.2106      1071.9676      1083.31        1088.3801      1044.2128      43.695735     -107.71128      11.597256      17.686416      17.687249      17.686664      5532.814     
       147   0             -2181.2106      1071.9676      1083.31        1088.3801      1044.2128      43.695735     -107.71128      11.597256      17.686416      17.687249      17.686664      5532.814     
       148   0             -2181.2106      1071.9676      1083.31        1088.3801      1044.2128      43.695735     -107.71128      11.597256      17.686416      17.687249      17.686664      5532.814     
       149   0             -2181.2106      1071.9676      1083.31        1088.3801      1044.2128      43.695735     -107.71128      11.597256      17.686416      17.687249      17.686664      5532.814     
       150   0             -2181.2106      1071.9676      1083.31        1088.3801      1044.2128      43.695735     -107.71128      11.597256      17.686416      17.687249      17.686664      5532.814     
       151   0             -2181.2106      1071.9676      1083.31        1088.3801      1044.2128      43.695735     -107.71128      11.597256      17.686416      17.687249      17.686664      5532.814     
       152   0             -2181.2106      1071.9676      1083.31        1088.3801      1044.2128      43.695735     -107.71128      11.597256      17.686416      17.687249      17.686664      5532.814     
       153   0             -2181.2106      1071.9676      1083.31        1088.3801      1044.2128      43.695735     -107.71128      11.597256      17.686416      17.687249      17.686664      5532.814     
       154   0             -2181.2106      1071.9676      1083.31        1088.3801      1044.2128      43.695735     -107.71128      11.597256      17.686416      17.687249      17.686664      5532.814     
       155   0             -2181.2106      1071.9676      1083.31        1088.3801      1044.2128      43.695735     -107.71128      11.597256      17.686416      17.687249      17.686664      5532.814     
       156   0             -2181.2106      1071.9676      1083.31        1088.3801      1044.2128      43.695735     -107.71128      11.597256      17.686416      17.687249      17.686664      5532.814     
       157   0             -2181.2106      1071.9676      1083.31        1088.3801      1044.2128      43.695735     -107.71128      11.597256      17.686416      17.687249      17.686664      5532.814     
       158   0             -2181.2106      1071.9676      1083.31        1088.3801      1044.2128      43.695735     -107.71128      11.597256      17.686416      17.687249      17.686664      5532.814     
       159   0             -2181.2106      1071.9676      1083.31        1088.3801      1044.2128      43.695735     -107.71128      11.597256      17.686416      17.687249      17.686664      5532.814     
       160   0             -2181.2106      1071.9676      1083.31        1088.3801      1044.2128      43.695735     -107.71128      11.597256      17.686416      17.687249      17.686664      5532.814     
Loop time of 0.139048 on 1 procs for 60 steps with 500 atoms

101.1% CPU use with 1 MPI tasks x 1 OpenMP threads

Minimization stats:
  Stopping criterion = force tolerance
  Energy initial, next-to-last, final = 
      -2180.9892301873  -2181.21062106953  -2181.21062106952
  Force two-norm initial, final = 1.9485534 6.8477511e-11
  Force max component initial, final = 0.16264991 5.8384504e-12
  Final line search alpha, max atom move = 1 5.8384504e-12
  Iterations, force evaluations = 60 118

MPI task timing breakdown:
Section |  min time  |  avg time  |  max time  |%varavg| %total
---------------------------------------------------------------
Pair    | 0.13645    | 0.13645    | 0.13645    |   0.0 | 98.13
Neigh   | 0          | 0          | 0          |   0.0 |  0.00
Comm    | 0.000703   | 0.000703   | 0.000703   |   0.0 |  0.51
Output  | 0.000927   | 0.000927   | 0.000927   |   0.0 |  0.67
Modify  | 0          | 0          | 0          |   0.0 |  0.00
Other   |            | 0.000965   |            |       |  0.69

Nlocal:            500 ave         500 max         500 min
Histogram: 1 0 0 0 0 0 0 0 0 0
Nghost:           1956 ave        1956 max        1956 min
Histogram: 1 0 0 0 0 0 0 0 0 0
Neighs:          33500 ave       33500 max       33500 min
Histogram: 1 0 0 0 0 0 0 0 0 0

Total # of neighbors = 33500
Ave neighs/atom = 67
Neighbor list builds = 0
Dangerous builds = 0
OMP_NUM_THREADS environment is not set. Defaulting to 1 thread. (src/comm.cpp:98)
  using 1 OpenMP thread(s) per MPI task
Loaded 1 plugins from F:\Lammps\LAMMPS 64-bit 2Aug2023\plugins

The 'box' command has been removed and will be ignored

Reading restart file ...
  restart file = 2 Aug 2023, LAMMPS = 2 Aug 2023
  restoring atom style atomic from restart
  triclinic box = (0.051783161 0.051375285 0.051667827) to (17.738217 17.738625 17.738332) with tilt (0 0 0)
  1 by 1 by 1 MPI processor grid
  pair style eam/alloy stores no restart info
  500 atoms
  read_restart CPU = 0.000 seconds
Changing box ...
  triclinic box = (0.051783161 0.051375285 0.051667827) to (17.738235 17.738625 17.738332) with tilt (0 0 0)
  triclinic box = (0.051783161 0.051375285 0.051667827) to (17.738235 17.738625 17.738332) with tilt (0 0 0)
  triclinic box = (0.051783161 0.051375285 0.051667827) to (17.738235 17.738625 17.738332) with tilt (0 0 0)
Neighbor list info ...
  update: every = 1 steps, delay = 0 steps, check = yes
  max neighbors/atom: 2000, page size: 100000
  master list distance cutoff = 6.80375
  ghost atom cutoff = 6.80375
  1 neighbor lists, perpetual/occasional/extra = 1 0 0
  (1) pair eam/alloy, perpetual
      attributes: half, newton on
      pair build: half/nsq/newton
      stencil: none
      bin: none
Setting up cg style minimization ...
  Unit style    : metal
  Current step  : 100
Per MPI rank memory allocation (min/avg/max) = 4.482 | 4.482 | 4.482 Mbytes
   Step          Temp          PotEng         Press           Pxx            Pyy            Pzz            Pxy            Pxz            Pyz             Lx             Ly             Lz           Volume    
       100   0             -2180.9892     -199.89945     -199.59909     -200.45879     -199.64047     -45.410898     -81.056038     -3.4335989      17.686451      17.687249      17.686664      5532.8251    
       101   0             -2181.1462      710.18217      734.32247      694.80139      701.42265      8.7192853     -92.151962      7.0322979      17.686451      17.687249      17.686664      5532.8251    
       102   0             -2181.1974      1146.3174      1172.9176      1146.1354      1119.8994      34.851931     -102.58081      7.7680292      17.686451      17.687249      17.686664      5532.8251    
       103   0             -2181.206       1115.7137      1137.5285      1117.2929      1092.3199      39.338631     -106.64868      22.983946      17.686451      17.687249      17.686664      5532.8251    
       104   0             -2181.2088      1020.1082      1035.5294      1029.1788      995.6164       40.694753     -107.94382      18.685575      17.686451      17.687249      17.686664      5532.8251    
       105   0             -2181.21        1076.7631      1089.6034      1089.78        1050.906       45.335872     -111.6902       9.8873374      17.686451      17.687249      17.686664      5532.8251    
       106   0             -2181.2104      1079.8889      1091.3037      1093.6274      1054.7357      44.505465     -110.61771      10.642376      17.686451      17.687249      17.686664      5532.8251    
       107   0             -2181.2105      1062.3596      1072.9454      1077.702       1036.4313      43.626425     -107.66177      11.223364      17.686451      17.687249      17.686664      5532.8251    
       108   0             -2181.2106      1068.3123      1079.7641      1083.4785      1041.6942      43.833349     -107.45539      11.682494      17.686451      17.687249      17.686664      5532.8251    
       109   0             -2181.2106      1070.4984      1081.9362      1085.6494      1043.9097      43.087225     -107.45242      11.998528      17.686451      17.687249      17.686664      5532.8251    
       110   0             -2181.2106      1067.0219      1077.407       1082.903       1040.7558      42.96422      -107.31055      11.489917      17.686451      17.687249      17.686664      5532.8251    
       111   0             -2181.2106      1068.4449      1078.4244      1085.0858      1041.8245      43.942511     -107.58024      11.449441      17.686451      17.687249      17.686664      5532.8251    
       112   0             -2181.2106      1069.1762      1079.2893      1086.0106      1042.2287      43.830063     -107.84614      11.484975      17.686451      17.687249      17.686664      5532.8251    
       113   0             -2181.2106      1068.2555      1078.35        1085.2522      1041.1642      43.35578      -107.85952      11.514898      17.686451      17.687249      17.686664      5532.8251    
       114   0             -2181.2106      1068.4058      1078.5965      1085.3856      1041.2352      43.640908     -107.70463      11.594505      17.686451      17.687249      17.686664      5532.8251    
       115   0             -2181.2106      1068.4589      1078.6653      1085.4696      1041.242       43.743374     -107.69037      11.653188      17.686451      17.687249      17.686664      5532.8251    
       116   0             -2181.2106      1068.1962      1078.391       1085.2105      1040.9871      43.690176     -107.71689      11.642006      17.686451      17.687249      17.686664      5532.8251    
       117   0             -2181.2106      1068.2919      1078.4528      1085.3008      1041.1221      43.687886     -107.69674      11.628806      17.686451      17.687249      17.686664      5532.8251    
       118   0             -2181.2106      1068.3018      1078.4257      1085.3073      1041.1725      43.715292     -107.69031      11.605255      17.686451      17.687249      17.686664      5532.8251    
       119   0             -2181.2106      1068.2453      1078.3663      1085.2576      1041.112       43.698293     -107.68901      11.603402      17.686451      17.687249      17.686664      5532.8251    
       120   0             -2181.2106      1068.2766      1078.4034      1085.2914      1041.1349      43.666682     -107.7089       11.604721      17.686451      17.687249      17.686664      5532.8251    
       121   0             -2181.2106      1068.3134      1078.4372      1085.3349      1041.1682      43.680562     -107.70205      11.600383      17.686451      17.687249      17.686664      5532.8251    
       122   0             -2181.2106      1068.2931      1078.4141      1085.3173      1041.148       43.690945     -107.69785      11.595603      17.686451      17.687249      17.686664      5532.8251    
       123   0             -2181.2106      1068.2801      1078.4029      1085.3035      1041.1338      43.68987      -107.70186      11.595849      17.686451      17.687249      17.686664      5532.8251    
       124   0             -2181.2106      1068.2814      1078.4034      1085.3052      1041.1356      43.691008     -107.70439      11.597094      17.686451      17.687249      17.686664      5532.8251    
       125   0             -2181.2106      1068.282       1078.4028      1085.3072      1041.136       43.689787     -107.70356      11.596029      17.686451      17.687249      17.686664      5532.8251    
       126   0             -2181.2106      1068.2843      1078.4062      1085.3088      1041.138       43.689391     -107.70193      11.5952        17.686451      17.687249      17.686664      5532.8251    
       127   0             -2181.2106      1068.2867      1078.4093      1085.3108      1041.1399      43.689353     -107.70108      11.596278      17.686451      17.687249      17.686664      5532.8251    
       128   0             -2181.2106      1068.2849      1078.407       1085.3095      1041.1382      43.689109     -107.70108      11.596024      17.686451      17.687249      17.686664      5532.8251    
       129   0             -2181.2106      1068.2851      1078.4069      1085.31        1041.1383      43.688975     -107.70134      11.595692      17.686451      17.687249      17.686664      5532.8251    
       130   0             -2181.2106      1068.2857      1078.4078      1085.3107      1041.1388      43.688913     -107.70147      11.595829      17.686451      17.687249      17.686664      5532.8251    
       131   0             -2181.2106      1068.2855      1078.4077      1085.3104      1041.1384      43.688765     -107.70145      11.59603       17.686451      17.687249      17.686664      5532.8251    
       132   0             -2181.2106      1068.2856      1078.4078      1085.3107      1041.1382      43.688825     -107.7014       11.596079      17.686451      17.687249      17.686664      5532.8251    
       133   0             -2181.2106      1068.2856      1078.4078      1085.3107      1041.1383      43.68891      -107.70135      11.595988      17.686451      17.687249      17.686664      5532.8251    
       134   0             -2181.2106      1068.2855      1078.4077      1085.3106      1041.1383      43.688916     -107.70139      11.595917      17.686451      17.687249      17.686664      5532.8251    
       135   0             -2181.2106      1068.2857      1078.4079      1085.3108      1041.1384      43.688896     -107.70135      11.595894      17.686451      17.687249      17.686664      5532.8251    
       136   0             -2181.2106      1068.2857      1078.4079      1085.3108      1041.1384      43.68891      -107.70136      11.595929      17.686451      17.687249      17.686664      5532.8251    
       137   0             -2181.2106      1068.2857      1078.4079      1085.3107      1041.1385      43.688895     -107.70138      11.595948      17.686451      17.687249      17.686664      5532.8251    
       138   0             -2181.2106      1068.2857      1078.4079      1085.3107      1041.1384      43.688893     -107.70137      11.595962      17.686451      17.687249      17.686664      5532.8251    
       139   0             -2181.2106      1068.2857      1078.4079      1085.3107      1041.1385      43.688903     -107.70137      11.595959      17.686451      17.687249      17.686664      5532.8251    
       140   0             -2181.2106      1068.2857      1078.4079      1085.3108      1041.1385      43.688907     -107.70137      11.595962      17.686451      17.687249      17.686664      5532.8251    
       141   0             -2181.2106      1068.2857      1078.4079      1085.3108      1041.1385      43.688905     -107.70137      11.595964      17.686451      17.687249      17.686664      5532.8251    
       142   0             -2181.2106      1068.2857      1078.4079      1085.3108      1041.1385      43.688903     -107.70137      11.595962      17.686451      17.687249      17.686664      5532.8251    
       143   0             -2181.2106      1068.2857      1078.4079      1085.3108      1041.1385      43.688903     -107.70137      11.595963      17.686451      17.687249      17.686664      5532.8251    
       144   0             -2181.2106      1068.2857      1078.4079      1085.3108      1041.1385      43.688903     -107.70137      11.595965      17.686451      17.687249      17.686664      5532.8251    
       145   0             -2181.2106      1068.2857      1078.4079      1085.3108      1041.1385      43.688904     -107.70137      11.595965      17.686451      17.687249      17.686664      5532.8251    
       146   0             -2181.2106      1068.2857      1078.4079      1085.3108      1041.1385      43.688904     -107.70137      11.595964      17.686451      17.687249      17.686664      5532.8251    
       147   0             -2181.2106      1068.2857      1078.4079      1085.3108      1041.1385      43.688904     -107.70137      11.595964      17.686451      17.687249      17.686664      5532.8251    
       148   0             -2181.2106      1068.2857      1078.4079      1085.3108      1041.1385      43.688903     -107.70137      11.595964      17.686451      17.687249      17.686664      5532.8251    
       149   0             -2181.2106      1068.2857      1078.4079      1085.3108      1041.1385      43.688904     -107.70137      11.595964      17.686451      17.687249      17.686664      5532.8251    
       150   0             -2181.2106      1068.2857      1078.4079      1085.3108      1041.1385      43.688904     -107.70137      11.595964      17.686451      17.687249      17.686664      5532.8251    
       151   0             -2181.2106      1068.2857      1078.4079      1085.3108      1041.1385      43.688904     -107.70137      11.595964      17.686451      17.687249      17.686664      5532.8251    
       152   0             -2181.2106      1068.2857      1078.4079      1085.3108      1041.1385      43.688904     -107.70137      11.595964      17.686451      17.687249      17.686664      5532.8251    
       153   0             -2181.2106      1068.2857      1078.4079      1085.3108      1041.1385      43.688904     -107.70137      11.595964      17.686451      17.687249      17.686664      5532.8251    
       154   0             -2181.2106      1068.2857      1078.4079      1085.3108      1041.1385      43.688904     -107.70137      11.595964      17.686451      17.687249      17.686664      5532.8251    
       155   0             -2181.2106      1068.2857      1078.4079      1085.3108      1041.1385      43.688904     -107.70137      11.595964      17.686451      17.687249      17.686664      5532.8251    
       156   0             -2181.2106      1068.2857      1078.4079      1085.3108      1041.1385      43.688904     -107.70137      11.595964      17.686451      17.687249      17.686664      5532.8251    
       157   0             -2181.2106      1068.2857      1078.4079      1085.3108      1041.1385      43.688904     -107.70137      11.595964      17.686451      17.687249      17.686664      5532.8251    
       158   0             -2181.2106      1068.2857      1078.4079      1085.3108      1041.1385      43.688904     -107.70137      11.595964      17.686451      17.687249      17.686664      5532.8251    
       159   0             -2181.2106      1068.2857      1078.4079      1085.3108      1041.1385      43.688904     -107.70137      11.595964      17.686451      17.687249      17.686664      5532.8251    
       160   0             -2181.2106      1068.2857      1078.4079      1085.3108      1041.1385      43.688904     -107.70137      11.595964      17.686451      17.687249      17.686664      5532.8251    
Loop time of 0.145667 on 1 procs for 60 steps with 500 atoms

96.5% CPU use with 1 MPI tasks x 1 OpenMP threads

Minimization stats:
  Stopping criterion = force tolerance
  Energy initial, next-to-last, final = 
     -2180.98922882592  -2181.21062853463  -2181.21062853463
  Force two-norm initial, final = 1.9486027 6.8473311e-11
  Force max component initial, final = 0.16265625 5.8298076e-12
  Final line search alpha, max atom move = 1 5.8298076e-12
  Iterations, force evaluations = 60 118

MPI task timing breakdown:
Section |  min time  |  avg time  |  max time  |%varavg| %total
---------------------------------------------------------------
Pair    | 0.14288    | 0.14288    | 0.14288    |   0.0 | 98.09
Neigh   | 0          | 0          | 0          |   0.0 |  0.00
Comm    | 0.000712   | 0.000712   | 0.000712   |   0.0 |  0.49
Output  | 0.000997   | 0.000997   | 0.000997   |   0.0 |  0.68
Modify  | 0          | 0          | 0          |   0.0 |  0.00
Other   |            | 0.001078   |            |       |  0.74

Nlocal:            500 ave         500 max         500 min
Histogram: 1 0 0 0 0 0 0 0 0 0
Nghost:           1956 ave        1956 max        1956 min
Histogram: 1 0 0 0 0 0 0 0 0 0
Neighs:          33500 ave       33500 max       33500 min
Histogram: 1 0 0 0 0 0 0 0 0 0

Total # of neighbors = 33500
Ave neighs/atom = 67
Neighbor list builds = 0
Dangerous builds = 0
OMP_NUM_THREADS environment is not set. Defaulting to 1 thread. (src/comm.cpp:98)
  using 1 OpenMP thread(s) per MPI task
Loaded 1 plugins from F:\Lammps\LAMMPS 64-bit 2Aug2023\plugins

The 'box' command has been removed and will be ignored

Reading restart file ...
  restart file = 2 Aug 2023, LAMMPS = 2 Aug 2023
  restoring atom style atomic from restart
  triclinic box = (0.051783161 0.051375285 0.051667827) to (17.738217 17.738625 17.738332) with tilt (0 0 0)
  1 by 1 by 1 MPI processor grid
  pair style eam/alloy stores no restart info
  500 atoms
  read_restart CPU = 0.000 seconds
Changing box ...
  triclinic box = (0.051783161 0.051375285 0.051667827) to (17.738217 17.738607 17.738332) with tilt (0 0 0)
  triclinic box = (0.051783161 0.051375285 0.051667827) to (17.738217 17.738607 17.738332) with tilt (0 0 0)
Neighbor list info ...
  update: every = 1 steps, delay = 0 steps, check = yes
  max neighbors/atom: 2000, page size: 100000
  master list distance cutoff = 6.80375
  ghost atom cutoff = 6.80375
  1 neighbor lists, perpetual/occasional/extra = 1 0 0
  (1) pair eam/alloy, perpetual
      attributes: half, newton on
      pair build: half/nsq/newton
      stencil: none
      bin: none
Setting up cg style minimization ...
  Unit style    : metal
  Current step  : 100
Per MPI rank memory allocation (min/avg/max) = 4.482 | 4.482 | 4.482 Mbytes
   Step          Temp          PotEng         Press           Pxx            Pyy            Pzz            Pxy            Pxz            Pyz             Lx             Ly             Lz           Volume    
       100   0             -2180.9892     -196.16908     -195.55834     -196.42814     -196.52076     -45.407721     -81.061447     -3.4326298      17.686434      17.687232      17.686664      5532.814     
       101   0             -2181.1462      713.8958       738.3469       698.81245      704.52805      8.7258606     -92.157566      7.0335701      17.686434      17.687232      17.686664      5532.814     
       102   0             -2181.1974      1149.9773      1176.8856      1150.0942      1122.9521      34.856678     -102.58558      7.768779       17.686434      17.687232      17.686664      5532.814     
       103   0             -2181.206       1119.4195      1141.5448      1121.2952      1095.4185      39.347683     -106.65449      22.985375      17.686434      17.687232      17.686664      5532.814     
       104   0             -2181.2088      1023.7895      1039.5199      1033.1567      998.69188      40.701977     -107.94944      18.687535      17.686434      17.687232      17.686664      5532.814     
       105   0             -2181.21        1080.4285      1093.5777      1093.7427      1053.9652      45.342097     -111.69561      9.8887968      17.686434      17.687232      17.686664      5532.814     
       106   0             -2181.2104      1083.5671      1095.2917      1097.602       1057.8074      44.512863     -110.62342      10.644036      17.686434      17.687232      17.686664      5532.814     
       107   0             -2181.2105      1066.0373      1076.9328      1081.6762      1039.503       43.633587     -107.66723      11.225369      17.686434      17.687232      17.686664      5532.814     
       108   0             -2181.2105      1071.9866      1083.748       1087.4493      1044.7624      43.840012     -107.4608       11.684365      17.686434      17.687232      17.686664      5532.814     
       109   0             -2181.2106      1074.175       1085.9227      1089.6223      1046.9801      43.094383     -107.45788      12.000388      17.686434      17.687232      17.686664      5532.814     
       110   0             -2181.2106      1070.6978      1081.3927      1086.8751      1043.8257      42.971195     -107.31605      11.49174       17.686434      17.687232      17.686664      5532.814     
       111   0             -2181.2106      1072.1198      1082.4091      1089.0571      1044.8933      43.949276     -107.58574      11.451214      17.686434      17.687232      17.686664      5532.814     
       112   0             -2181.2106      1072.8524      1083.2754      1089.983       1045.2988      43.837103     -107.85157      11.486859      17.686434      17.687232      17.686664      5532.814     
       113   0             -2181.2106      1071.9315      1082.336       1089.2244      1044.2341      43.362708     -107.86498      11.51684       17.686434      17.687232      17.686664      5532.814     
       114   0             -2181.2106      1072.0812      1082.5818      1089.3572      1044.3045      43.64776      -107.71011      11.596361      17.686434      17.687232      17.686664      5532.814     
       115   0             -2181.2106      1072.1348      1082.651       1089.4416      1044.3116      43.750328     -107.69583      11.65505       17.686434      17.687232      17.686664      5532.814     
       116   0             -2181.2106      1071.872       1082.3768      1089.1826      1044.0567      43.697119     -107.72236      11.64388       17.686434      17.687232      17.686664      5532.814     
       117   0             -2181.2106      1071.9676      1082.4384      1089.2728      1044.1916      43.694801     -107.70221      11.630677      17.686434      17.687232      17.686664      5532.814     
       118   0             -2181.2106      1071.9777      1082.4114      1089.2794      1044.2421      43.72222      -107.69578      11.607128      17.686434      17.687232      17.686664      5532.814     
       119   0             -2181.2106      1071.9211      1082.352       1089.2297      1044.1817      43.705224     -107.69448      11.605279      17.686434      17.687232      17.686664      5532.814     
       120   0             -2181.2106      1071.9523      1082.3891      1089.2634      1044.2045      43.673608     -107.71437      11.606588      17.686434      17.687232      17.686664      5532.814     
       121   0             -2181.2106      1071.9892      1082.4229      1089.3069      1044.2378      43.687491     -107.70753      11.602253      17.686434      17.687232      17.686664      5532.814     
       122   0             -2181.2106      1071.9689      1082.3998      1089.2894      1044.2176      43.697877     -107.70332      11.597474      17.686434      17.687232      17.686664      5532.814     
       123   0             -2181.2106      1071.9559      1082.3886      1089.2756      1044.2034      43.6968       -107.70733      11.597718      17.686434      17.687232      17.686664      5532.814     
       124   0             -2181.2106      1071.9572      1082.3891      1089.2773      1044.2052      43.697938     -107.70987      11.598963      17.686434      17.687232      17.686664      5532.814     
       125   0             -2181.2106      1071.9578      1082.3885      1089.2792      1044.2057      43.696718     -107.70903      11.597899      17.686434      17.687232      17.686664      5532.814     
       126   0             -2181.2106      1071.9601      1082.3919      1089.2809      1044.2077      43.69632      -107.7074       11.59707       17.686434      17.687232      17.686664      5532.814     
       127   0             -2181.2106      1071.9625      1082.395       1089.2829      1044.2095      43.696283     -107.70656      11.598148      17.686434      17.687232      17.686664      5532.814     
       128   0             -2181.2106      1071.9607      1082.3927      1089.2816      1044.2078      43.696039     -107.70656      11.597894      17.686434      17.687232      17.686664      5532.814     
       129   0             -2181.2106      1071.9609      1082.3926      1089.2821      1044.2079      43.695906     -107.70682      11.597561      17.686434      17.687232      17.686664      5532.814     
       130   0             -2181.2106      1071.9615      1082.3935      1089.2827      1044.2084      43.695843     -107.70694      11.597699      17.686434      17.687232      17.686664      5532.814     
       131   0             -2181.2106      1071.9612      1082.3934      1089.2824      1044.208       43.695695     -107.70692      11.5979        17.686434      17.687232      17.686664      5532.814     
       132   0             -2181.2106      1071.9614      1082.3935      1089.2827      1044.2079      43.695756     -107.70687      11.597949      17.686434      17.687232      17.686664      5532.814     
       133   0             -2181.2106      1071.9614      1082.3935      1089.2828      1044.2079      43.69584      -107.70682      11.597858      17.686434      17.687232      17.686664      5532.814     
       134   0             -2181.2106      1071.9613      1082.3934      1089.2827      1044.2079      43.695846     -107.70686      11.597787      17.686434      17.687232      17.686664      5532.814     
       135   0             -2181.2106      1071.9615      1082.3936      1089.2828      1044.208       43.695826     -107.70682      11.597764      17.686434      17.687232      17.686664      5532.814     
       136   0             -2181.2106      1071.9615      1082.3936      1089.2828      1044.2081      43.69584      -107.70683      11.597798      17.686434      17.687232      17.686664      5532.814     
       137   0             -2181.2106      1071.9615      1082.3936      1089.2828      1044.2081      43.695825     -107.70685      11.597817      17.686434      17.687232      17.686664      5532.814     
       138   0             -2181.2106      1071.9615      1082.3936      1089.2828      1044.2081      43.695823     -107.70684      11.597832      17.686434      17.687232      17.686664      5532.814     
       139   0             -2181.2106      1071.9615      1082.3936      1089.2828      1044.2081      43.695833     -107.70684      11.597829      17.686434      17.687232      17.686664      5532.814     
       140   0             -2181.2106      1071.9615      1082.3936      1089.2828      1044.2081      43.695837     -107.70684      11.597831      17.686434      17.687232      17.686664      5532.814     
       141   0             -2181.2106      1071.9615      1082.3936      1089.2828      1044.2081      43.695835     -107.70684      11.597833      17.686434      17.687232      17.686664      5532.814     
       142   0             -2181.2106      1071.9615      1082.3936      1089.2828      1044.2081      43.695833     -107.70684      11.597832      17.686434      17.687232      17.686664      5532.814     
       143   0             -2181.2106      1071.9615      1082.3936      1089.2828      1044.2081      43.695833     -107.70684      11.597832      17.686434      17.687232      17.686664      5532.814     
       144   0             -2181.2106      1071.9615      1082.3936      1089.2828      1044.2081      43.695833     -107.70684      11.597834      17.686434      17.687232      17.686664      5532.814     
       145   0             -2181.2106      1071.9615      1082.3936      1089.2828      1044.2081      43.695834     -107.70684      11.597834      17.686434      17.687232      17.686664      5532.814     
       146   0             -2181.2106      1071.9615      1082.3936      1089.2828      1044.2081      43.695834     -107.70684      11.597834      17.686434      17.687232      17.686664      5532.814     
       147   0             -2181.2106      1071.9615      1082.3936      1089.2828      1044.2081      43.695834     -107.70684      11.597833      17.686434      17.687232      17.686664      5532.814     
       148   0             -2181.2106      1071.9615      1082.3936      1089.2828      1044.2081      43.695834     -107.70684      11.597834      17.686434      17.687232      17.686664      5532.814     
       149   0             -2181.2106      1071.9615      1082.3936      1089.2828      1044.2081      43.695834     -107.70684      11.597833      17.686434      17.687232      17.686664      5532.814     
       150   0             -2181.2106      1071.9615      1082.3936      1089.2828      1044.2081      43.695834     -107.70684      11.597833      17.686434      17.687232      17.686664      5532.814     
       151   0             -2181.2106      1071.9615      1082.3936      1089.2828      1044.2081      43.695834     -107.70684      11.597833      17.686434      17.687232      17.686664      5532.814     
       152   0             -2181.2106      1071.9615      1082.3936      1089.2828      1044.2081      43.695834     -107.70684      11.597833      17.686434      17.687232      17.686664      5532.814     
       153   0             -2181.2106      1071.9615      1082.3936      1089.2828      1044.2081      43.695834     -107.70684      11.597833      17.686434      17.687232      17.686664      5532.814     
       154   0             -2181.2106      1071.9615      1082.3936      1089.2828      1044.2081      43.695834     -107.70684      11.597833      17.686434      17.687232      17.686664      5532.814     
       155   0             -2181.2106      1071.9615      1082.3936      1089.2828      1044.2081      43.695834     -107.70684      11.597833      17.686434      17.687232      17.686664      5532.814     
       156   0             -2181.2106      1071.9615      1082.3936      1089.2828      1044.2081      43.695834     -107.70684      11.597833      17.686434      17.687232      17.686664      5532.814     
       157   0             -2181.2106      1071.9615      1082.3936      1089.2828      1044.2081      43.695834     -107.70684      11.597833      17.686434      17.687232      17.686664      5532.814     
       158   0             -2181.2106      1071.9615      1082.3936      1089.2828      1044.2081      43.695834     -107.70684      11.597833      17.686434      17.687232      17.686664      5532.814     
       159   0             -2181.2106      1071.9615      1082.3936      1089.2828      1044.2081      43.695834     -107.70684      11.597833      17.686434      17.687232      17.686664      5532.814     
       160   0             -2181.2106      1071.9615      1082.3936      1089.2828      1044.2081      43.695834     -107.70684      11.597833      17.686434      17.687232      17.686664      5532.814     
Loop time of 0.14033 on 1 procs for 60 steps with 500 atoms

100.2% CPU use with 1 MPI tasks x 1 OpenMP threads

Minimization stats:
  Stopping criterion = force tolerance
  Energy initial, next-to-last, final = 
     -2180.98923019351  -2181.21062104886  -2181.21062104886
  Force two-norm initial, final = 1.9485543 6.8487896e-11
  Force max component initial, final = 0.16265169 5.8588718e-12
  Final line search alpha, max atom move = 1 5.8588718e-12
  Iterations, force evaluations = 60 118

MPI task timing breakdown:
Section |  min time  |  avg time  |  max time  |%varavg| %total
---------------------------------------------------------------
Pair    | 0.1378     | 0.1378     | 0.1378     |   0.0 | 98.19
Neigh   | 0          | 0          | 0          |   0.0 |  0.00
Comm    | 0.000712   | 0.000712   | 0.000712   |   0.0 |  0.51
Output  | 0.000891   | 0.000891   | 0.000891   |   0.0 |  0.63
Modify  | 0          | 0          | 0          |   0.0 |  0.00
Other   |            | 0.000931   |            |       |  0.66

Nlocal:            500 ave         500 max         500 min
Histogram: 1 0 0 0 0 0 0 0 0 0
Nghost:           1956 ave        1956 max        1956 min
Histogram: 1 0 0 0 0 0 0 0 0 0
Neighs:          33500 ave       33500 max       33500 min
Histogram: 1 0 0 0 0 0 0 0 0 0

Total # of neighbors = 33500
Ave neighs/atom = 67
Neighbor list builds = 0
Dangerous builds = 0
OMP_NUM_THREADS environment is not set. Defaulting to 1 thread. (src/comm.cpp:98)
  using 1 OpenMP thread(s) per MPI task
Loaded 1 plugins from F:\Lammps\LAMMPS 64-bit 2Aug2023\plugins

The 'box' command has been removed and will be ignored

Reading restart file ...
  restart file = 2 Aug 2023, LAMMPS = 2 Aug 2023
  restoring atom style atomic from restart
  triclinic box = (0.051783161 0.051375285 0.051667827) to (17.738217 17.738625 17.738332) with tilt (0 0 0)
  1 by 1 by 1 MPI processor grid
  pair style eam/alloy stores no restart info
  500 atoms
  read_restart CPU = 0.000 seconds
Changing box ...
  triclinic box = (0.051783161 0.051375285 0.051667827) to (17.738217 17.738642 17.738332) with tilt (0 0 0)
  triclinic box = (0.051783161 0.051375285 0.051667827) to (17.738217 17.738642 17.738332) with tilt (0 0 0)
Neighbor list info ...
  update: every = 1 steps, delay = 0 steps, check = yes
  max neighbors/atom: 2000, page size: 100000
  master list distance cutoff = 6.80375
  ghost atom cutoff = 6.80375
  1 neighbor lists, perpetual/occasional/extra = 1 0 0
  (1) pair eam/alloy, perpetual
      attributes: half, newton on
      pair build: half/nsq/newton
      stencil: none
      bin: none
Setting up cg style minimization ...
  Unit style    : metal
  Current step  : 100
Per MPI rank memory allocation (min/avg/max) = 4.482 | 4.482 | 4.482 Mbytes
   Step          Temp          PotEng         Press           Pxx            Pyy            Pzz            Pxy            Pxz            Pyz             Lx             Ly             Lz           Volume    
       100   0             -2180.9892     -199.89449     -198.67354     -201.37423     -199.63568     -45.410659     -81.057443     -3.4330876      17.686434      17.687267      17.686664      5532.8251    
       101   0             -2181.1462      710.19881      735.25368      693.90383      701.43891      8.7201419     -92.154995      7.0330448      17.686434      17.687267      17.686664      5532.8251    
       102   0             -2181.1974      1146.3163      1173.828       1145.2234      1119.8976      34.851582     -102.58474      7.7683322      17.686434      17.687267      17.686664      5532.8251    
       103   0             -2181.206       1115.7302      1138.4566      1116.3987      1092.3354      39.339351     -106.65338      22.983629      17.686434      17.687267      17.686664      5532.8251    
       104   0             -2181.2088      1020.1154      1036.4473      1028.2763      995.62256      40.694797     -107.94821      18.685239      17.686434      17.687267      17.686664      5532.8251    
       105   0             -2181.21        1076.7659      1090.5169      1088.8731      1050.9077      45.335525     -111.69491      9.8868408      17.686434      17.687267      17.686664      5532.8251    
       106   0             -2181.2104      1079.8959      1092.2213      1092.7249      1054.7415      44.505497     -110.62229      10.641803      17.686434      17.687267      17.686664      5532.8251    
       107   0             -2181.2105      1062.366       1073.8621      1076.7993      1036.4365      43.62629      -107.66616      11.222792      17.686434      17.687267      17.686664      5532.8251    
       108   0             -2181.2106      1068.3178      1080.6799      1082.5749      1041.6985      43.833159     -107.45979      11.681909      17.686434      17.687267      17.686664      5532.8251    
       109   0             -2181.2106      1070.5049      1082.853       1084.7469      1043.9148      43.087184     -107.45686      11.997977      17.686434      17.687267      17.686664      5532.8251    
       110   0             -2181.2106      1067.0281      1078.3234      1082.0003      1040.7607      42.964126     -107.31496      11.489363      17.686434      17.687267      17.686664      5532.8251    
       111   0             -2181.2106      1068.4507      1079.3404      1084.1828      1041.829       43.942351     -107.5847       11.448847      17.686434      17.687267      17.686664      5532.8251    
       112   0             -2181.2106      1069.1825      1080.2058      1085.108       1042.2336      43.829995     -107.85057      11.484404      17.686434      17.687267      17.686664      5532.8251    
       113   0             -2181.2106      1068.2617      1079.2665      1084.3496      1041.169       43.355682     -107.86396      11.514332      17.686434      17.687267      17.686664      5532.8251    
       114   0             -2181.2106      1068.4118      1079.5127      1084.4828      1041.2399      43.640787     -107.70906      11.593925      17.686434      17.687267      17.686664      5532.8251    
       115   0             -2181.2106      1068.4651      1079.5817      1084.5669      1041.2467      43.74328      -107.69481      11.652607      17.686434      17.687267      17.686664      5532.8251    
       116   0             -2181.2106      1068.2023      1079.3074      1084.3078      1040.9918      43.690081     -107.72133      11.641426      17.686434      17.687267      17.686664      5532.8251    
       117   0             -2181.2106      1068.298       1079.3692      1084.3981      1041.1268      43.687783     -107.70117      11.628226      17.686434      17.687267      17.686664      5532.8251    
       118   0             -2181.2106      1068.308       1079.3421      1084.4046      1041.1772      43.715192     -107.69475      11.604678      17.686434      17.687267      17.686664      5532.8251    
       119   0             -2181.2106      1068.2515      1079.2827      1084.3549      1041.1168      43.698194     -107.69345      11.602821      17.686434      17.687267      17.686664      5532.8251    
       120   0             -2181.2106      1068.2827      1079.3198      1084.3887      1041.1396      43.666581     -107.71333      11.604143      17.686434      17.687267      17.686664      5532.8251    
       121   0             -2181.2106      1068.3196      1079.3536      1084.4321      1041.173       43.680463     -107.70649      11.599805      17.686434      17.687267      17.686664      5532.8251    
       122   0             -2181.2106      1068.2993      1079.3304      1084.4146      1041.1527      43.690847     -107.70228      11.595024      17.686434      17.687267      17.686664      5532.8251    
       123   0             -2181.2106      1068.2862      1079.3193      1084.4008      1041.1386      43.689771     -107.70629      11.595272      17.686434      17.687267      17.686664      5532.8251    
       124   0             -2181.2106      1068.2875      1079.3198      1084.4025      1041.1403      43.690909     -107.70883      11.596515      17.686434      17.687267      17.686664      5532.8251    
       125   0             -2181.2106      1068.2882      1079.3192      1084.4045      1041.1408      43.689689     -107.70799      11.595452      17.686434      17.687267      17.686664      5532.8251    
       126   0             -2181.2106      1068.2905      1079.3225      1084.4061      1041.1428      43.689292     -107.70636      11.594622      17.686434      17.687267      17.686664      5532.8251    
       127   0             -2181.2106      1068.2928      1079.3257      1084.4081      1041.1446      43.689254     -107.70552      11.5957        17.686434      17.687267      17.686664      5532.8251    
       128   0             -2181.2106      1068.291       1079.3234      1084.4068      1041.1429      43.68901      -107.70552      11.595446      17.686434      17.687267      17.686664      5532.8251    
       129   0             -2181.2106      1068.2912      1079.3233      1084.4073      1041.1431      43.688877     -107.70577      11.595113      17.686434      17.687267      17.686664      5532.8251    
       130   0             -2181.2106      1068.2919      1079.3242      1084.408       1041.1435      43.688814     -107.7059       11.59525       17.686434      17.687267      17.686664      5532.8251    
       131   0             -2181.2106      1068.2916      1079.324       1084.4077      1041.1431      43.688666     -107.70588      11.595451      17.686434      17.687267      17.686664      5532.8251    
       132   0             -2181.2106      1068.2917      1079.3242      1084.408       1041.143       43.688727     -107.70583      11.5955        17.686434      17.687267      17.686664      5532.8251    
       133   0             -2181.2106      1068.2917      1079.3242      1084.408       1041.143       43.688811     -107.70578      11.595409      17.686434      17.687267      17.686664      5532.8251    
       134   0             -2181.2106      1068.2917      1079.3241      1084.4079      1041.143       43.688817     -107.70582      11.595338      17.686434      17.687267      17.686664      5532.8251    
       135   0             -2181.2106      1068.2918      1079.3243      1084.408       1041.1432      43.688797     -107.70578      11.595315      17.686434      17.687267      17.686664      5532.8251    
       136   0             -2181.2106      1068.2918      1079.3243      1084.4081      1041.1432      43.688811     -107.70579      11.59535       17.686434      17.687267      17.686664      5532.8251    
[...]
       153   0             -2181.2106      1070.1295      1080.8623      1086.8489      1042.6772      44.870876     -107.70549      11.597083      17.686434      17.687249      17.686664      5532.8195    
       154   0             -2181.2106      1070.1295      1080.8623      1086.8489      1042.6772      44.870876     -107.70549      11.597083      17.686434      17.687249      17.686664      5532.8195    
       155   0             -2181.2106      1070.1295      1080.8623      1086.8489      1042.6772      44.870876     -107.70549      11.597083      17.686434      17.687249      17.686664      5532.8195    
       156   0             -2181.2106      1070.1295      1080.8623      1086.8489      1042.6772      44.870876     -107.70549      11.597083      17.686434      17.687249      17.686664      5532.8195    
       157   0             -2181.2106      1070.1295      1080.8623      1086.8489      1042.6772      44.870876     -107.70549      11.597083      17.686434      17.687249      17.686664      5532.8195    
       158   0             -2181.2106      1070.1295      1080.8623      1086.8489      1042.6772      44.870876     -107.70549      11.597083      17.686434      17.687249      17.686664      5532.8195    
       159   0             -2181.2106      1070.1295      1080.8623      1086.8489      1042.6772      44.870876     -107.70549      11.597083      17.686434      17.687249      17.686664      5532.8195    
       160   0             -2181.2106      1070.1295      1080.8623      1086.8489      1042.6772      44.870876     -107.70549      11.597083      17.686434      17.687249      17.686664      5532.8195    
Loop time of 0.14284 on 1 procs for 60 steps with 500 atoms

109.4% CPU use with 1 MPI tasks x 1 OpenMP threads

Minimization stats:
  Stopping criterion = force tolerance
  Energy initial, next-to-last, final = 
     -2180.98922966565  -2181.21062465338  -2181.21062465338
  Force two-norm initial, final = 1.9485767 6.8467232e-11
  Force max component initial, final = 0.16265375 5.8392264e-12
  Final line search alpha, max atom move = 1 5.8392264e-12
  Iterations, force evaluations = 60 118

MPI task timing breakdown:
Section |  min time  |  avg time  |  max time  |%varavg| %total
---------------------------------------------------------------
Pair    | 0.14014    | 0.14014    | 0.14014    |   0.0 | 98.11
Neigh   | 0          | 0          | 0          |   0.0 |  0.00
Comm    | 0.000686   | 0.000686   | 0.000686   |   0.0 |  0.48
Output  | 0.001015   | 0.001015   | 0.001015   |   0.0 |  0.71
Modify  | 0          | 0          | 0          |   0.0 |  0.00
Other   |            | 0.000999   |            |       |  0.70

Nlocal:            500 ave         500 max         500 min
Histogram: 1 0 0 0 0 0 0 0 0 0
Nghost:           1956 ave        1956 max        1956 min
Histogram: 1 0 0 0 0 0 0 0 0 0
Neighs:          33500 ave       33500 max       33500 min
Histogram: 1 0 0 0 0 0 0 0 0 0

Total # of neighbors = 33500
Ave neighs/atom = 67
Neighbor list builds = 0
Dangerous builds = 0
OMP_NUM_THREADS environment is not set. Defaulting to 1 thread. (src/comm.cpp:98)
  using 1 OpenMP thread(s) per MPI task
Loaded 1 plugins from F:\Lammps\LAMMPS 64-bit 2Aug2023\plugins

The 'box' command has been removed and will be ignored

Reading restart file ...
  restart file = 2 Aug 2023, LAMMPS = 2 Aug 2023
  restoring atom style atomic from restart
  triclinic box = (0.051783161 0.051375285 0.051667827) to (17.738217 17.738625 17.738332) with tilt (0 0 0)
  1 by 1 by 1 MPI processor grid
  pair style eam/alloy stores no restart info
  500 atoms
  read_restart CPU = 0.000 seconds
Changing box ...
  triclinic box = (0.051783161 0.051375285 0.051667827) to (17.738217 17.738625 17.738332) with tilt (1.7687249e-05 0 0)
Neighbor list info ...
  update: every = 1 steps, delay = 0 steps, check = yes
  max neighbors/atom: 2000, page size: 100000
  master list distance cutoff = 6.80375
  ghost atom cutoff = 6.80375
  1 neighbor lists, perpetual/occasional/extra = 1 0 0
  (1) pair eam/alloy, perpetual
      attributes: half, newton on
      pair build: half/nsq/newton
      stencil: none
      bin: none
Setting up cg style minimization ...
  Unit style    : metal
  Current step  : 100
Per MPI rank memory allocation (min/avg/max) = 4.482 | 4.482 | 4.482 Mbytes
   Step          Temp          PotEng         Press           Pxx            Pyy            Pzz            Pxy            Pxz            Pyz             Lx             Ly             Lz           Volume    
       100   0             -2180.9892     -198.0334      -197.11774     -198.90265     -198.0798      -46.596873     -81.0597       -3.4329626      17.686434      17.687249      17.686664      5532.8195    
       101   0             -2181.1462      712.04949      736.80208      696.35977      702.98661      7.5424433     -92.156715      7.0330547      17.686434      17.687249      17.686664      5532.8195    
       102   0             -2181.1974      1148.1409      1175.35        1147.6524      1121.4202      33.675002     -102.58575      7.7677808      17.686434      17.687249      17.686664      5532.8195    
       103   0             -2181.206       1117.5739      1139.9993      1118.8453      1093.8772      38.165104     -106.65488      22.983921      17.686434      17.687249      17.686664      5532.8195    
       104   0             -2181.2088      1021.9498      1037.9804      1030.7132      997.1557       39.520295     -107.94969      18.686029      17.686434      17.687249      17.686664      5532.8195    
       105   0             -2181.21        1078.5938      1092.0433      1091.3038      1052.4343      44.159791     -111.69607      9.887411       17.686434      17.687249      17.686664      5532.8195    
       106   0             -2181.2104      1081.7293      1093.7538      1095.1605      1056.2734      43.330598     -110.62372      10.642479      17.686434      17.687249      17.686664      5532.8195    
       107   0             -2181.2105      1064.1988      1075.3941      1079.2341      1037.9681      42.451475     -107.66752      11.223628      17.686434      17.687249      17.686664      5532.8195    
       108   0             -2181.2105      1070.1491      1082.2104      1085.0083      1043.2285      42.657937     -107.46112      11.68266       17.686434      17.687249      17.686664      5532.8195    
       109   0             -2181.2106      1072.3374      1084.3847      1087.1813      1045.446       41.91228      -107.45821      11.998704      17.686434      17.687249      17.686664      5532.8195    
       110   0             -2181.2106      1068.8602      1079.8548      1084.4343      1042.2916      41.789159     -107.31634      11.490093      17.686434      17.687249      17.686664      5532.8195    
       111   0             -2181.2106      1070.2823      1080.8713      1086.6163      1043.3594      42.767235     -107.58607      11.449563      17.686434      17.687249      17.686664      5532.8195    
       112   0             -2181.2106      1071.0147      1081.7373      1087.542       1043.7646      42.655018     -107.85189      11.485161      17.686434      17.687249      17.686664      5532.8195    
       113   0             -2181.2106      1070.0938      1080.7979      1086.7835      1042.6999      42.180669     -107.86531      11.515116      17.686434      17.687249      17.686664      5532.8195    
       114   0             -2181.2106      1070.2436      1081.0439      1086.9165      1042.7705      42.465727     -107.71043      11.594669      17.686434      17.687249      17.686664      5532.8195    
       115   0             -2181.2106      1070.2971      1081.1131      1087.0007      1042.7775      42.568265     -107.69615      11.653354      17.686434      17.687249      17.686664      5532.8195    
       116   0             -2181.2106      1070.0344      1080.8388      1086.7417      1042.5227      42.515051     -107.72268      11.64218       17.686434      17.687249      17.686664      5532.8195    
       117   0             -2181.2106      1070.13        1080.9004      1086.8319      1042.6576      42.512733     -107.70253      11.628978      17.686434      17.687249      17.686664      5532.8195    
       118   0             -2181.2106      1070.14        1080.8735      1086.8385      1042.7081      42.540152     -107.6961       11.60543       17.686434      17.687249      17.686664      5532.8195    
       119   0             -2181.2106      1070.0835      1080.814       1086.7888      1042.6476      42.523154     -107.6948       11.603576      17.686434      17.687249      17.686664      5532.8195    
       120   0             -2181.2106      1070.1147      1080.8511      1086.8225      1042.6704      42.491538     -107.71469      11.604892      17.686434      17.687249      17.686664      5532.8195    
       121   0             -2181.2106      1070.1516      1080.8849      1086.866       1042.7038      42.50542      -107.70784      11.600557      17.686434      17.687249      17.686664      5532.8195    
       122   0             -2181.2106      1070.1313      1080.8618      1086.8485      1042.6835      42.515806     -107.70364      11.595777      17.686434      17.687249      17.686664      5532.8195    
       123   0             -2181.2106      1070.1182      1080.8507      1086.8347      1042.6694      42.514729     -107.70765      11.596022      17.686434      17.687249      17.686664      5532.8195    
       124   0             -2181.2106      1070.1195      1080.8511      1086.8364      1042.6712      42.515867     -107.71018      11.597267      17.686434      17.687249      17.686664      5532.8195    
       125   0             -2181.2106      1070.1202      1080.8505      1086.8384      1042.6716      42.514647     -107.70935      11.596203      17.686434      17.687249      17.686664      5532.8195    
       126   0             -2181.2106      1070.1225      1080.8539      1086.84        1042.6736      42.514249     -107.70772      11.595373      17.686434      17.687249      17.686664      5532.8195    
       127   0             -2181.2106      1070.1248      1080.857       1086.842       1042.6754      42.514212     -107.70687      11.596451      17.686434      17.687249      17.686664      5532.8195    
       128   0             -2181.2106      1070.123       1080.8547      1086.8407      1042.6737      42.513968     -107.70687      11.596198      17.686434      17.687249      17.686664      5532.8195    
       129   0             -2181.2106      1070.1232      1080.8546      1086.8412      1042.6739      42.513834     -107.70713      11.595865      17.686434      17.687249      17.686664      5532.8195    
       130   0             -2181.2106      1070.1239      1080.8555      1086.8418      1042.6743      42.513772     -107.70726      11.596002      17.686434      17.687249      17.686664      5532.8195    
       131   0             -2181.2106      1070.1236      1080.8554      1086.8415      1042.6739      42.513624     -107.70724      11.596203      17.686434      17.687249      17.686664      5532.8195    
       132   0             -2181.2106      1070.1237      1080.8556      1086.8418      1042.6738      42.513684     -107.70719      11.596252      17.686434      17.687249      17.686664      5532.8195    
       133   0             -2181.2106      1070.1237      1080.8555      1086.8419      1042.6738      42.513769     -107.70714      11.596161      17.686434      17.687249      17.686664      5532.8195    
       134   0             -2181.2106      1070.1237      1080.8554      1086.8418      1042.6738      42.513775     -107.70718      11.59609       17.686434      17.687249      17.686664      5532.8195    
       135   0             -2181.2106      1070.1238      1080.8556      1086.8419      1042.674       42.513754     -107.70714      11.596067      17.686434      17.687249      17.686664      5532.8195    
       136   0             -2181.2106      1070.1238      1080.8556      1086.8419      1042.674       42.513769     -107.70715      11.596102      17.686434      17.687249      17.686664      5532.8195    
       137   0             -2181.2106      1070.1238      1080.8556      1086.8419      1042.674       42.513754     -107.70717      11.596121      17.686434      17.687249      17.686664      5532.8195    
       138   0             -2181.2106      1070.1238      1080.8556      1086.8419      1042.674       42.513751     -107.70716      11.596135      17.686434      17.687249      17.686664      5532.8195    
       139   0             -2181.2106      1070.1238      1080.8556      1086.8419      1042.674       42.513762     -107.70715      11.596132      17.686434      17.687249      17.686664      5532.8195    
       140   0             -2181.2106      1070.1238      1080.8556      1086.8419      1042.674       42.513766     -107.70716      11.596134      17.686434      17.687249      17.686664      5532.8195    
       141   0             -2181.2106      1070.1239      1080.8556      1086.8419      1042.674       42.513763     -107.70716      11.596137      17.686434      17.687249      17.686664      5532.8195    
       142   0             -2181.2106      1070.1239      1080.8556      1086.8419      1042.674       42.513762     -107.70716      11.596135      17.686434      17.687249      17.686664      5532.8195    
       143   0             -2181.2106      1070.1239      1080.8556      1086.8419      1042.674       42.513762     -107.70716      11.596136      17.686434      17.687249      17.686664      5532.8195    
       144   0             -2181.2106      1070.1239      1080.8556      1086.8419      1042.674       42.513762     -107.70716      11.596138      17.686434      17.687249      17.686664      5532.8195    
       145   0             -2181.2106      1070.1239      1080.8556      1086.8419      1042.674       42.513762     -107.70716      11.596138      17.686434      17.687249      17.686664      5532.8195    
       146   0             -2181.2106      1070.1239      1080.8556      1086.8419      1042.674       42.513763     -107.70716      11.596137      17.686434      17.687249      17.686664      5532.8195    
       147   0             -2181.2106      1070.1239      1080.8556      1086.8419      1042.674       42.513763     -107.70716      11.596137      17.686434      17.687249      17.686664      5532.8195    
       148   0             -2181.2106      1070.1239      1080.8556      1086.8419      1042.674       42.513762     -107.70716      11.596137      17.686434      17.687249      17.686664      5532.8195    
       149   0             -2181.2106      1070.1239      1080.8556      1086.8419      1042.674       42.513762     -107.70716      11.596137      17.686434      17.687249      17.686664      5532.8195    
       150   0             -2181.2106      1070.1239      1080.8556      1086.8419      1042.674       42.513762     -107.70716      11.596137      17.686434      17.687249      17.686664      5532.8195    
       151   0             -2181.2106      1070.1239      1080.8556      1086.8419      1042.674       42.513762     -107.70716      11.596137      17.686434      17.687249      17.686664      5532.8195    
       152   0             -2181.2106      1070.1239      1080.8556      1086.8419      1042.674       42.513763     -107.70716      11.596137      17.686434      17.687249      17.686664      5532.8195    
       153   0             -2181.2106      1070.1239      1080.8556      1086.8419      1042.674       42.513763     -107.70716      11.596137      17.686434      17.687249      17.686664      5532.8195    
       154   0             -2181.2106      1070.1239      1080.8556      1086.8419      1042.674       42.513763     -107.70716      11.596137      17.686434      17.687249      17.686664      5532.8195    
       155   0             -2181.2106      1070.1239      1080.8556      1086.8419      1042.674       42.513763     -107.70716      11.596137      17.686434      17.687249      17.686664      5532.8195    
       156   0             -2181.2106      1070.1239      1080.8556      1086.8419      1042.674       42.513763     -107.70716      11.596137      17.686434      17.687249      17.686664      5532.8195    
       157   0             -2181.2106      1070.1239      1080.8556      1086.8419      1042.674       42.513763     -107.70716      11.596137      17.686434      17.687249      17.686664      5532.8195    
       158   0             -2181.2106      1070.1239      1080.8556      1086.8419      1042.674       42.513763     -107.70716      11.596137      17.686434      17.687249      17.686664      5532.8195    
       159   0             -2181.2106      1070.1239      1080.8556      1086.8419      1042.674       42.513763     -107.70716      11.596137      17.686434      17.687249      17.686664      5532.8195    
       160   0             -2181.2106      1070.1239      1080.8556      1086.8419      1042.674       42.513763     -107.70716      11.596137      17.686434      17.687249      17.686664      5532.8195    
Loop time of 0.142397 on 1 procs for 60 steps with 500 atoms

98.8% CPU use with 1 MPI tasks x 1 OpenMP threads

Minimization stats:
  Stopping criterion = force tolerance
  Energy initial, next-to-last, final = 
     -2180.98922935204  -2181.21062495515  -2181.21062495515
  Force two-norm initial, final = 1.9485794 6.8473573e-11
  Force max component initial, final = 0.16265241 5.8495466e-12
  Final line search alpha, max atom move = 1 5.8495466e-12
  Iterations, force evaluations = 60 118

MPI task timing breakdown:
Section |  min time  |  avg time  |  max time  |%varavg| %total
---------------------------------------------------------------
Pair    | 0.13977    | 0.13977    | 0.13977    |   0.0 | 98.16
Neigh   | 0          | 0          | 0          |   0.0 |  0.00
Comm    | 0.000686   | 0.000686   | 0.000686   |   0.0 |  0.48
Output  | 0.00095    | 0.00095    | 0.00095    |   0.0 |  0.67
Modify  | 0          | 0          | 0          |   0.0 |  0.00
Other   |            | 0.000991   |            |       |  0.70

Nlocal:            500 ave         500 max         500 min
Histogram: 1 0 0 0 0 0 0 0 0 0
Nghost:           1956 ave        1956 max        1956 min
Histogram: 1 0 0 0 0 0 0 0 0 0
Neighs:          33500 ave       33500 max       33500 min
Histogram: 1 0 0 0 0 0 0 0 0 0

Total # of neighbors = 33500
Ave neighs/atom = 67
Neighbor list builds = 0
Dangerous builds = 0
=========================================
Components of the Elastic Constant Tensor
=========================================
Elastic Constant C11all = 245.104045650005 GPa
Elastic Constant C22all = 243.737546589 GPa
Elastic Constant C33all = 244.212274737503 GPa
Elastic Constant C12all = 153.466333913748 GPa
Elastic Constant C13all = 153.719097935002 GPa
Elastic Constant C23all = 153.246707458752 GPa
Elastic Constant C44all = 117.701076612225 GPa
Elastic Constant C55all = 117.68871630155 GPa
Elastic Constant C66all = 117.85567013123 GPa
Elastic Constant C14all = 0.0640288234256445 GPa
Elastic Constant C15all = -0.484522472875596 GPa
Elastic Constant C16all = 0.337201887170522 GPa
Elastic Constant C24all = 0.12126716416941 GPa
Elastic Constant C25all = -0.0466613593515603 GPa
Elastic Constant C26all = 0.351448108929617 GPa
Elastic Constant C34all = -0.0694616033166539 GPa
Elastic Constant C35all = -0.325723586925733 GPa
Elastic Constant C36all = 0.163947010294124 GPa
Elastic Constant C45all = -0.0354466717125775 GPa
Elastic Constant C46all = 0.052690430554776 GPa
Elastic Constant C56all = 0.0834919907322274 GPa
=========================================
Average properties for a cubic crystal
=========================================
Bulk Modulus = 183.768682843501 GPa
Shear Modulus 1 = 117.748487681668 GPa
Shear Modulus 2 = 45.436954611501 GPa
Poisson Ratio = 0.385787631261036
Total wall time: 0:00:02
