LAMMPS (2 Aug 2023 - Update 3)
OMP_NUM_THREADS environment is not set. Defaulting to 1 thread. (src/comm.cpp:98)
  using 1 OpenMP thread(s) per MPI task
Loaded 1 plugins from F:\Lammps\LAMMPS 64-bit 2Aug2023\plugins
Reading data file ...
  orthogonal box = (0 0 0) to (17.79 17.79 17.79)
  1 by 1 by 1 MPI processor grid
  reading atoms ...
  500 atoms
  read_data CPU = 0.001 seconds
Changing box ...
  triclinic box = (0 0 0) to (17.79 17.79 17.79) with tilt (0 0 0)
Neighbor list info ...
  update: every = 1 steps, delay = 0 steps, check = yes
  max neighbors/atom: 2000, page size: 100000
  master list distance cutoff = 6.80375
  ghost atom cutoff = 6.80375
  1 neighbor lists, perpetual/occasional/extra = 1 0 0
  (1) pair eam/alloy, perpetual
      attributes: half, newton on
      pair build: half/nsq/newton
      stencil: none
      bin: none
Setting up cg style minimization ...
  Unit style    : metal
  Current step  : 0
WARNING: Energy due to 3 extra global DOFs will be included in minimizer energies
 (src/min.cpp:228)
Per MPI rank memory allocation (min/avg/max) = 4.492 | 4.492 | 4.492 Mbytes
   Step          Temp          PotEng         Press           Pxx            Pyy            Pzz            Pxy            Pxz            Pyz             Lx             Ly             Lz           Volume    
         0   0             -2179.7726     -32533.466     -32350.673     -32689.14      -32560.583     -172.54829     -70.678322      106.45266      17.79          17.79          17.79          5630.2521    
         1   0             -2179.8064     -31994.558     -31811.664     -32149.433     -32022.576     -172.57718     -70.752682      106.07543      17.788239      17.788221      17.788228      5628.5713    
         2   0             -2179.8397     -31455.277     -31272.293     -31609.348     -31484.192     -172.60406     -70.824967      105.69166      17.786479      17.786442      17.786456      5626.8908    
         3   0             -2179.8724     -30915.619     -30732.552     -31068.88      -30945.424     -172.62865     -70.895754      105.30149      17.784719      17.784663      17.784684      5625.2108    
         4   0             -2179.9046     -30375.599     -30192.458     -30528.046     -30406.292     -172.65118     -70.965018      104.90598      17.782959      17.782884      17.782912      5623.5313    
         5   0             -2179.9361     -29835.297     -29652.088     -29986.925     -29866.877     -172.67326     -71.031341      104.50817      17.7812        17.781105      17.78114       5621.8521    
         6   0             -2179.9671     -29294.758     -29111.492     -29445.56      -29327.223     -172.69652     -71.092121      104.10816      17.779441      17.779326      17.779368      5620.1734    
         7   0             -2179.9975     -28753.987     -28570.672     -28903.954     -28787.334     -172.72117     -71.147316      103.70582      17.777682      17.777547      17.777597      5618.4952    
         8   0             -2180.0274     -28212.944     -28029.595     -28362.067     -28247.169     -172.74598     -71.19795       103.29906      17.775924      17.775768      17.775825      5616.8174    
         9   0             -2180.0566     -27671.567     -27488.2       -27819.837     -27706.665     -172.76932     -71.246236      102.88638      17.774165      17.773989      17.774053      5615.14      
        10   0             -2180.0853     -27129.823     -26946.449     -27277.234     -27165.786     -172.79092     -71.293096      102.46881      17.772408      17.77221       17.772281      5613.4632    
        11   0             -2180.1134     -26587.729     -26404.359     -26734.277     -26624.551     -172.81107     -71.338039      102.04723      17.77065       17.770431      17.770509      5611.7867    
        12   0             -2180.141      -26045.328     -25861.97      -26191.011     -26083.003     -172.83135     -71.37988       101.62278      17.768893      17.768652      17.768738      5610.1108    
        13   0             -2180.1679     -25502.656     -25319.319     -25647.472     -25541.176     -172.8523      -71.417556      101.19557      17.767137      17.766873      17.766966      5608.4353    
        14   0             -2180.1943     -24959.761     -24776.457     -25103.708     -24999.12      -172.87239     -71.450077      100.76296      17.76538       17.765094      17.765194      5606.7602    
        15   0             -2180.2201     -24416.615     -24233.366     -24559.674     -24456.804     -172.89036     -71.478051      100.32387      17.763625      17.763315      17.763423      5605.0857    
        16   0             -2180.2454     -23873.168     -23689.997     -24015.325     -23914.183     -172.90537     -71.502099      99.878438      17.761869      17.761536      17.761651      5603.4117    
        17   0             -2180.27       -23329.401     -23146.329     -23470.638     -23371.237     -172.91649     -71.523107      99.427426      17.760114      17.759757      17.75988       5601.7381    
        18   0             -2180.2941     -22785.3       -22602.338     -22925.61      -22827.951     -172.92617     -71.541764      98.973346      17.75836       17.757978      17.758108      5600.065     
        19   0             -2180.3176     -22240.947     -22058.103     -22380.332     -22284.406     -172.93492     -71.55741       98.516587      17.756606      17.756199      17.756337      5598.3925    
        20   0             -2180.3406     -21696.37      -21513.655     -21834.828     -21740.627     -172.94342     -71.569445      98.057162      17.754853      17.75442       17.754566      5596.7205    
        21   0             -2180.3629     -21151.599     -20969.03      -21289.122     -21196.644     -172.95199     -71.577998      97.595753      17.7531        17.752641      17.752794      5595.0489    
        22   0             -2180.3847     -20606.561     -20424.17      -20743.129     -20652.384     -172.95886     -71.584274      97.131598      17.751348      17.750862      17.751023      5593.378     
        23   0             -2180.4059     -20061.281     -19879.09      -20196.878     -20107.874     -172.96382     -71.588138      96.665492      17.749596      17.749083      17.749252      5591.7075    
        24   0             -2180.4266     -19515.759     -19333.793     -19650.367     -19563.115     -172.96683     -71.589935      96.197119      17.747845      17.747304      17.747481      5590.0377    
        25   0             -2180.4467     -18970.036     -18788.307     -19103.654     -19018.147     -172.96942     -71.586805      95.725374      17.746095      17.745525      17.74571       5588.3683    
        26   0             -2180.4661     -18424.145     -18242.678     -18556.758     -18472.998     -172.97291     -71.577759      95.250706      17.744345      17.743746      17.743939      5586.6996    
        27   0             -2180.4851     -17878.045     -17696.865     -18009.64      -17927.628     -172.97668     -71.562694      94.772086      17.742596      17.741967      17.742168      5585.0314    
        28   0             -2180.5034     -17331.737     -17150.874     -17462.299     -17382.038     -172.97919     -71.541983      94.289077      17.740848      17.740188      17.740397      5583.3639    
        29   0             -2180.5212     -16785.236     -16604.712     -16914.75      -16836.245     -172.97863     -71.519041      93.801952      17.739101      17.738409      17.738626      5581.697     
        30   0             -2180.5383     -16238.566     -16058.409     -16367.015     -16290.274     -172.97526     -71.494842      93.310699      17.737355      17.73663       17.736855      5580.0307    
        31   0             -2180.555      -15691.758     -15511.993     -15819.126     -15744.155     -172.96968     -71.469685      92.81622       17.73561       17.734851      17.735085      5578.365     
        32   0             -2180.571      -15144.794     -14965.46      -15271.057     -15197.866     -172.96414     -71.442137      92.319646      17.733865      17.733072      17.733314      5576.7       
        33   0             -2180.5865     -14597.645     -14418.779     -14722.782     -14651.373     -172.95946     -71.407746      91.819967      17.732122      17.731293      17.731544      5575.0358    
        34   0             -2180.6014     -14050.317     -13871.957     -14174.309     -14104.683     -172.95558     -71.36614       91.31727       17.73038       17.729514      17.729773      5573.3722    
        35   0             -2180.6157     -13502.823     -13325.009     -13625.652     -13557.806     -172.95254     -71.317496      90.811477      17.728639      17.727735      17.728003      5571.7094    
        36   0             -2180.6294     -12955.235     -12777.998     -13076.885     -13010.821     -172.94918     -71.264788      90.302067      17.726899      17.725956      17.726233      5570.0474    
        37   0             -2180.6426     -12407.604     -12230.988     -12528.049     -12463.776     -172.94448     -71.212248      89.790209      17.725161      17.724177      17.724463      5568.3862    
        38   0             -2180.6552     -11859.951     -11684.006     -11979.16      -11916.688     -172.93845     -71.159625      89.275988      17.723424      17.722398      17.722693      5566.7258    
        39   0             -2180.6672     -11312.26      -11137.055     -11430.188     -11369.537     -172.9309      -71.106294      88.758921      17.721689      17.720619      17.720923      5565.0664    
        40   0             -2180.6787     -10764.485     -10590.088     -10881.095     -10822.273     -172.92351     -71.049901      88.239437      17.719956      17.71884       17.719154      5563.4078    
        41   0             -2180.6895     -10216.604     -10043.082     -10331.858     -10274.871     -172.91557     -70.98925       87.715714      17.718224      17.717061      17.717385      5561.7503    
        42   0             -2180.6998     -9668.6494     -9496.0652     -9782.5187     -9727.3642     -172.90668     -70.925162      87.187634      17.716495      17.715282      17.715615      5560.0939    
        43   0             -2180.7096     -9120.7188     -8949.1333     -9233.1721     -9179.8509     -172.89567     -70.857774      86.65499       17.714768      17.713503      17.713846      5558.4386    
        44   0             -2180.7187     -8572.8691     -8402.3646     -8683.8622     -8632.3804     -172.88199     -70.787622      86.119062      17.713044      17.711724      17.712078      5556.7845    
        45   0             -2180.7273     -8025.1791     -7855.85       -8134.6569     -8085.0304     -172.8662      -70.715848      85.581649      17.711323      17.709945      17.710309      5555.1318    
        46   0             -2180.7353     -7477.649      -7309.6263     -7585.5339     -7537.7868     -172.85025     -70.642339      85.043786      17.709605      17.708166      17.708541      5553.4805    
        47   0             -2180.7428     -6930.3119     -6763.7186     -7036.532      -6990.6852     -172.83384     -70.568372      84.50504       17.707891      17.706387      17.706773      5551.8308    
        48   0             -2180.7497     -6383.2325     -6218.2087     -6487.7074     -6443.7814     -172.8172      -70.493718      83.963723      17.706181      17.704608      17.705006      5550.183     
        49   0             -2180.756      -5836.4742     -5673.1763     -5939.1175     -5897.1289     -172.80071     -70.416939      83.418534      17.704476      17.702829      17.703239      5548.5371    
        50   0             -2180.7617     -5290.1246     -5128.7579     -5390.8203     -5350.7956     -172.78268     -70.337911      82.869144      17.702777      17.70105       17.701473      5546.8935    
        51   0             -2180.7669     -4744.2919     -4585.0828     -4842.9137     -4804.8792     -172.76376     -70.255705      82.315667      17.701085      17.699271      17.699707      5545.2526    
        52   0             -2180.7715     -4199.1528     -4042.3731     -4295.548      -4259.5374     -172.74247     -70.171846      81.759357      17.699401      17.697492      17.697942      5543.6149    
        53   0             -2180.7756     -3654.9642     -3500.9279     -3748.9601     -3715.0044     -172.71732     -70.086799      81.200376      17.697727      17.695713      17.696178      5541.9809    
        54   0             -2180.7791     -3112.0907     -2961.2064     -3203.4539     -3171.6118     -172.68829     -70.001975      80.639597      17.696065      17.693934      17.694415      5540.3517    
        55   0             -2180.7821     -2570.9874     -2423.8143     -2659.3991     -2629.7489     -172.6556      -69.918901      80.077132      17.694421      17.692155      17.692654      5538.7285    
        56   0             -2180.7845     -2032.309      -1889.6291     -2117.3166     -2089.9814     -172.61958     -69.838602      79.512085      17.6928        17.690376      17.690895      5537.1136    
        57   0             -2180.7864     -1497.192      -1360.1696     -1578.1355     -1553.271      -172.5786      -69.764277      78.944522      17.691213      17.688597      17.689139      5535.5105    
        58   0             -2180.7877     -967.9386      -838.38665     -1043.7907     -1021.6384     -172.53015     -69.700133      78.374547      17.689679      17.686818      17.687388      5533.9263    
        59   0             -2180.7886     -450.15698     -331.53642     -518.96303     -499.97148     -172.46574     -69.656335      77.804116      17.688251      17.685039      17.685647      5532.3781    
        60   0             -2180.7893      34.937241      132.97544     -21.361551     -6.8021654     -172.35658     -69.673863      77.242568      17.687114      17.68326       17.683933      5530.9302    
        61   0             -2180.7912     -46.482184     -26.671889     -58.157567     -54.617097     -171.97712     -70.174322      77.142599      17.688893      17.682671      17.683568      5531.188     
        62   0             -2180.7948      404.12758      391.37415      411.9434       409.0652      -171.3834      -70.831939      76.498202      17.688126      17.680892      17.681902      5529.8704    
        63   0             -2180.7961     -143.87318     -158.42696     -135.83587     -137.35671     -171.24922     -71.143353      77.048122      17.689905      17.682636      17.683646      5531.5178    
        64   0             -2180.7998      330.12818      331.73925      329.61712      329.02818     -170.72651     -71.710838      76.460367      17.688126      17.681324      17.682302      5530.1309    
        65   0             -2180.8013     -215.38031     -211.95139     -217.77022     -216.41931     -170.54754     -72.078488      77.00306       17.689831      17.683103      17.684071      5531.7737    
        66   0             -2180.8046      348.2458       351.74796      346.62386      346.36558     -170.05046     -72.584467      76.302452      17.688074      17.681324      17.682305      5530.1155    
        67   0             -2180.8065     -196.79759     -195.23327     -198.13995     -197.01955     -169.80616     -73.034107      76.825885      17.689853      17.683063      17.684046      5531.7602    
        68   0             -2180.8098      360.14941      359.92409      360.68026      359.84389     -169.30397     -73.545397      76.127497      17.688154      17.681284      17.682287      5530.1221    
        69   0             -2180.8118     -188.65853     -190.17633     -188.204       -187.59526     -169.05148     -74.004478      76.653849      17.689933      17.683042      17.684046      5531.7784    
        70   0             -2180.8152      374.88783      374.725        375.4259       374.51259     -168.5246      -74.543562      75.946455      17.688154      17.681278      17.682293      5530.1223    
        71   0             -2180.8172     -176.9216      -177.35025     -177.05721     -176.35734     -168.27269     -75.00047       76.477336      17.689922      17.683057      17.68407       5531.7876    
        72   0             -2180.8208      387.77546      388.63037      387.74322      386.95278     -167.70951     -75.58236       75.759535      17.688143      17.681291      17.682315      5530.1301    
        73   0             -2180.8227     -165.2592      -165.02937     -165.7647      -164.98353     -167.46246     -76.030916      76.292167      17.689922      17.683069      17.684093      5531.7986    
        74   0             -2180.8265      400.80369      401.35216      400.95869      400.10023     -166.85683     -76.662546      75.560833      17.68816       17.68129       17.682329      5530.1393    
        75   0             -2180.8284     -151.30294     -151.56435     -151.50815     -150.83631     -166.61727     -77.099052      76.093863      17.689939      17.683063      17.684101      5531.8044    
        76   0             -2180.8325      416.82667      417.26268      417.07295      416.14439     -165.96271     -77.787611      75.348384      17.688166      17.681284      17.682337      5530.1418    
        77   0             -2180.8343     -136.36911     -136.59909     -136.56371     -135.94453     -165.7322      -78.210773      75.884977      17.689945      17.683062      17.684113      5531.8096    
        78   0             -2180.8388      433.32477      433.9339       433.49346      432.54695     -165.01352     -78.974212      75.121695      17.688168      17.681283      17.682349      5530.1459    
        79   0             -2180.8405     -120.06677     -120.13232     -120.33248     -119.73552     -164.79352     -79.382135      75.661154      17.689947      17.68306       17.684125      5531.8135    
        80   0             -2180.8454      450.16601      450.71454      450.39059      449.39289     -163.99191     -80.242333      74.875978      17.688178      17.681281      17.682363      5530.1528    
        81   0             -2180.847      -103.34376     -103.49587     -103.53461     -103.0008      -163.78398     -80.633488      75.418817      17.689957      17.683057      17.684138      5531.8199    
        82   0             -2180.8526      469.21331      469.83327      469.42302      468.38363     -162.8699      -81.624177      74.60296       17.688184      17.681278      17.682378      5530.1585    
        83   0             -2180.8541     -84.68664      -84.748802     -84.899181     -84.411936     -162.67429     -81.99868       75.149857      17.689963      17.683055      17.684153      5531.8259    
        84   0             -2180.8606      490.14508      490.7298       490.39937      489.30607     -161.58957     -83.187827      74.288818      17.688196      17.681276      17.682396      5530.1671    
        85   0             -2180.8621     -64.04044      -64.141176     -64.201846     -63.778298     -161.40775     -83.543843      74.840083      17.689975      17.683053      17.684171      5531.8345    
        86   0             -2180.8703      516.13901      516.87878      516.34165      515.1966      -160.02191     -85.084154      73.899585      17.688205      17.681274      17.682418      5530.1762    
        87   0             -2180.8717     -38.366135     -38.313656     -38.572458     -38.212291     -159.85497     -85.419831      74.45545       17.689984      17.683051      17.684193      5531.8435    
        88   0             -2180.8843      552.08199      552.32478      552.59019      551.33101     -157.67451     -87.889418      73.310079      17.68824       17.681272      17.682454      5530.1979    
        89   0             -2180.8856     -3.1866473     -3.5724099     -3.1098188     -2.8777132     -157.52637     -88.199965      73.872338      17.690019      17.683051      17.684231      5531.8662    
        90   0             -2180.9912      777.77915      805.86139      763.71823      763.75783     -136.66394     -112.25709      68.025085      17.68824       17.681877      17.683358      5530.6698    
        91   0             -2180.9924      239.51917      264.02368      226.68568      227.84813     -136.52678     -112.53071      68.58476       17.690019      17.683566      17.68505       5532.2838    
        92   0             -2180.9928     -266.77171     -251.33805     -275.43062     -273.54645     -136.4587      -112.70542      69.110522      17.691798      17.685094      17.686586      5533.7987    
        93   0             -2180.9954      139.3833       105.02045      157.60708      155.52236     -135.74053     -113.32944      68.372917      17.691503      17.683315      17.684882      5532.6168    
        94   0             -2180.9965     -368.54263     -388.58258     -358.47143     -358.57388     -135.51951     -113.64221      68.890794      17.692849      17.685094      17.686647      5534.1464    
        95   0             -2180.9983      52.035037      56.521424      49.698156      49.885531     -135.14202     -113.91183      68.350597      17.69107       17.684017      17.685554      5532.911     
        96   0             -2181.0014     -487.99448     -481.9694      -492.02055     -489.9935      -134.37678     -114.75109      68.721444      17.69279       17.685796      17.687333      5534.5624    
        97   0             -2181.0028      71.950449      77.62018       68.762231      69.468937     -134.06187     -114.94187      68.007187      17.691042      17.684017      17.685563      5532.9054    
        98   0             -2181.0072     -361.27664     -373.87783     -354.93731     -355.01479     -132.95755     -116.08508      68.126752      17.692821      17.685254      17.686854      5534.2525    
        99   0             -2181.0083      198.94801      187.49763      205.36148      203.98493     -132.67431     -116.24378      67.419954      17.691042      17.683488      17.685096      5532.5936    
       100   0             -2181.0144     -246.75234     -230.48605     -255.98958     -253.7814      -131.22467     -117.69257      67.517223      17.692         17.685267      17.686851      5533.9988    
Loop time of 0.116145 on 1 procs for 100 steps with 500 atoms

94.2% CPU use with 1 MPI tasks x 1 OpenMP threads

Minimization stats:
  Stopping criterion = max iterations
  Energy initial, next-to-last, final = 
     -2179.77256200472  -2181.00830004206  -2181.01439937739
  Force two-norm initial, final = 198.04806 2.2598898
  Force max component initial, final = 114.8738 0.88943727
  Final line search alpha, max atom move = 0.00069422916 0.00061747329
  Iterations, force evaluations = 100 100

MPI task timing breakdown:
Section |  min time  |  avg time  |  max time  |%varavg| %total
---------------------------------------------------------------
Pair    | 0.10856    | 0.10856    | 0.10856    |   0.0 | 93.47
Neigh   | 0          | 0          | 0          |   0.0 |  0.00
Comm    | 0.000605   | 0.000605   | 0.000605   |   0.0 |  0.52
Output  | 0.001344   | 0.001344   | 0.001344   |   0.0 |  1.16
Modify  | 0          | 0          | 0          |   0.0 |  0.00
Other   |            | 0.005639   |            |       |  4.86

Nlocal:            500 ave         500 max         500 min
Histogram: 1 0 0 0 0 0 0 0 0 0
Nghost:           1956 ave        1956 max        1956 min
Histogram: 1 0 0 0 0 0 0 0 0 0
Neighs:          33500 ave       33500 max       33500 min
Histogram: 1 0 0 0 0 0 0 0 0 0

Total # of neighbors = 33500
Ave neighs/atom = 67
Neighbor list builds = 0
Dangerous builds = 0
Displacing atoms ...
System init for write_restart ...
OMP_NUM_THREADS environment is not set. Defaulting to 1 thread. (src/comm.cpp:98)
  using 1 OpenMP thread(s) per MPI task
Loaded 1 plugins from F:\Lammps\LAMMPS 64-bit 2Aug2023\plugins

The 'box' command has been removed and will be ignored

Reading restart file ...
  restart file = 2 Aug 2023, LAMMPS = 2 Aug 2023
  restoring atom style atomic from restart
  triclinic box = (0.04899975 0.052366694 0.051574684) to (17.741 17.737633 17.738425) with tilt (0 0 0)
  1 by 1 by 1 MPI processor grid
  pair style eam/alloy stores no restart info
  500 atoms
  read_restart CPU = 0.000 seconds
Changing box ...
  triclinic box = (0.04899975 0.052366694 0.051574684) to (17.740983 17.737633 17.738425) with tilt (0 0 0)
  triclinic box = (0.04899975 0.052366694 0.051574684) to (17.740983 17.737633 17.738425) with tilt (0 0 0)
  triclinic box = (0.04899975 0.052366694 0.051574684) to (17.740983 17.737633 17.738425) with tilt (0 0 0)
Neighbor list info ...
  update: every = 1 steps, delay = 0 steps, check = yes
  max neighbors/atom: 2000, page size: 100000
  master list distance cutoff = 6.80375
  ghost atom cutoff = 6.80375
  1 neighbor lists, perpetual/occasional/extra = 1 0 0
  (1) pair eam/alloy, perpetual
      attributes: half, newton on
      pair build: half/nsq/newton
      stencil: none
      bin: none
Setting up cg style minimization ...
  Unit style    : metal
  Current step  : 100
Per MPI rank memory allocation (min/avg/max) = 4.482 | 4.482 | 4.482 Mbytes
   Step          Temp          PotEng         Press           Pxx            Pyy            Pzz            Pxy            Pxz            Pyz             Lx             Ly             Lz           Volume    
       100   0             -2181.0144     -244.9752      -228.10722     -254.46863     -252.34975     -131.26553     -117.67587      67.593934      17.691983      17.685267      17.686851      5533.9933    
       101   0             -2181.1398      533.76828      556.32619      498.32093      546.65773     -82.473545     -165.13676      52.87166       17.691983      17.685267      17.686851      5533.9933    
       102   0             -2181.1911      1004.9756      1019.9343      933.90705      1061.0856     -40.291478     -169.65383      24.823418      17.691983      17.685267      17.686851      5533.9933    
       103   0             -2181.2019      913.25086      915.81664      838.35953      985.57642     -48.966049     -177.66466      34.17379       17.691983      17.685267      17.686851      5533.9933    
       104   0             -2181.206       818.93513      813.41529      746.49822      896.89188     -49.291171     -167.85728      34.403417      17.691983      17.685267      17.686851      5533.9933    
       105   0             -2181.2076      902.16389      895.75018      829.31479      981.42668     -42.523891     -172.39053      28.492388      17.691983      17.685267      17.686851      5533.9933    
       106   0             -2181.208       898.98054      891.22867      828.00103      977.71193     -41.951058     -171.29795      28.967669      17.691983      17.685267      17.686851      5533.9933    
       107   0             -2181.2082      875.44228      866.71542      803.83063      955.78078     -44.418076     -170.57285      29.026945      17.691983      17.685267      17.686851      5533.9933    
       108   0             -2181.2082      876.20057      867.66424      804.63743      956.30003     -44.908755     -170.98032      29.265335      17.691983      17.685267      17.686851      5533.9933    
       109   0             -2181.2083      881.20891      872.64088      809.61899      961.36685     -43.991942     -171.16391      29.531471      17.691983      17.685267      17.686851      5533.9933    
       110   0             -2181.2083      877.84045      868.77172      805.78743      958.96221     -43.915223     -170.75399      29.735683      17.691983      17.685267      17.686851      5533.9933    
       111   0             -2181.2083      878.54199      869.16212      805.98737      960.47649     -44.091577     -171.35751      30.077674      17.691983      17.685267      17.686851      5533.9933    
       112   0             -2181.2083      879.65677      870.53697      806.80267      961.63067     -44.263722     -171.20291      30.601504      17.691983      17.685267      17.686851      5533.9933    
       113   0             -2181.2083      878.09408      869.18904      804.98286      960.11033     -44.066215     -170.98029      30.347626      17.691983      17.685267      17.686851      5533.9933    
       114   0             -2181.2083      878.48232      869.4449       805.34609      960.65595     -43.99768      -171.29056      30.430241      17.691983      17.685267      17.686851      5533.9933    
       115   0             -2181.2083      879.1576       870.13491      805.84623      961.49166     -43.985927     -171.36479      30.341822      17.691983      17.685267      17.686851      5533.9933    
       116   0             -2181.2083      878.95082      869.90913      805.56859      961.37474     -44.055843     -171.21387      30.296779      17.691983      17.685267      17.686851      5533.9933    
       117   0             -2181.2083      878.86451      869.82688      805.44382      961.32284     -44.061929     -171.20007      30.276281      17.691983      17.685267      17.686851      5533.9933    
       118   0             -2181.2083      878.85817      869.77801      805.44953      961.34698     -44.079438     -171.20867      30.265336      17.691983      17.685267      17.686851      5533.9933    
       119   0             -2181.2083      878.82826      869.7341       805.43488      961.31581     -44.07478      -171.20601      30.269857      17.691983      17.685267      17.686851      5533.9933    
       120   0             -2181.2083      878.86642      869.77203      805.45565      961.3716      -44.083224     -171.1979       30.273311      17.691983      17.685267      17.686851      5533.9933    
       121   0             -2181.2083      878.93133      869.84591      805.51298      961.43511     -44.084511     -171.21072      30.266889      17.691983      17.685267      17.686851      5533.9933    
       122   0             -2181.2083      878.90118      869.82124      805.48081      961.40148     -44.087263     -171.21347      30.256406      17.691983      17.685267      17.686851      5533.9933    
       123   0             -2181.2083      878.87188      869.79542      805.44625      961.37396     -44.090337     -171.20693      30.250013      17.691983      17.685267      17.686851      5533.9933    
       124   0             -2181.2083      878.86726      869.79576      805.43787      961.36817     -44.095278     -171.20729      30.248534      17.691983      17.685267      17.686851      5533.9933    
       125   0             -2181.2083      878.86369      869.79363      805.43498      961.36245     -44.095043     -171.20634      30.247739      17.691983      17.685267      17.686851      5533.9933    
       126   0             -2181.2083      878.87104      869.79998      805.44282      961.37031     -44.093019     -171.20556      30.246552      17.691983      17.685267      17.686851      5533.9933    
       127   0             -2181.2083      878.8756       869.80404      805.44803      961.37473     -44.093392     -171.20507      30.245911      17.691983      17.685267      17.686851      5533.9933    
       128   0             -2181.2083      878.87362      869.80099      805.44671      961.37317     -44.093735     -171.20425      30.245781      17.691983      17.685267      17.686851      5533.9933    
       129   0             -2181.2083      878.87335      869.80014      805.44676      961.37316     -44.093316     -171.20497      30.246322      17.691983      17.685267      17.686851      5533.9933    
       130   0             -2181.2083      878.8735       869.80027      805.44698      961.37324     -44.093344     -171.20466      30.24673       17.691983      17.685267      17.686851      5533.9933    
       131   0             -2181.2083      878.87366      869.80068      805.44683      961.37348     -44.093663     -171.20461      30.246693      17.691983      17.685267      17.686851      5533.9933    
       132   0             -2181.2083      878.87312      869.80052      805.44602      961.37284     -44.093605     -171.20472      30.246509      17.691983      17.685267      17.686851      5533.9933    
       133   0             -2181.2083      878.87326      869.80077      805.44621      961.37281     -44.093493     -171.20488      30.246625      17.691983      17.685267      17.686851      5533.9933    
       134   0             -2181.2083      878.87322      869.80074      805.44625      961.37266     -44.093401     -171.20495      30.246802      17.691983      17.685267      17.686851      5533.9933    
       135   0             -2181.2083      878.87304      869.80052      805.44614      961.37247     -44.093366     -171.20494      30.246829      17.691983      17.685267      17.686851      5533.9933    
       136   0             -2181.2083      878.87313      869.80056      805.44622      961.37261     -44.093342     -171.20491      30.246774      17.691983      17.685267      17.686851      5533.9933    
       137   0             -2181.2083      878.8731       869.80054      805.44617      961.37259     -44.09336      -171.20491      30.246775      17.691983      17.685267      17.686851      5533.9933    
       138   0             -2181.2083      878.87308      869.80052      805.44614      961.37256     -44.093363     -171.20492      30.246776      17.691983      17.685267      17.686851      5533.9933    
       139   0             -2181.2083      878.87308      869.80051      805.44615      961.37257     -44.093367     -171.20491      30.246789      17.691983      17.685267      17.686851      5533.9933    
       140   0             -2181.2083      878.87309      869.80053      805.44616      961.37259     -44.09337      -171.20492      30.24679       17.691983      17.685267      17.686851      5533.9933    
       141   0             -2181.2083      878.87309      869.80053      805.44616      961.37259     -44.093374     -171.20491      30.246791      17.691983      17.685267      17.686851      5533.9933    
       142   0             -2181.2083      878.87309      869.80053      805.44616      961.37259     -44.093373     -171.20491      30.246791      17.691983      17.685267      17.686851      5533.9933    
       143   0             -2181.2083      878.87309      869.80052      805.44616      961.37259     -44.093372     -171.20491      30.246792      17.691983      17.685267      17.686851      5533.9933    
       144   0             -2181.2083      878.87309      869.80052      805.44617      961.37259     -44.093373     -171.20491      30.246793      17.691983      17.685267      17.686851      5533.9933    
       145   0             -2181.2083      878.87309      869.80052      805.44616      961.37259     -44.093374     -171.20491      30.246794      17.691983      17.685267      17.686851      5533.9933    
       146   0             -2181.2083      878.87309      869.80052      805.44616      961.37259     -44.093374     -171.20491      30.246793      17.691983      17.685267      17.686851      5533.9933    
       147   0             -2181.2083      878.87309      869.80052      805.44616      961.37259     -44.093374     -171.20491      30.246794      17.691983      17.685267      17.686851      5533.9933    
       148   0             -2181.2083      878.87309      869.80052      805.44616      961.37259     -44.093374     -171.20491      30.246794      17.691983      17.685267      17.686851      5533.9933    
       149   0             -2181.2083      878.87309      869.80052      805.44616      961.37259     -44.093374     -171.20491      30.246794      17.691983      17.685267      17.686851      5533.9933    
       150   0             -2181.2083      878.87309      869.80052      805.44616      961.37259     -44.093374     -171.20491      30.246794      17.691983      17.685267      17.686851      5533.9933    
       151   0             -2181.2083      878.87309      869.80052      805.44616      961.37259     -44.093374     -171.20491      30.246794      17.691983      17.685267      17.686851      5533.9933    
       152   0             -2181.2083      878.87309      869.80052      805.44616      961.37259     -44.093374     -171.20491      30.246794      17.691983      17.685267      17.686851      5533.9933    
       153   0             -2181.2083      878.87309      869.80052      805.44616      961.37259     -44.093374     -171.20491      30.246794      17.691983      17.685267      17.686851      5533.9933    
       154   0             -2181.2083      878.87309      869.80052      805.44616      961.37259     -44.093374     -171.20491      30.246794      17.691983      17.685267      17.686851      5533.9933    
       155   0             -2181.2083      878.87309      869.80052      805.44616      961.37259     -44.093374     -171.20491      30.246794      17.691983      17.685267      17.686851      5533.9933    
       156   0             -2181.2083      878.87309      869.80052      805.44616      961.37259     -44.093374     -171.20491      30.246794      17.691983      17.685267      17.686851      5533.9933    
       157   0             -2181.2083      878.87309      869.80052      805.44616      961.37259     -44.093374     -171.20491      30.246794      17.691983      17.685267      17.686851      5533.9933    
       158   0             -2181.2083      878.87309      869.80052      805.44616      961.37259     -44.093374     -171.20491      30.246794      17.691983      17.685267      17.686851      5533.9933    
       159   0             -2181.2083      878.87309      869.80052      805.44616      961.37259     -44.093374     -171.20491      30.246794      17.691983      17.685267      17.686851      5533.9933    
       160   0             -2181.2083      878.87309      869.80052      805.44616      961.37259     -44.093374     -171.20491      30.246794      17.691983      17.685267      17.686851      5533.9933    
       161   0             -2181.2083      878.87309      869.80052      805.44616      961.37259     -44.093374     -171.20491      30.246794      17.691983      17.685267      17.686851      5533.9933    
Loop time of 0.142385 on 1 procs for 61 steps with 500 atoms

98.8% CPU use with 1 MPI tasks x 1 OpenMP threads

Minimization stats:
  Stopping criterion = force tolerance
  Energy initial, next-to-last, final = 
     -2181.01439421661  -2181.20832585699  -2181.20832585701
  Force two-norm initial, final = 1.7022829 6.6240814e-11
  Force max component initial, final = 0.16204991 7.7339996e-12
  Final line search alpha, max atom move = 1 7.7339996e-12
  Iterations, force evaluations = 61 120

MPI task timing breakdown:
Section |  min time  |  avg time  |  max time  |%varavg| %total
---------------------------------------------------------------
Pair    | 0.1398     | 0.1398     | 0.1398     |   0.0 | 98.19
Neigh   | 0          | 0          | 0          |   0.0 |  0.00
Comm    | 0.000696   | 0.000696   | 0.000696   |   0.0 |  0.49
Output  | 0.000919   | 0.000919   | 0.000919   |   0.0 |  0.65
Modify  | 0          | 0          | 0          |   0.0 |  0.00
Other   |            | 0.000968   |            |       |  0.68

Nlocal:            500 ave         500 max         500 min
Histogram: 1 0 0 0 0 0 0 0 0 0
Nghost:           1956 ave        1956 max        1956 min
Histogram: 1 0 0 0 0 0 0 0 0 0
Neighs:          33500 ave       33500 max       33500 min
Histogram: 1 0 0 0 0 0 0 0 0 0

Total # of neighbors = 33500
Ave neighs/atom = 67
Neighbor list builds = 0
Dangerous builds = 0
OMP_NUM_THREADS environment is not set. Defaulting to 1 thread. (src/comm.cpp:98)
  using 1 OpenMP thread(s) per MPI task
Loaded 1 plugins from F:\Lammps\LAMMPS 64-bit 2Aug2023\plugins

The 'box' command has been removed and will be ignored

Reading restart file ...
  restart file = 2 Aug 2023, LAMMPS = 2 Aug 2023
  restoring atom style atomic from restart
  triclinic box = (0.04899975 0.052366694 0.051574684) to (17.741 17.737633 17.738425) with tilt (0 0 0)
  1 by 1 by 1 MPI processor grid
  pair style eam/alloy stores no restart info
  500 atoms
  read_restart CPU = 0.000 seconds
Changing box ...
  triclinic box = (0.04899975 0.052366694 0.051574684) to (17.741018 17.737633 17.738425) with tilt (0 0 0)
  triclinic box = (0.04899975 0.052366694 0.051574684) to (17.741018 17.737633 17.738425) with tilt (0 0 0)
  triclinic box = (0.04899975 0.052366694 0.051574684) to (17.741018 17.737633 17.738425) with tilt (0 0 0)
Neighbor list info ...
  update: every = 1 steps, delay = 0 steps, check = yes
  max neighbors/atom: 2000, page size: 100000
  master list distance cutoff = 6.80375
  ghost atom cutoff = 6.80375
  1 neighbor lists, perpetual/occasional/extra = 1 0 0
  (1) pair eam/alloy, perpetual
      attributes: half, newton on
      pair build: half/nsq/newton
      stencil: none
      bin: none
Setting up cg style minimization ...
  Unit style    : metal
  Current step  : 100
Per MPI rank memory allocation (min/avg/max) = 4.482 | 4.482 | 4.482 Mbytes
   Step          Temp          PotEng         Press           Pxx            Pyy            Pzz            Pxy            Pxz            Pyz             Lx             Ly             Lz           Volume    
       100   0             -2181.0144     -248.68832     -233.05282     -257.57095     -255.4412      -131.26365     -117.67865      67.595615      17.692018      17.685267      17.686851      5534.0044    
       101   0             -2181.1398      530.07854      551.41252      495.2387       543.58441     -82.474442     -165.13802      52.874022      17.692018      17.685267      17.686851      5534.0044    
       102   0             -2181.1911      1001.3214      1015.0614      930.85927      1058.0435     -40.291351     -169.66363      24.825487      17.692018      17.685267      17.686851      5534.0044    
       103   0             -2181.2019      909.54795      910.89407      835.26316      982.48662     -48.967628     -177.66745      34.175755      17.692018      17.685267      17.686851      5534.0044    
       104   0             -2181.206       815.28133      808.5436       743.44796      893.85244     -49.2888       -167.86525      34.404073      17.692018      17.685267      17.686851      5534.0044    
       105   0             -2181.2076      898.53182      890.89972      826.28603      978.4097      -42.520982     -172.40026      28.493562      17.692018      17.685267      17.686851      5534.0044    
       106   0             -2181.208       895.33326      886.36297      824.95735      974.67946     -41.94867      -171.30594      28.968041      17.692018      17.685267      17.686851      5534.0044    
       107   0             -2181.2082      871.79585      861.8509       800.78808      952.74858     -44.415558     -170.58126      29.027387      17.692018      17.685267      17.686851      5534.0044    
       108   0             -2181.2082      872.55667      862.80241      801.59743      953.27016     -44.906092     -170.98921      29.266091      17.692018      17.685267      17.686851      5534.0044    
       109   0             -2181.2083      877.56279      867.77688      806.57649      958.335       -43.989496     -171.1722       29.532084      17.692018      17.685267      17.686851      5534.0044    
       110   0             -2181.2083      874.19544      863.90902      802.74593      955.93139     -43.912744     -170.76234      29.7361        17.692018      17.685267      17.686851      5534.0044    
       111   0             -2181.2083      874.89835      864.30075      802.94723      957.44707     -44.08911      -171.36619      30.078242      17.692018      17.685267      17.686851      5534.0044    
       112   0             -2181.2083      876.01158      865.67416      803.76104      958.59953     -44.261204     -171.2113       30.602038      17.692018      17.685267      17.686851      5534.0044    
       113   0             -2181.2083      874.44854      864.32584      801.94089      957.07889     -44.063754     -170.98875      30.348169      17.692018      17.685267      17.686851      5534.0044    
       114   0             -2181.2083      874.83754      864.58249      802.30484      957.6253      -43.995172     -171.29911      30.430829      17.692018      17.685267      17.686851      5534.0044    
       115   0             -2181.2083      875.5128       865.27251      802.80492      958.46096     -43.983391     -171.37327      30.342354      17.692018      17.685267      17.686851      5534.0044    
       116   0             -2181.2083      875.3059       865.0466       802.52718      958.34392     -44.053317     -171.22235      30.297325      17.692018      17.685267      17.686851      5534.0044    
       117   0             -2181.2083      875.21969      864.96444      802.4025       958.29213     -44.059404     -171.20856      30.276838      17.692018      17.685267      17.686851      5534.0044    
       118   0             -2181.2083      875.21327      864.9155       802.40814      958.31618     -44.076907     -171.21716      30.265894      17.692018      17.685267      17.686851      5534.0044    
       119   0             -2181.2083      875.18333      864.87155      802.39346      958.28499     -44.072251     -171.21449      30.270408      17.692018      17.685267      17.686851      5534.0044    
       120   0             -2181.2083      875.22156      864.90954      802.41429      958.34084     -44.080697     -171.20639      30.273866      17.692018      17.685267      17.686851      5534.0044    
       121   0             -2181.2083      875.28646      864.98342      802.47162      958.40434     -44.081982     -171.21921      30.26744       17.692018      17.685267      17.686851      5534.0044    
       122   0             -2181.2083      875.25628      864.95872      802.43943      958.37069     -44.084736     -171.22196      30.256959      17.692018      17.685267      17.686851      5534.0044    
       123   0             -2181.2083      875.227        864.93291      802.40488      958.34319     -44.087809     -171.21542      30.250566      17.692018      17.685267      17.686851      5534.0044    
       124   0             -2181.2083      875.22238      864.93325      802.39649      958.33739     -44.092749     -171.21578      30.249087      17.692018      17.685267      17.686851      5534.0044    
       125   0             -2181.2083      875.2188       864.93112      802.3936       958.33167     -44.092515     -171.21483      30.248291      17.692018      17.685267      17.686851      5534.0044    
       126   0             -2181.2083      875.22616      864.93747      802.40145      958.33954     -44.090491     -171.21405      30.247105      17.692018      17.685267      17.686851      5534.0044    
       127   0             -2181.2083      875.23071      864.94153      802.40665      958.34396     -44.090864     -171.21356      30.246463      17.692018      17.685267      17.686851      5534.0044    
       128   0             -2181.2083      875.22873      864.93848      802.40533      958.3424      -44.091207     -171.21274      30.246333      17.692018      17.685267      17.686851      5534.0044    
       129   0             -2181.2083      875.22847      864.93763      802.40539      958.34238     -44.090787     -171.21345      30.246874      17.692018      17.685267      17.686851      5534.0044    
       130   0             -2181.2083      875.22861      864.93776      802.40561      958.34247     -44.090815     -171.21315      30.247283      17.692018      17.685267      17.686851      5534.0044    
       131   0             -2181.2083      875.22878      864.93817      802.40546      958.34271     -44.091134     -171.2131       30.247245      17.692018      17.685267      17.686851      5534.0044    
       132   0             -2181.2083      875.22824      864.93801      802.40464      958.34206     -44.091077     -171.21321      30.247062      17.692018      17.685267      17.686851      5534.0044    
       133   0             -2181.2083      875.22838      864.93827      802.40484      958.34204     -44.090964     -171.21336      30.247177      17.692018      17.685267      17.686851      5534.0044    
       134   0             -2181.2083      875.22833      864.93823      802.40488      958.34189     -44.090872     -171.21344      30.247355      17.692018      17.685267      17.686851      5534.0044    
       135   0             -2181.2083      875.22816      864.93801      802.40477      958.3417      -44.090837     -171.21343      30.247382      17.692018      17.685267      17.686851      5534.0044    
       136   0             -2181.2083      875.22824      864.93805      802.40484      958.34184     -44.090813     -171.2134       30.247327      17.692018      17.685267      17.686851      5534.0044    
       137   0             -2181.2083      875.22821      864.93803      802.4048       958.34182     -44.090832     -171.2134       30.247328      17.692018      17.685267      17.686851      5534.0044    
       138   0             -2181.2083      875.22819      864.93801      802.40477      958.34179     -44.090834     -171.2134       30.247328      17.692018      17.685267      17.686851      5534.0044    
       139   0             -2181.2083      875.2282       864.93801      802.40478      958.3418      -44.090839     -171.21339      30.247342      17.692018      17.685267      17.686851      5534.0044    
       140   0             -2181.2083      875.22821      864.93802      802.40479      958.34182     -44.090841     -171.2134       30.247342      17.692018      17.685267      17.686851      5534.0044    
       141   0             -2181.2083      875.22821      864.93802      802.40479      958.34182     -44.090846     -171.2134       30.247343      17.692018      17.685267      17.686851      5534.0044    
       142   0             -2181.2083      875.22821      864.93802      802.40479      958.34182     -44.090844     -171.2134       30.247343      17.692018      17.685267      17.686851      5534.0044    
       143   0             -2181.2083      875.22821      864.93801      802.40479      958.34182     -44.090844     -171.2134       30.247344      17.692018      17.685267      17.686851      5534.0044    
       144   0             -2181.2083      875.22821      864.93801      802.40479      958.34182     -44.090844     -171.2134       30.247345      17.692018      17.685267      17.686851      5534.0044    
       145   0             -2181.2083      875.22821      864.93801      802.40479      958.34182     -44.090845     -171.2134       30.247346      17.692018      17.685267      17.686851      5534.0044    
       146   0             -2181.2083      875.22821      864.93801      802.40479      958.34182     -44.090845     -171.2134       30.247346      17.692018      17.685267      17.686851      5534.0044    
       147   0             -2181.2083      875.22821      864.93801      802.40479      958.34181     -44.090845     -171.2134       30.247347      17.692018      17.685267      17.686851      5534.0044    
       148   0             -2181.2083      875.22821      864.93801      802.40479      958.34181     -44.090845     -171.2134       30.247347      17.692018      17.685267      17.686851      5534.0044    
       149   0             -2181.2083      875.2282       864.93801      802.40479      958.34181     -44.090845     -171.2134       30.247347      17.692018      17.685267      17.686851      5534.0044    
       150   0             -2181.2083      875.2282       864.93801      802.40479      958.34181     -44.090845     -171.2134       30.247347      17.692018      17.685267      17.686851      5534.0044    
       151   0             -2181.2083      875.2282       864.93801      802.40479      958.34181     -44.090846     -171.2134       30.247346      17.692018      17.685267      17.686851      5534.0044    
       152   0             -2181.2083      875.22821      864.93801      802.40479      958.34182     -44.090845     -171.2134       30.247346      17.692018      17.685267      17.686851      5534.0044    
       153   0             -2181.2083      875.22821      864.93801      802.40479      958.34181     -44.090845     -171.2134       30.247346      17.692018      17.685267      17.686851      5534.0044    
       154   0             -2181.2083      875.2282       864.93801      802.40479      958.34181     -44.090845     -171.2134       30.247346      17.692018      17.685267      17.686851      5534.0044    
       155   0             -2181.2083      875.2282       864.93801      802.40479      958.34181     -44.090845     -171.2134       30.247346      17.692018      17.685267      17.686851      5534.0044    
       156   0             -2181.2083      875.2282       864.93801      802.40479      958.34181     -44.090845     -171.2134       30.247346      17.692018      17.685267      17.686851      5534.0044    
       157   0             -2181.2083      875.2282       864.93801      802.40479      958.34181     -44.090845     -171.2134       30.247346      17.692018      17.685267      17.686851      5534.0044    
       158   0             -2181.2083      875.2282       864.93801      802.40479      958.34181     -44.090845     -171.2134       30.247346      17.692018      17.685267      17.686851      5534.0044    
       159   0             -2181.2083      875.2282       864.93801      802.40479      958.34181     -44.090845     -171.2134       30.247346      17.692018      17.685267      17.686851      5534.0044    
       160   0             -2181.2083      875.2282       864.93801      802.40479      958.34181     -44.090845     -171.2134       30.247346      17.692018      17.685267      17.686851      5534.0044    
       161   0             -2181.2083      875.2282       864.93801      802.40479      958.34181     -44.090845     -171.2134       30.247346      17.692018      17.685267      17.686851      5534.0044    
Loop time of 0.141338 on 1 procs for 61 steps with 500 atoms

99.5% CPU use with 1 MPI tasks x 1 OpenMP threads

Minimization stats:
  Stopping criterion = force tolerance
  Energy initial, next-to-last, final = 
     -2181.01439262371  -2181.20833184887  -2181.20833184887
  Force two-norm initial, final = 1.7023307 6.6238537e-11
  Force max component initial, final = 0.16205557 7.7145026e-12
  Final line search alpha, max atom move = 1 7.7145026e-12
  Iterations, force evaluations = 61 120

MPI task timing breakdown:
Section |  min time  |  avg time  |  max time  |%varavg| %total
---------------------------------------------------------------
Pair    | 0.13875    | 0.13875    | 0.13875    |   0.0 | 98.17
Neigh   | 0          | 0          | 0          |   0.0 |  0.00
Comm    | 0.000718   | 0.000718   | 0.000718   |   0.0 |  0.51
Output  | 0.000913   | 0.000913   | 0.000913   |   0.0 |  0.65
Modify  | 0          | 0          | 0          |   0.0 |  0.00
Other   |            | 0.000958   |            |       |  0.68

Nlocal:            500 ave         500 max         500 min
Histogram: 1 0 0 0 0 0 0 0 0 0
Nghost:           1956 ave        1956 max        1956 min
Histogram: 1 0 0 0 0 0 0 0 0 0
Neighs:          33500 ave       33500 max       33500 min
Histogram: 1 0 0 0 0 0 0 0 0 0

Total # of neighbors = 33500
Ave neighs/atom = 67
Neighbor list builds = 0
Dangerous builds = 0
OMP_NUM_THREADS environment is not set. Defaulting to 1 thread. (src/comm.cpp:98)
  using 1 OpenMP thread(s) per MPI task
Loaded 1 plugins from F:\Lammps\LAMMPS 64-bit 2Aug2023\plugins

The 'box' command has been removed and will be ignored

Reading restart file ...
  restart file = 2 Aug 2023, LAMMPS = 2 Aug 2023
  restoring atom style atomic from restart
  triclinic box = (0.04899975 0.052366694 0.051574684) to (17.741 17.737633 17.738425) with tilt (0 0 0)
  1 by 1 by 1 MPI processor grid
  pair style eam/alloy stores no restart info
  500 atoms
  read_restart CPU = 0.000 seconds
Changing box ...
  triclinic box = (0.04899975 0.052366694 0.051574684) to (17.741 17.737616 17.738425) with tilt (0 0 0)
  triclinic box = (0.04899975 0.052366694 0.051574684) to (17.741 17.737616 17.738425) with tilt (0 0 0)
Neighbor list info ...
  update: every = 1 steps, delay = 0 steps, check = yes
  max neighbors/atom: 2000, page size: 100000
  master list distance cutoff = 6.80375
  ghost atom cutoff = 6.80375
  1 neighbor lists, perpetual/occasional/extra = 1 0 0
  (1) pair eam/alloy, perpetual
      attributes: half, newton on
      pair build: half/nsq/newton
      stencil: none
      bin: none
Setting up cg style minimization ...
  Unit style    : metal
  Current step  : 100
Per MPI rank memory allocation (min/avg/max) = 4.482 | 4.482 | 4.482 Mbytes
   Step          Temp          PotEng         Press           Pxx            Pyy            Pzz            Pxy            Pxz            Pyz             Lx             Ly             Lz           Volume    
       100   0             -2181.0144     -244.97622     -229.02883     -253.55245     -252.34738     -131.26443     -117.67809      67.592091      17.692         17.685249      17.686851      5533.9933    
       101   0             -2181.1398      533.76581      555.40885      499.22914      546.65943     -82.472639     -165.13756      52.869666      17.692         17.685249      17.686851      5533.9933    
       102   0             -2181.1911      1004.9747      1019.0203      934.81412      1061.0897     -40.290744     -169.65652      24.819356      17.692         17.685249      17.686851      5533.9933    
       103   0             -2181.2019      913.24496      914.89857      839.26094      985.57538     -48.965076     -177.66707      34.170139      17.692         17.685249      17.686851      5533.9933    
       104   0             -2181.206       818.93421      812.50359      747.4029       896.89614     -49.289778     -167.86117      34.399432      17.692         17.685249      17.686851      5533.9933    
       105   0             -2181.2076      902.16539      894.8404       830.22212      981.43365     -42.522508     -172.39463      28.488152      17.692         17.685249      17.686851      5533.9933    
       106   0             -2181.208       898.98029      890.31743      828.90636      977.71708     -41.949609     -171.30187      28.963436      17.692         17.685249      17.686851      5533.9933    
       107   0             -2181.2082      875.44204      865.8044       804.73576      955.78596     -44.416711     -170.57673      29.022714      17.692         17.685249      17.686851      5533.9933    
       108   0             -2181.2082      876.20052      866.7535       805.54264      956.30541     -44.90734      -170.98424      29.261035      17.692         17.685249      17.686851      5533.9933    
       109   0             -2181.2083      881.20876      871.73012      810.52396      961.37219     -43.99054      -171.16772      29.527212      17.692         17.685249      17.686851      5533.9933    
       110   0             -2181.2083      877.84035      867.86109      806.69234      958.96763     -43.913794     -170.75785      29.73137       17.692         17.685249      17.686851      5533.9933    
       111   0             -2181.2083      878.54208      868.25166      806.89247      960.48212     -44.090199     -171.36142      30.073408      17.692         17.685249      17.686851      5533.9933    
       112   0             -2181.2083      879.65669      869.62642      807.70758      961.63607     -44.262322     -171.20677      30.597231      17.692         17.685249      17.686851      5533.9933    
       113   0             -2181.2083      878.09396      868.27845      805.88774      960.11569     -44.064813     -170.98418      30.34334       17.692         17.685249      17.686851      5533.9933    
       114   0             -2181.2083      878.48234      868.53445      806.25111      960.66147     -43.996275     -171.29446      30.425968      17.692         17.685249      17.686851      5533.9933    
       115   0             -2181.2083      879.15758      869.22442      806.75121      961.49713     -43.984524     -171.36868      30.33752       17.692         17.685249      17.686851      5533.9933    
       116   0             -2181.2083      878.95081      868.99863      806.47358      961.38021     -44.054442     -171.21776      30.292483      17.692         17.685249      17.686851      5533.9933    
       117   0             -2181.2083      878.8645       868.91639      806.34881      961.32831     -44.060526     -171.20395      30.271984      17.692         17.685249      17.686851      5533.9933    
       118   0             -2181.2083      878.85816      868.86751      806.35452      961.35245     -44.078036     -171.21256      30.261047      17.692         17.685249      17.686851      5533.9933    
       119   0             -2181.2083      878.82824      868.82359      806.33986      961.32128     -44.073377     -171.2099       30.265565      17.692         17.685249      17.686851      5533.9933    
       120   0             -2181.2083      878.86641      868.86152      806.36063      961.37707     -44.081822     -171.20178      30.269021      17.692         17.685249      17.686851      5533.9933    
       121   0             -2181.2083      878.93132      868.93541      806.41796      961.44058     -44.083108     -171.2146       30.262596      17.692         17.685249      17.686851      5533.9933    
       122   0             -2181.2083      878.90116      868.91074      806.3858       961.40695     -44.08586      -171.21736      30.252114      17.692         17.685249      17.686851      5533.9933    
       123   0             -2181.2083      878.87186      868.88492      806.35124      961.37944     -44.088935     -171.21082      30.245721      17.692         17.685249      17.686851      5533.9933    
       124   0             -2181.2083      878.86725      868.88526      806.34285      961.37364     -44.093876     -171.21118      30.244242      17.692         17.685249      17.686851      5533.9933    
       125   0             -2181.2083      878.86367      868.88313      806.33996      961.36792     -44.093641     -171.21023      30.243446      17.692         17.685249      17.686851      5533.9933    
       126   0             -2181.2083      878.87102      868.88948      806.3478       961.37579     -44.091616     -171.20944      30.242259      17.692         17.685249      17.686851      5533.9933    
       127   0             -2181.2083      878.87558      868.89353      806.35301      961.3802      -44.09199      -171.20896      30.241618      17.692         17.685249      17.686851      5533.9933    
       128   0             -2181.2083      878.8736       868.89048      806.35169      961.37864     -44.092333     -171.20814      30.241488      17.692         17.685249      17.686851      5533.9933    
       129   0             -2181.2083      878.87334      868.88964      806.35175      961.37863     -44.091913     -171.20885      30.242029      17.692         17.685249      17.686851      5533.9933    
       130   0             -2181.2083      878.87348      868.88977      806.35196      961.37871     -44.091941     -171.20854      30.242438      17.692         17.685249      17.686851      5533.9933    
       131   0             -2181.2083      878.87365      868.89018      806.35181      961.37896     -44.09226      -171.20849      30.242401      17.692         17.685249      17.686851      5533.9933    
       132   0             -2181.2083      878.87311      868.89001      806.351        961.37831     -44.092203     -171.20861      30.242217      17.692         17.685249      17.686851      5533.9933    
       133   0             -2181.2083      878.87325      868.89027      806.35119      961.37828     -44.09209      -171.20876      30.242332      17.692         17.685249      17.686851      5533.9933    
       134   0             -2181.2083      878.8732       868.89024      806.35124      961.37814     -44.091998     -171.20884      30.24251       17.692         17.685249      17.686851      5533.9933    
       135   0             -2181.2083      878.87303      868.89002      806.35113      961.37795     -44.091963     -171.20882      30.242537      17.692         17.685249      17.686851      5533.9933    
       136   0             -2181.2083      878.87311      868.89006      806.3512       961.37808     -44.091939     -171.2088       30.242482      17.692         17.685249      17.686851      5533.9933    
       137   0             -2181.2083      878.87308      868.89003      806.35116      961.37806     -44.091958     -171.2088       30.242483      17.692         17.685249      17.686851      5533.9933    
       138   0             -2181.2083      878.87306      868.89002      806.35113      961.37804     -44.09196      -171.2088       30.242484      17.692         17.685249      17.686851      5533.9933    
       139   0             -2181.2083      878.87307      868.89001      806.35114      961.37805     -44.091964     -171.20879      30.242497      17.692         17.685249      17.686851      5533.9933    
       140   0             -2181.2083      878.87308      868.89003      806.35115      961.37807     -44.091967     -171.2088       30.242497      17.692         17.685249      17.686851      5533.9933    
       141   0             -2181.2083      878.87308      868.89002      806.35114      961.37806     -44.091972     -171.2088       30.242499      17.692         17.685249      17.686851      5533.9933    
       142   0             -2181.2083      878.87308      868.89003      806.35115      961.37807     -44.09197      -171.2088       30.242498      17.692         17.685249      17.686851      5533.9933    
       143   0             -2181.2083      878.87308      868.89002      806.35115      961.37806     -44.091969     -171.20879      30.242499      17.692         17.685249      17.686851      5533.9933    
       144   0             -2181.2083      878.87308      868.89002      806.35115      961.37806     -44.09197      -171.2088       30.2425        17.692         17.685249      17.686851      5533.9933    
       145   0             -2181.2083      878.87308      868.89002      806.35115      961.37806     -44.091971     -171.2088       30.242501      17.692         17.685249      17.686851      5533.9933    
       146   0             -2181.2083      878.87308      868.89002      806.35115      961.37806     -44.091971     -171.2088       30.242501      17.692         17.685249      17.686851      5533.9933    
       147   0             -2181.2083      878.87307      868.89002      806.35115      961.37806     -44.091971     -171.2088       30.242502      17.692         17.685249      17.686851      5533.9933    
       148   0             -2181.2083      878.87307      868.89002      806.35115      961.37806     -44.091971     -171.2088       30.242502      17.692         17.685249      17.686851      5533.9933    
       149   0             -2181.2083      878.87307      868.89002      806.35115      961.37806     -44.091971     -171.2088       30.242502      17.692         17.685249      17.686851      5533.9933    
       150   0             -2181.2083      878.87307      868.89002      806.35115      961.37806     -44.091971     -171.2088       30.242502      17.692         17.685249      17.686851      5533.9933    
       151   0             -2181.2083      878.87307      868.89002      806.35115      961.37806     -44.091971     -171.2088       30.242502      17.692         17.685249      17.686851      5533.9933    
       152   0             -2181.2083      878.87307      868.89002      806.35115      961.37806     -44.091971     -171.2088       30.242502      17.692         17.685249      17.686851      5533.9933    
       153   0             -2181.2083      878.87307      868.89002      806.35115      961.37806     -44.091971     -171.2088       30.242501      17.692         17.685249      17.686851      5533.9933    
       154   0             -2181.2083      878.87307      868.89002      806.35115      961.37806     -44.091971     -171.2088       30.242501      17.692         17.685249      17.686851      5533.9933    
       155   0             -2181.2083      878.87307      868.89002      806.35115      961.37806     -44.091971     -171.2088       30.242501      17.692         17.685249      17.686851      5533.9933    
       156   0             -2181.2083      878.87307      868.89002      806.35115      961.37806     -44.091971     -171.2088       30.242501      17.692         17.685249      17.686851      5533.9933    
       157   0             -2181.2083      878.87307      868.89002      806.35115      961.37806     -44.091971     -171.2088       30.242501      17.692         17.685249      17.686851      5533.9933    
       158   0             -2181.2083      878.87307      868.89002      806.35115      961.37806     -44.091971     -171.2088       30.242501      17.692         17.685249      17.686851      5533.9933    
       159   0             -2181.2083      878.87307      868.89002      806.35115      961.37806     -44.091971     -171.2088       30.242501      17.692         17.685249      17.686851      5533.9933    
       160   0             -2181.2083      878.87307      868.89002      806.35115      961.37806     -44.091971     -171.2088       30.242501      17.692         17.685249      17.686851      5533.9933    
       161   0             -2181.2083      878.87307      868.89002      806.35115      961.37806     -44.091971     -171.2088       30.242501      17.692         17.685249      17.686851      5533.9933    
Loop time of 0.142558 on 1 procs for 61 steps with 500 atoms

98.6% CPU use with 1 MPI tasks x 1 OpenMP threads

Minimization stats:
  Stopping criterion = force tolerance
  Energy initial, next-to-last, final = 
      -2181.0143943045  -2181.20832607615  -2181.20832607615
  Force two-norm initial, final = 1.7022837 6.6242876e-11
  Force max component initial, final = 0.16205028 7.7102254e-12
  Final line search alpha, max atom move = 1 7.7102254e-12
  Iterations, force evaluations = 61 120

MPI task timing breakdown:
Section |  min time  |  avg time  |  max time  |%varavg| %total
---------------------------------------------------------------
Pair    | 0.1397     | 0.1397     | 0.1397     |   0.0 | 97.99
Neigh   | 0          | 0          | 0          |   0.0 |  0.00
Comm    | 0.000692   | 0.000692   | 0.000692   |   0.0 |  0.49
Output  | 0.000951   | 0.000951   | 0.000951   |   0.0 |  0.67
Modify  | 0          | 0          | 0          |   0.0 |  0.00
Other   |            | 0.001216   |            |       |  0.85

Nlocal:            500 ave         500 max         500 min
Histogram: 1 0 0 0 0 0 0 0 0 0
Nghost:           1956 ave        1956 max        1956 min
Histogram: 1 0 0 0 0 0 0 0 0 0
Neighs:          33500 ave       33500 max       33500 min
Histogram: 1 0 0 0 0 0 0 0 0 0

Total # of neighbors = 33500
Ave neighs/atom = 67
Neighbor list builds = 0
Dangerous builds = 0
OMP_NUM_THREADS environment is not set. Defaulting to 1 thread. (src/comm.cpp:98)
  using 1 OpenMP thread(s) per MPI task
Loaded 1 plugins from F:\Lammps\LAMMPS 64-bit 2Aug2023\plugins

The 'box' command has been removed and will be ignored

Reading restart file ...
  restart file = 2 Aug 2023, LAMMPS = 2 Aug 2023
  restoring atom style atomic from restart
  triclinic box = (0.04899975 0.052366694 0.051574684) to (17.741 17.737633 17.738425) with tilt (0 0 0)
  1 by 1 by 1 MPI processor grid
  pair style eam/alloy stores no restart info
  500 atoms
  read_restart CPU = 0.000 seconds
Changing box ...
  triclinic box = (0.04899975 0.052366694 0.051574684) to (17.741 17.737651 17.738425) with tilt (0 0 0)
  triclinic box = (0.04899975 0.052366694 0.051574684) to (17.741 17.737651 17.738425) with tilt (0 0 0)
Neighbor list info ...
  update: every = 1 steps, delay = 0 steps, check = yes
  max neighbors/atom: 2000, page size: 100000
  master list distance cutoff = 6.80375
  ghost atom cutoff = 6.80375
  1 neighbor lists, perpetual/occasional/extra = 1 0 0
  (1) pair eam/alloy, perpetual
      attributes: half, newton on
      pair build: half/nsq/newton
      stencil: none
      bin: none
Setting up cg style minimization ...
  Unit style    : metal
  Current step  : 100
Per MPI rank memory allocation (min/avg/max) = 4.482 | 4.482 | 4.482 Mbytes
   Step          Temp          PotEng         Press           Pxx            Pyy            Pzz            Pxy            Pxz            Pyz             Lx             Ly             Lz           Volume    
       100   0             -2181.0144     -248.6873      -232.1312      -258.48713     -255.44357     -131.26475     -117.67642      67.597458      17.692         17.685284      17.686851      5534.0044    
       101   0             -2181.1398      530.08102      552.32987      494.33049      543.58271     -82.475348     -165.13722      52.876016      17.692         17.685284      17.686851      5534.0044    
       102   0             -2181.1911      1001.3223      1015.9754      929.95219      1058.0395     -40.292086     -169.66094      24.829549      17.692         17.685284      17.686851      5534.0044    
       103   0             -2181.2019      909.55385      911.81214      834.36175      982.48767     -48.968601     -177.66503      34.179409      17.692         17.685284      17.686851      5534.0044    
       104   0             -2181.206       815.28225      809.45531      742.54328      893.84818     -49.290193     -167.86137      34.408059      17.692         17.685284      17.686851      5534.0044    
       105   0             -2181.2076      898.53032      891.80951      825.3787       978.40274     -42.522364     -172.39616      28.497798      17.692         17.685284      17.686851      5534.0044    
       106   0             -2181.208       895.33351      887.27421      824.05202      974.67431     -41.950119     -171.30202      28.972275      17.692         17.685284      17.686851      5534.0044    
       107   0             -2181.2082      871.79609      862.76192      799.88294      952.7434      -44.416922     -170.57738      29.031618      17.692         17.685284      17.686851      5534.0044    
       108   0             -2181.2082      872.55672      863.71316      800.69222      953.26478     -44.907506     -170.98529      29.270391      17.692         17.685284      17.686851      5534.0044    
       109   0             -2181.2083      877.56294      868.68764      805.67152      958.32966     -43.990898     -171.16839      29.536343      17.692         17.685284      17.686851      5534.0044    
       110   0             -2181.2083      874.19554      864.81965      801.84102      955.92597     -43.914173     -170.75848      29.740413      17.692         17.685284      17.686851      5534.0044    
       111   0             -2181.2083      874.89826      865.21121      802.04213      957.44145     -44.090488     -171.36228      30.082508      17.692         17.685284      17.686851      5534.0044    
       112   0             -2181.2083      876.01165      866.58471      802.85612      958.59412     -44.262604     -171.20745      30.606314      17.692         17.685284      17.686851      5534.0044    
       113   0             -2181.2083      874.44866      865.23643      801.03601      957.07353     -44.065155     -170.98485      30.352455      17.692         17.685284      17.686851      5534.0044    
       114   0             -2181.2083      874.83752      865.49294      801.39981      957.61979     -43.996577     -171.29521      30.435103      17.692         17.685284      17.686851      5534.0044    
       115   0             -2181.2083      875.51281      866.18301      801.89993      958.45549     -43.984794     -171.36939      30.346655      17.692         17.685284      17.686851      5534.0044    
       116   0             -2181.2083      875.30591      865.9571       801.62218      958.33846     -44.054717     -171.21846      30.301621      17.692         17.685284      17.686851      5534.0044    
       117   0             -2181.2083      875.2197       865.87494      801.4975       958.28665     -44.060807     -171.20468      30.281136      17.692         17.685284      17.686851      5534.0044    
       118   0             -2181.2083      875.21328      865.826        801.50314      958.31071     -44.078308     -171.21328      30.270183      17.692         17.685284      17.686851      5534.0044    
       119   0             -2181.2083      875.18335      865.78206      801.48847      958.27952     -44.073654     -171.21061      30.274699      17.692         17.685284      17.686851      5534.0044    
       120   0             -2181.2083      875.22157      865.82004      801.5093       958.33537     -44.082099     -171.20251      30.278156      17.692         17.685284      17.686851      5534.0044    
       121   0             -2181.2083      875.28647      865.89392      801.56663      958.39887     -44.083384     -171.21532      30.271732      17.692         17.685284      17.686851      5534.0044    
       122   0             -2181.2083      875.25629      865.86923      801.53444      958.36522     -44.086138     -171.21807      30.261251      17.692         17.685284      17.686851      5534.0044    
       123   0             -2181.2083      875.22701      865.84342      801.49989      958.33772     -44.089211     -171.21154      30.254858      17.692         17.685284      17.686851      5534.0044    
       124   0             -2181.2083      875.2224       865.84376      801.49151      958.33192     -44.094152     -171.2119       30.253379      17.692         17.685284      17.686851      5534.0044    
       125   0             -2181.2083      875.21881      865.84163      801.48861      958.3262      -44.093917     -171.21095      30.252584      17.692         17.685284      17.686851      5534.0044    
       126   0             -2181.2083      875.22617      865.84798      801.49646      958.33407     -44.091893     -171.21016      30.251397      17.692         17.685284      17.686851      5534.0044    
       127   0             -2181.2083      875.23073      865.85203      801.50167      958.33848     -44.092266     -171.20968      30.250755      17.692         17.685284      17.686851      5534.0044    
       128   0             -2181.2083      875.22875      865.84898      801.50034      958.33692     -44.092609     -171.20886      30.250625      17.692         17.685284      17.686851      5534.0044    
       129   0             -2181.2083      875.22848      865.84814      801.5004       958.33691     -44.09219      -171.20957      30.251167      17.692         17.685284      17.686851      5534.0044    
       130   0             -2181.2083      875.22863      865.84827      801.50062      958.33699     -44.092218     -171.20926      30.251575      17.692         17.685284      17.686851      5534.0044    
       131   0             -2181.2083      875.22879      865.84868      801.50047      958.33723     -44.092537     -171.20921      30.251538      17.692         17.685284      17.686851      5534.0044    
       132   0             -2181.2083      875.22825      865.84851      801.49966      958.33659     -44.092479     -171.20933      30.251354      17.692         17.685284      17.686851      5534.0044    
       133   0             -2181.2083      875.22839      865.84877      801.49985      958.33656     -44.092367     -171.20948      30.251469      17.692         17.685284      17.686851      5534.0044    
[...]
       155   0             -2181.2083      877.05033      867.36809      803.92562      959.8573      -42.916486     -171.2089       30.248413      17.692         17.685267      17.686851      5533.9988    
       156   0             -2181.2083      877.05033      867.36809      803.92562      959.8573      -42.916486     -171.2089       30.248412      17.692         17.685267      17.686851      5533.9988    
       157   0             -2181.2083      877.05033      867.36809      803.92562      959.8573      -42.916486     -171.2089       30.248412      17.692         17.685267      17.686851      5533.9988    
       158   0             -2181.2083      877.05033      867.36809      803.92562      959.8573      -42.916486     -171.2089       30.248412      17.692         17.685267      17.686851      5533.9988    
       159   0             -2181.2083      877.05033      867.36809      803.92562      959.8573      -42.916486     -171.2089       30.248412      17.692         17.685267      17.686851      5533.9988    
       160   0             -2181.2083      877.05033      867.36809      803.92562      959.8573      -42.916486     -171.2089       30.248412      17.692         17.685267      17.686851      5533.9988    
       161   0             -2181.2083      877.05033      867.36809      803.92562      959.8573      -42.916486     -171.2089       30.248412      17.692         17.685267      17.686851      5533.9988    
Loop time of 0.149925 on 1 procs for 61 steps with 500 atoms

104.2% CPU use with 1 MPI tasks x 1 OpenMP threads

Minimization stats:
  Stopping criterion = force tolerance
  Energy initial, next-to-last, final = 
     -2181.01439387575  -2181.20832900741  -2181.20832900741
  Force two-norm initial, final = 1.7023054 6.6239614e-11
  Force max component initial, final = 0.16205292 7.718785e-12
  Final line search alpha, max atom move = 1 7.718785e-12
  Iterations, force evaluations = 61 120

MPI task timing breakdown:
Section |  min time  |  avg time  |  max time  |%varavg| %total
---------------------------------------------------------------
Pair    | 0.14679    | 0.14679    | 0.14679    |   0.0 | 97.91
Neigh   | 0          | 0          | 0          |   0.0 |  0.00
Comm    | 0.000733   | 0.000733   | 0.000733   |   0.0 |  0.49
Output  | 0.000998   | 0.000998   | 0.000998   |   0.0 |  0.67
Modify  | 0          | 0          | 0          |   0.0 |  0.00
Other   |            | 0.001406   |            |       |  0.94

Nlocal:            500 ave         500 max         500 min
Histogram: 1 0 0 0 0 0 0 0 0 0
Nghost:           1956 ave        1956 max        1956 min
Histogram: 1 0 0 0 0 0 0 0 0 0
Neighs:          33500 ave       33500 max       33500 min
Histogram: 1 0 0 0 0 0 0 0 0 0

Total # of neighbors = 33500
Ave neighs/atom = 67
Neighbor list builds = 0
Dangerous builds = 0
OMP_NUM_THREADS environment is not set. Defaulting to 1 thread. (src/comm.cpp:98)
  using 1 OpenMP thread(s) per MPI task
Loaded 1 plugins from F:\Lammps\LAMMPS 64-bit 2Aug2023\plugins

The 'box' command has been removed and will be ignored

Reading restart file ...
  restart file = 2 Aug 2023, LAMMPS = 2 Aug 2023
  restoring atom style atomic from restart
  triclinic box = (0.04899975 0.052366694 0.051574684) to (17.741 17.737633 17.738425) with tilt (0 0 0)
  1 by 1 by 1 MPI processor grid
  pair style eam/alloy stores no restart info
  500 atoms
  read_restart CPU = 0.000 seconds
Changing box ...
  triclinic box = (0.04899975 0.052366694 0.051574684) to (17.741 17.737633 17.738425) with tilt (1.7685267e-05 0 0)
Neighbor list info ...
  update: every = 1 steps, delay = 0 steps, check = yes
  max neighbors/atom: 2000, page size: 100000
  master list distance cutoff = 6.80375
  ghost atom cutoff = 6.80375
  1 neighbor lists, perpetual/occasional/extra = 1 0 0
  (1) pair eam/alloy, perpetual
      attributes: half, newton on
      pair build: half/nsq/newton
      stencil: none
      bin: none
Setting up cg style minimization ...
  Unit style    : metal
  Current step  : 100
Per MPI rank memory allocation (min/avg/max) = 4.482 | 4.482 | 4.482 Mbytes
   Step          Temp          PotEng         Press           Pxx            Pyy            Pzz            Pxy            Pxz            Pyz             Lx             Ly             Lz           Volume    
       100   0             -2181.0144     -246.832       -230.57935     -256.01995     -253.89669     -132.45076     -117.67772      67.594965      17.692         17.685267      17.686851      5533.9988    
       101   0             -2181.1398      531.92401      553.87057      496.78007      545.12137     -83.65308      -165.13767      52.871875      17.692         17.685267      17.686851      5533.9988    
       102   0             -2181.1911      1003.1442      1017.4942      932.37876      1059.5598     -41.468701     -169.65894      24.823314      17.692         17.685267      17.686851      5533.9988    
       103   0             -2181.2019      911.3965       913.3533       836.80821      984.02799     -50.14296      -177.6665       34.173961      17.692         17.685267      17.686851      5533.9988    
       104   0             -2181.206       817.1074       810.97951      744.97173      895.37095     -50.465521     -167.86167      34.402627      17.692         17.685267      17.686851      5533.9988    
       105   0             -2181.2076      900.34882      893.32677      827.80074      979.91896     -43.698386     -172.39562      28.491633      17.692         17.685267      17.686851      5533.9988    
       106   0             -2181.208       897.15785      888.7976       826.47957      976.19638     -43.125607     -171.30224      28.966518      17.692         17.685267      17.686851      5533.9988    
       107   0             -2181.2082      873.61942      864.28437      802.30928      954.26461     -45.592506     -170.57732      29.025857      17.692         17.685267      17.686851      5533.9988    
       108   0             -2181.2082      874.37871      865.23428      803.1171       954.78475     -46.083235     -170.98501      29.264381      17.692         17.685267      17.686851      5533.9988    
       109   0             -2181.2083      879.38609      870.20997      808.09753      959.85076     -45.166472     -171.16832      29.530435      17.692         17.685267      17.686851      5533.9988    
       110   0             -2181.2083      876.01833      866.3416       804.26662      957.44678     -45.089632     -170.75842      29.734564      17.692         17.685267      17.686851      5533.9988    
       111   0             -2181.2083      876.72051      866.73263      804.46717      958.96173     -45.266003     -171.3621       30.076621      17.692         17.685267      17.686851      5533.9988    
       112   0             -2181.2083      877.83445      868.10671      805.28168      960.11496     -45.438094     -171.20736      30.600418      17.692         17.685267      17.686851      5533.9988    
       113   0             -2181.2083      876.27158      866.75857      803.46171      958.59446     -45.240579     -170.98477      30.346553      17.692         17.685267      17.686851      5533.9988    
       114   0             -2181.2083      876.66021      867.01484      803.8253       959.14049     -45.172034     -171.29509      30.429193      17.692         17.685267      17.686851      5533.9988    
       115   0             -2181.2083      877.33551      867.70489      804.32544      959.9762      -45.160268     -171.36928      30.340741      17.692         17.685267      17.686851      5533.9988    
       116   0             -2181.2083      877.12867      867.47905      804.04775      959.85923     -45.23019      -171.21836      30.295706      17.692         17.685267      17.686851      5533.9988    
       117   0             -2181.2083      877.04241      867.39684      803.92302      959.80737     -45.236285     -171.20457      30.275215      17.692         17.685267      17.686851      5533.9988    
       118   0             -2181.2083      877.03603      867.34793      803.92869      959.83147     -45.253794     -171.21317      30.264272      17.692         17.685267      17.686851      5533.9988    
       119   0             -2181.2083      877.00611      867.304        803.91403      959.80029     -45.249136     -171.21051      30.268789      17.692         17.685267      17.686851      5533.9988    
       120   0             -2181.2083      877.0443       867.34196      803.93483      959.85612     -45.257581     -171.2024       30.272246      17.692         17.685267      17.686851      5533.9988    
       121   0             -2181.2083      877.10921      867.41584      803.99216      959.91962     -45.258868     -171.21522      30.265822      17.692         17.685267      17.686851      5533.9988    
       122   0             -2181.2083      877.07904      867.39116      803.95998      959.88598     -45.261621     -171.21797      30.25534       17.692         17.685267      17.686851      5533.9988    
       123   0             -2181.2083      877.04975      867.36534      803.92543      959.85847     -45.264695     -171.21143      30.248947      17.692         17.685267      17.686851      5533.9988    
       124   0             -2181.2083      877.04513      867.36568      803.91704      959.85267     -45.269637     -171.21179      30.247468      17.692         17.685267      17.686851      5533.9988    
       125   0             -2181.2083      877.04155      867.36355      803.91415      959.84696     -45.269402     -171.21084      30.246673      17.692         17.685267      17.686851      5533.9988    
       126   0             -2181.2083      877.04891      867.3699       803.922        959.85482     -45.267378     -171.21006      30.245486      17.692         17.685267      17.686851      5533.9988    
       127   0             -2181.2083      877.05346      867.37396      803.9272       959.85924     -45.267752     -171.20957      30.244844      17.692         17.685267      17.686851      5533.9988    
       128   0             -2181.2083      877.05149      867.37091      803.92588      959.85768     -45.268095     -171.20875      30.244714      17.692         17.685267      17.686851      5533.9988    
       129   0             -2181.2083      877.05122      867.37006      803.92594      959.85766     -45.267675     -171.20947      30.245256      17.692         17.685267      17.686851      5533.9988    
       130   0             -2181.2083      877.05137      867.37019      803.92615      959.85775     -45.267703     -171.20916      30.245664      17.692         17.685267      17.686851      5533.9988    
       131   0             -2181.2083      877.05153      867.3706       803.926        959.85799     -45.268022     -171.20911      30.245627      17.692         17.685267      17.686851      5533.9988    
       132   0             -2181.2083      877.05099      867.37044      803.92519      959.85734     -45.267965     -171.20922      30.245443      17.692         17.685267      17.686851      5533.9988    
       133   0             -2181.2083      877.05113      867.37069      803.92539      959.85732     -45.267852     -171.20938      30.245558      17.692         17.685267      17.686851      5533.9988    
       134   0             -2181.2083      877.05109      867.37066      803.92543      959.85717     -45.26776      -171.20945      30.245736      17.692         17.685267      17.686851      5533.9988    
       135   0             -2181.2083      877.05091      867.37044      803.92532      959.85698     -45.267725     -171.20944      30.245763      17.692         17.685267      17.686851      5533.9988    
       136   0             -2181.2083      877.051        867.37048      803.92539      959.85712     -45.267701     -171.20941      30.245708      17.692         17.685267      17.686851      5533.9988    
       137   0             -2181.2083      877.05097      867.37046      803.92535      959.8571      -45.26772      -171.20941      30.245709      17.692         17.685267      17.686851      5533.9988    
       138   0             -2181.2083      877.05094      867.37044      803.92532      959.85707     -45.267722     -171.20941      30.24571       17.692         17.685267      17.686851      5533.9988    
       139   0             -2181.2083      877.05095      867.37044      803.92533      959.85708     -45.267726     -171.20941      30.245723      17.692         17.685267      17.686851      5533.9988    
       140   0             -2181.2083      877.05096      867.37045      803.92534      959.8571      -45.267729     -171.20941      30.245724      17.692         17.685267      17.686851      5533.9988    
       141   0             -2181.2083      877.05096      867.37045      803.92533      959.8571      -45.267734     -171.20941      30.245725      17.692         17.685267      17.686851      5533.9988    
       142   0             -2181.2083      877.05096      867.37045      803.92534      959.8571      -45.267732     -171.20941      30.245724      17.692         17.685267      17.686851      5533.9988    
       143   0             -2181.2083      877.05096      867.37044      803.92534      959.8571      -45.267731     -171.20941      30.245725      17.692         17.685267      17.686851      5533.9988    
       144   0             -2181.2083      877.05096      867.37044      803.92534      959.8571      -45.267732     -171.20941      30.245727      17.692         17.685267      17.686851      5533.9988    
       145   0             -2181.2083      877.05096      867.37044      803.92534      959.8571      -45.267733     -171.20941      30.245727      17.692         17.685267      17.686851      5533.9988    
       146   0             -2181.2083      877.05096      867.37044      803.92534      959.8571      -45.267733     -171.20941      30.245727      17.692         17.685267      17.686851      5533.9988    
       147   0             -2181.2083      877.05096      867.37044      803.92534      959.85709     -45.267733     -171.20941      30.245728      17.692         17.685267      17.686851      5533.9988    
       148   0             -2181.2083      877.05096      867.37044      803.92534      959.8571      -45.267733     -171.20941      30.245728      17.692         17.685267      17.686851      5533.9988    
       149   0             -2181.2083      877.05096      867.37044      803.92534      959.85709     -45.267733     -171.20941      30.245728      17.692         17.685267      17.686851      5533.9988    
       150   0             -2181.2083      877.05096      867.37044      803.92534      959.8571      -45.267733     -171.20941      30.245728      17.692         17.685267      17.686851      5533.9988    
       151   0             -2181.2083      877.05096      867.37044      803.92534      959.8571      -45.267733     -171.20941      30.245728      17.692         17.685267      17.686851      5533.9988    
       152   0             -2181.2083      877.05096      867.37044      803.92534      959.8571      -45.267733     -171.20941      30.245728      17.692         17.685267      17.686851      5533.9988    
       153   0             -2181.2083      877.05096      867.37044      803.92534      959.8571      -45.267733     -171.20941      30.245728      17.692         17.685267      17.686851      5533.9988    
       154   0             -2181.2083      877.05096      867.37044      803.92534      959.8571      -45.267733     -171.20941      30.245728      17.692         17.685267      17.686851      5533.9988    
       155   0             -2181.2083      877.05096      867.37044      803.92534      959.8571      -45.267733     -171.20941      30.245728      17.692         17.685267      17.686851      5533.9988    
       156   0             -2181.2083      877.05096      867.37044      803.92534      959.8571      -45.267733     -171.20941      30.245728      17.692         17.685267      17.686851      5533.9988    
       157   0             -2181.2083      877.05096      867.37044      803.92534      959.8571      -45.267733     -171.20941      30.245728      17.692         17.685267      17.686851      5533.9988    
       158   0             -2181.2083      877.05096      867.37044      803.92534      959.8571      -45.267733     -171.20941      30.245728      17.692         17.685267      17.686851      5533.9988    
       159   0             -2181.2083      877.05096      867.37044      803.92534      959.8571      -45.267733     -171.20941      30.245728      17.692         17.685267      17.686851      5533.9988    
       160   0             -2181.2083      877.05096      867.37044      803.92534      959.8571      -45.267733     -171.20941      30.245727      17.692         17.685267      17.686851      5533.9988    
       161   0             -2181.2083      877.05096      867.37044      803.92534      959.8571      -45.267733     -171.20941      30.245727      17.692         17.685267      17.686851      5533.9988    
Loop time of 0.143373 on 1 procs for 61 steps with 500 atoms

98.1% CPU use with 1 MPI tasks x 1 OpenMP threads

Minimization stats:
  Stopping criterion = force tolerance
  Energy initial, next-to-last, final = 
       -2181.014392969  -2181.20832870281   -2181.2083287028
  Force two-norm initial, final = 1.7023082 6.6248217e-11
  Force max component initial, final = 0.16205256 7.7183664e-12
  Final line search alpha, max atom move = 1 7.7183664e-12
  Iterations, force evaluations = 61 120

MPI task timing breakdown:
Section |  min time  |  avg time  |  max time  |%varavg| %total
---------------------------------------------------------------
Pair    | 0.14073    | 0.14073    | 0.14073    |   0.0 | 98.16
Neigh   | 0          | 0          | 0          |   0.0 |  0.00
Comm    | 0.000723   | 0.000723   | 0.000723   |   0.0 |  0.50
Output  | 0.000966   | 0.000966   | 0.000966   |   0.0 |  0.67
Modify  | 0          | 0          | 0          |   0.0 |  0.00
Other   |            | 0.000951   |            |       |  0.66

Nlocal:            500 ave         500 max         500 min
Histogram: 1 0 0 0 0 0 0 0 0 0
Nghost:           1956 ave        1956 max        1956 min
Histogram: 1 0 0 0 0 0 0 0 0 0
Neighs:          33500 ave       33500 max       33500 min
Histogram: 1 0 0 0 0 0 0 0 0 0

Total # of neighbors = 33500
Ave neighs/atom = 67
Neighbor list builds = 0
Dangerous builds = 0
=========================================
Components of the Elastic Constant Tensor
=========================================
Elastic Constant C11all = 243.125427457999 GPa
Elastic Constant C22all = 242.567311102503 GPa
Elastic Constant C33all = 242.634087573999 GPa
Elastic Constant C12all = 152.071871710752 GPa
Elastic Constant C13all = 151.533934835501 GPa
Elastic Constant C23all = 152.078209662748 GPa
Elastic Constant C44all = 117.983996783185 GPa
Elastic Constant C55all = 117.6228810472 GPa
Elastic Constant C66all = 117.5623447211 GPa
Elastic Constant C14all = -0.0291310838043728 GPa
Elastic Constant C15all = 0.441385402074957 GPa
Elastic Constant C16all = -0.122017650059206 GPa
Elastic Constant C24all = -0.459877876179576 GPa
Elastic Constant C25all = 0.0445299173743478 GPa
Elastic Constant C26all = 0.0138422530058051 GPa
Elastic Constant C34all = -0.45814035808246 GPa
Elastic Constant C35all = 0.252388947027384 GPa
Elastic Constant C36all = 0.00794954085358768 GPa
Elastic Constant C45all = -0.0759869508475503 GPa
Elastic Constant C46all = 0.142807325104969 GPa
Elastic Constant C56all = 0.0255031958449763 GPa
=========================================
Average properties for a cubic crystal
=========================================
Bulk Modulus = 182.188317616945 GPa
Shear Modulus 1 = 117.723074183828 GPa
Shear Modulus 2 = 45.4404683209165 GPa
Poisson Ratio = 0.384864732578859
Total wall time: 0:00:02
