LAMMPS (2 Aug 2023 - Update 3)
OMP_NUM_THREADS environment is not set. Defaulting to 1 thread. (src/comm.cpp:98)
  using 1 OpenMP thread(s) per MPI task
Loaded 1 plugins from F:\Lammps\LAMMPS 64-bit 2Aug2023\plugins
Reading data file ...
  orthogonal box = (0 0 0) to (17.79 17.79 17.79)
  1 by 1 by 1 MPI processor grid
  reading atoms ...
  500 atoms
  read_data CPU = 0.001 seconds
Changing box ...
  triclinic box = (0 0 0) to (17.79 17.79 17.79) with tilt (0 0 0)
Neighbor list info ...
  update: every = 1 steps, delay = 0 steps, check = yes
  max neighbors/atom: 2000, page size: 100000
  master list distance cutoff = 6.80375
  ghost atom cutoff = 6.80375
  1 neighbor lists, perpetual/occasional/extra = 1 0 0
  (1) pair eam/alloy, perpetual
      attributes: half, newton on
      pair build: half/nsq/newton
      stencil: none
      bin: none
Setting up cg style minimization ...
  Unit style    : metal
  Current step  : 0
WARNING: Energy due to 3 extra global DOFs will be included in minimizer energies
 (src/min.cpp:228)
Per MPI rank memory allocation (min/avg/max) = 4.492 | 4.492 | 4.492 Mbytes
   Step          Temp          PotEng         Press           Pxx            Pyy            Pzz            Pxy            Pxz            Pyz             Lx             Ly             Lz           Volume    
         0   0             -2179.7227     -33632.197     -33595.411     -33599.407     -33701.774      105.71934      94.775027     -29.842245      17.79          17.79          17.79          5630.2521    
         1   0             -2179.7578     -33090.965     -33054.421     -33058.576     -33159.899      105.72098      95.267116     -29.873247      17.788227      17.788226      17.788221      5628.5667    
         2   0             -2179.7923     -32549.319     -32513.022     -32517.328     -32617.608      105.72282      95.75638      -29.906064      17.786453      17.786453      17.786442      5626.8817    
         3   0             -2179.8263     -32007.252     -31971.206     -31975.654     -32074.894      105.7247       96.242824     -29.940959      17.78468       17.784679      17.784663      5625.197     
         4   0             -2179.8597     -31464.777     -31428.987     -31433.571     -31531.772      105.72651      96.726721     -29.978189      17.782907      17.782906      17.782884      5623.5126    
         5   0             -2179.8925     -30921.968     -30886.435     -30891.156     -30988.313      105.72733      97.207533     -30.016714      17.781134      17.781132      17.781105      5621.8287    
         6   0             -2179.9247     -30378.874     -30343.6       -30348.457     -30444.565      105.72681      97.684602     -30.054927      17.77936       17.779359      17.779326      5620.145     
         7   0             -2179.9563     -29835.496     -29800.481     -29805.477     -29900.528      105.72494      98.157877     -30.092915      17.777587      17.777586      17.777547      5618.4618    
         8   0             -2179.9874     -29291.788     -29257.038     -29262.166     -29356.158      105.72318      98.626619     -30.130283      17.775814      17.775812      17.775768      5616.7789    
         9   0             -2180.0179     -28747.69      -28713.21      -28718.464     -28811.396      105.72129      99.091721     -30.169685      17.774041      17.774039      17.773989      5615.0964    
        10   0             -2180.0478     -28203.168     -28168.962     -28174.333     -28266.209      105.71905      99.553518     -30.212225      17.772268      17.772266      17.77221       5613.4143    
        11   0             -2180.0771     -27658.24      -27624.311     -27629.794     -27720.616      105.71584      100.0123      -30.257804      17.770495      17.770492      17.770431      5611.7325    
        12   0             -2180.1058     -27112.952     -27079.302     -27084.893     -27174.662      105.71092      100.46867     -30.306519      17.768723      17.768719      17.768652      5610.0511    
        13   0             -2180.134      -26567.333     -26533.965     -26539.66      -26628.375      105.70524      100.92201     -30.356678      17.76695       17.766946      17.766873      5608.3701    
        14   0             -2180.1616     -26021.431     -25988.348     -25994.145     -26081.802      105.69778      101.37155     -30.408699      17.765177      17.765173      17.765094      5606.6894    
        15   0             -2180.1886     -25475.204     -25442.411     -25448.306     -25534.894      105.68859      101.81688     -30.462905      17.763405      17.7634        17.763315      5605.0091    
        16   0             -2180.2151     -24928.602     -24896.103     -24902.096     -24987.607      105.67709      102.25774     -30.519157      17.761632      17.761627      17.761536      5603.3292    
        17   0             -2180.2409     -24381.6       -24349.399     -24355.489     -24439.913      105.6638       102.69418     -30.577368      17.75986       17.759854      17.759757      5601.6497    
        18   0             -2180.2662     -23834.183     -23802.281     -23808.465     -23891.803      105.65047      103.12756     -30.636479      17.758087      17.758081      17.757978      5599.9705    
        19   0             -2180.2909     -23286.438     -23254.836     -23261.11      -23343.367      105.63828      103.55863     -30.696711      17.756315      17.756309      17.756199      5598.2917    
        20   0             -2180.315      -22738.377     -22707.078     -22713.436     -22794.617      105.62697      103.98736     -30.75794       17.754543      17.754536      17.75442       5596.6133    
        21   0             -2180.3386     -22190.037     -22159.044     -22165.483     -22245.584      105.616        104.41374     -30.821457      17.75277       17.752763      17.752641      5594.9353    
        22   0             -2180.3615     -21641.336     -21610.653     -21617.172     -21696.183      105.60393      104.83648     -30.888301      17.750998      17.750991      17.750862      5593.2577    
        23   0             -2180.3839     -21092.303     -21061.935     -21068.532     -21146.442      105.59113      105.25546     -30.958281      17.749226      17.749218      17.749083      5591.5804    
        24   0             -2180.4057     -20542.933     -20512.884     -20519.557     -20596.359      105.57804      105.67066     -31.031273      17.747455      17.747446      17.747304      5589.9036    
        25   0             -2180.4269     -19993.273     -19963.545     -19970.289     -20045.985      105.56383      106.08187     -31.105282      17.745683      17.745673      17.745525      5588.2271    
        26   0             -2180.4476     -19443.339     -19413.938     -19420.747     -19495.332      105.54791      106.48786     -31.179707      17.743911      17.743901      17.743746      5586.5511    
        27   0             -2180.4676     -18893.079     -18864.01      -18870.878     -18944.349      105.52964      106.8888      -31.255041      17.74214       17.742129      17.741967      5584.8754    
        28   0             -2180.4871     -18342.497     -18313.765     -18320.688     -18393.037      105.50896      107.28507     -31.331962      17.740368      17.740357      17.740188      5583.2001    
        29   0             -2180.506      -17791.608     -17763.215     -17770.192     -17841.417      105.48804      107.67944     -31.412648      17.738597      17.738585      17.738409      5581.5253    
        30   0             -2180.5243     -17240.43      -17212.378     -17219.407     -17289.505      105.46719      108.07223     -31.497359      17.736826      17.736813      17.73663       5579.8508    
        31   0             -2180.5421     -16689         -16661.292     -16668.369     -16737.338      105.4468       108.46317     -31.585294      17.735055      17.735041      17.734851      5578.1768    
        32   0             -2180.5592     -16137.284     -16109.926     -16117.047     -16184.878      105.42653      108.85081     -31.674946      17.733284      17.73327       17.733072      5576.5032    
        33   0             -2180.5758     -15585.247     -15558.245     -15565.402     -15632.093      105.40481      109.23421     -31.764308      17.731513      17.731498      17.731293      5574.83      
        34   0             -2180.5918     -15032.892     -15006.252     -15013.439     -15078.985      105.38142      109.61318     -31.853074      17.729742      17.729727      17.729514      5573.1572    
        35   0             -2180.6072     -14480.222     -14453.949     -14461.159     -14525.557      105.35626      109.98776     -31.941292      17.727972      17.727955      17.727735      5571.4849    
        36   0             -2180.6221     -13927.311     -13901.409     -13908.638     -13971.887      105.32986      110.35741     -32.030955      17.726202      17.726184      17.725956      5569.813     
        37   0             -2180.6363     -13374.193     -13348.666     -13355.911     -13418.002      105.30329      110.72275     -32.122721      17.724432      17.724413      17.724177      5568.1416    
        38   0             -2180.65       -12820.875     -12795.729     -12802.987     -12863.911      105.27676      111.08401     -32.216628      17.722662      17.722643      17.722398      5566.4706    
        39   0             -2180.6631     -12267.331     -12242.573     -12249.841     -12309.58       105.25062      111.44248     -32.312919      17.720892      17.720872      17.720619      5564.8001    
        40   0             -2180.6756     -11713.498     -11689.135     -11696.406     -11754.951      105.22382      111.79677     -32.41011       17.719123      17.719102      17.71884       5563.1301    
        41   0             -2180.6876     -11159.344     -11135.386     -11142.652     -11199.994      105.1961       112.14659     -32.508519      17.717354      17.717332      17.717061      5561.4605    
        42   0             -2180.6989     -10604.899     -10581.35      -10588.605     -10644.743      105.16736      112.49159     -32.608084      17.715585      17.715562      17.715282      5559.7915    
        43   0             -2180.7097     -10050.246     -10027.112     -10034.351     -10089.277      105.13828      112.83252     -32.708178      17.713817      17.713792      17.713503      5558.123     
        44   0             -2180.7199     -9495.4188     -9472.706      -9479.9246     -9533.6258      105.10932      113.17069     -32.808752      17.712049      17.712023      17.711724      5556.4551    
        45   0             -2180.7295     -8940.4664     -8918.1846     -8925.3795     -8977.835       105.08072      113.50581     -32.909884      17.710281      17.710254      17.709945      5554.7877    
        46   0             -2180.7386     -8385.3381     -8363.4976     -8370.6645     -8421.8521      105.05199      113.83657     -33.012113      17.708514      17.708485      17.708166      5553.1209    
        47   0             -2180.747      -7830.0367     -7808.6476     -7815.7805     -7865.6821      105.02333      114.16251     -33.116164      17.706748      17.706717      17.706387      5551.4547    
        48   0             -2180.7549     -7274.5712     -7253.6458     -7260.7361     -7309.3315      104.99404      114.48265     -33.222374      17.704982      17.70495       17.704608      5549.7892    
        49   0             -2180.7622     -6718.9485     -6698.4997     -6705.5386     -6752.8072      104.96354      114.79768     -33.329823      17.703216      17.703182      17.702829      5548.1244    
        50   0             -2180.7689     -6163.163      -6143.2088     -6150.1872     -6196.093       104.93116      115.10832     -33.438407      17.701451      17.701416      17.70105       5546.4604    
        51   0             -2180.7751     -5607.2329     -5587.7911     -5594.7001     -5639.2076      104.89664      115.41467     -33.548243      17.699688      17.69965       17.699271      5544.7972    
        52   0             -2180.7806     -5051.2131     -5032.3043     -5039.1339     -5082.2011      104.86052      115.71737     -33.659465      17.697925      17.697885      17.697492      5543.1349    
        53   0             -2180.7856     -4495.2053     -4476.8493     -4483.5883     -4525.1784      104.82373      116.01756     -33.773104      17.696163      17.696121      17.695713      5541.4737    
        54   0             -2180.7901     -3939.3225     -3921.5513     -3928.1834     -3968.2329      104.78645      116.31427     -33.888551      17.694404      17.694359      17.693934      5539.8137    
        55   0             -2180.7939     -3383.6272     -3366.4817     -3372.9869     -3411.4129      104.74886      116.60692     -34.005482      17.692646      17.692598      17.692155      5538.1551    
        56   0             -2180.7972     -2828.1599     -2811.6988     -2818.0518     -2854.7292      104.71089      116.8938      -34.123814      17.69089       17.690839      17.690376      5536.4983    
        57   0             -2180.7999     -2272.9968     -2257.291      -2263.4589     -2298.2405      104.67292      117.17433     -34.244376      17.689138      17.689083      17.688597      5534.8437    
        58   0             -2180.8021     -1718.3884     -1703.537      -1709.4757     -1742.1526      104.63543      117.44975     -34.36792       17.687391      17.687331      17.686818      5533.1923    
        59   0             -2180.8037     -1164.8549     -1151.0066     -1156.6491     -1186.9089      104.59842      117.72295     -34.496535      17.685651      17.685585      17.685039      5531.5457    
        60   0             -2180.8048     -613.69852     -601.13248     -606.35808     -633.60501      104.56351      117.9974      -34.633667      17.683926      17.683851      17.68326       5529.9076    
        61   0             -2180.8055     -69.101925     -58.561727     -63.052348     -85.6917        104.53631      118.28075     -34.791578      17.682238      17.682149      17.681481      5528.2913    
        62   0             -2180.808       390.6514       389.76303      390.02898      392.1622       104.63267      118.72763     -35.220382      17.681022      17.68084       17.679702      5526.9459    
        63   0             -2180.8093     -155.28165     -157.98666     -156.81873     -151.03958      104.74111      118.58287     -35.254057      17.682801      17.682602      17.68138       5528.5775    
        64   0             -2180.8132      410.14892      408.35638      409.04208      413.0483       104.90795      119.1937      -35.876396      17.681022      17.680832      17.679656      5526.929     
        65   0             -2180.8148     -140.05197     -140.89349     -140.48761     -138.77479      105.03737      119.07772     -35.954278      17.682764      17.682579      17.681435      5528.5761    
        66   0             -2180.8191      422.71172      423.4213       423.02852      421.68534      105.22835      119.72777     -36.634363      17.680985      17.680815      17.679743      5526.9392    
        67   0             -2180.8208     -132.71245     -131.5876      -132.04302     -134.50675      105.35959      119.61269     -36.71571       17.682755      17.682586      17.681522      5528.602     
        68   0             -2180.8254      428.5959       428.18484      428.26419      429.33866      105.5665       120.29491     -37.440907      17.681043      17.680863      17.679743      5526.9723    
        69   0             -2180.8271     -127.85415     -128.19557     -128.03014     -127.33674      105.69646      120.1776      -37.51981       17.682822      17.682641      17.681514      5528.6379    
        70   0             -2180.8319      445.47404      445.2608       445.26804      445.89328      105.9202       120.89593     -38.292288      17.681043      17.680864      17.679751      5526.9754    
        71   0             -2180.8336     -110.7591      -110.61931     -110.65203     -111.00594      106.0496       120.77763     -38.37016       17.682816      17.682638      17.68153       5528.6402    
        72   0             -2180.8389      464.98464      464.80224      464.78901      465.36268      106.30423      121.55341     -39.223637      17.681043      17.680865      17.679751      5526.9755    
        73   0             -2180.8406     -92.372465     -92.288941     -92.311745     -92.516708      106.42983      121.4284      -39.292693      17.682821      17.682642      17.68153       5528.643     
        74   0             -2180.8468      485.7945       485.5145       485.55282      486.31619      106.73433      122.29429     -40.274413      17.68105       17.68087       17.679751      5526.9791    
        75   0             -2180.8483     -71.682719     -71.674816     -71.660727     -71.712616      106.85492      122.16128     -40.331867      17.682826      17.682646      17.68153       5528.6462    
        76   0             -2180.856       512.52399      512.34754      512.33244      512.89197      107.24594      123.1835      -41.535935      17.681047      17.680868      17.679752      5526.9781    
        77   0             -2180.8575     -45.284502     -45.167364     -45.217108     -45.469033      107.36107      123.04199     -41.580505      17.682824      17.682645      17.681531      5528.6452    
        78   0             -2180.8688      545.52271      544.92172      545.13164      546.51477      107.96465      124.44386     -43.327033      17.68107       17.680887      17.679752      5526.9911    
        79   0             -2180.8702     -12.36202      -12.622291     -12.481293     -11.982477      108.07271      124.29135     -43.354911      17.682845      17.682662      17.681531      5528.6572    
        80   0             -2180.907       633.18476      637.75703      635.27601      626.52125      110.17748      128.38353     -48.948884      17.681066      17.680935      17.679988      5527.0785    
        81   0             -2180.9083      77.422208      81.70472       79.456961      71.104942      110.27762      128.21708     -48.956948      17.682845      17.682707      17.681739      5528.7365    
        82   0             -2180.91       -449.00382     -449.25068     -449.05335     -448.70743      110.43121      128.1714      -49.130702      17.684624      17.684438      17.683288      5530.318     
        83   0             -2180.9113      101.41501      99.225281      100.35128      104.66848      110.45197      128.56039     -49.437772      17.682926      17.682722      17.681509      5528.6942    
        84   0             -2180.9154     -427.3133      -427.02363     -427.08944     -427.82682      110.74247      128.75474     -49.962194      17.684599      17.684418      17.683288      5530.304     
        85   0             -2180.9168      136.53628      136.90641      136.71422      135.9882       110.77079      129.16426     -50.294221      17.68282       17.682643      17.681526      5528.6418    
        86   0             -2180.9214     -409.88753     -409.27195     -409.5399      -410.85074      111.09416      129.41386     -50.905206      17.684599      17.684422      17.683301      5530.3095    
        87   0             -2180.923       155.12968      155.27284      155.16897      154.94724      111.13437      129.84799     -51.272785      17.68283       17.682651      17.681522      5528.646     
        88   0             -2180.9274     -388.98        -389.01361     -388.93637     -388.99002      111.45098      130.09101     -51.873137      17.684609      17.684424      17.683278      5530.306     
        89   0             -2180.9291      177.31001      176.86778      177.08839      177.97385      111.50138      130.54522     -52.270309      17.682836      17.68265       17.681499      5528.6405    
        90   0             -2180.9334     -366.72916     -366.45839     -366.54412     -367.18496      111.80747      130.77169     -52.847124      17.684595      17.684415      17.683278      5530.2988    
        91   0             -2180.9353      201.23593      201.23753      201.22306      201.2472       111.86968      131.24908     -53.278184      17.682816      17.682636      17.6815        5528.6304    
        92   0             -2180.9395     -346.43152     -346.06936     -346.21641     -347.0088       112.16796      131.46347     -53.839187      17.684594      17.684414      17.683279      5530.2983    
        93   0             -2180.9415      221.34549      221.29033      221.29863      221.4475       112.24429      131.96779     -54.310077      17.682821      17.68264       17.6815        5528.633     
        94   0             -2180.9456     -326.373       -326.20713     -326.2556      -326.65627      112.53496      132.17251     -54.857369      17.6846        17.684418      17.683274      5530.3001    
        95   0             -2180.9478      242.38555      242.13825      242.25206      242.76635      112.62647      132.70637     -55.371574      17.682826      17.682644      17.681495      5528.6344    
        96   0             -2180.9518     -305.45477     -305.29868     -305.34375     -305.72188      112.91212      132.90598     -55.911919      17.684601      17.684421      17.683274      5530.3013    
        97   0             -2180.9543      264.94762      264.7583       264.84519      265.23937      113.02076      133.47303     -56.475094      17.682825      17.682644      17.681495      5528.6338    
        98   0             -2180.9582     -282.7869      -282.54167     -282.64037     -283.17868      113.30295      133.67093     -57.013325      17.684599      17.684419      17.683274      5530.3       
        99   0             -2180.9609      288.40405      288.26435      288.32457      288.62324      113.43014      134.27579     -57.630925      17.682823      17.682644      17.681495      5528.6334    
       100   0             -2180.9647     -260.18404     -259.96808     -260.05832     -260.52572      113.70942      134.47194     -58.168164      17.684602      17.684422      17.683274      5530.3019    
Loop time of 0.127412 on 1 procs for 100 steps with 500 atoms

98.1% CPU use with 1 MPI tasks x 1 OpenMP threads

Minimization stats:
  Stopping criterion = max iterations
  Energy initial, next-to-last, final = 
     -2179.72270091966  -2180.96086806372  -2180.96473720407
  Force two-norm initial, final = 204.7338 2.5850373
  Force max component initial, final = 118.43232 0.90469535
  Final line search alpha, max atom move = 0.00020988568 0.0001898826
  Iterations, force evaluations = 100 100

MPI task timing breakdown:
Section |  min time  |  avg time  |  max time  |%varavg| %total
---------------------------------------------------------------
Pair    | 0.11423    | 0.11423    | 0.11423    |   0.0 | 89.65
Neigh   | 0          | 0          | 0          |   0.0 |  0.00
Comm    | 0.000723   | 0.000723   | 0.000723   |   0.0 |  0.57
Output  | 0.001565   | 0.001565   | 0.001565   |   0.0 |  1.23
Modify  | 0          | 0          | 0          |   0.0 |  0.00
Other   |            | 0.01089    |            |       |  8.55

Nlocal:            500 ave         500 max         500 min
Histogram: 1 0 0 0 0 0 0 0 0 0
Nghost:           1956 ave        1956 max        1956 min
Histogram: 1 0 0 0 0 0 0 0 0 0
Neighs:          33500 ave       33500 max       33500 min
Histogram: 1 0 0 0 0 0 0 0 0 0

Total # of neighbors = 33500
Ave neighs/atom = 67
Neighbor list builds = 0
Dangerous builds = 0
Displacing atoms ...
System init for write_restart ...
OMP_NUM_THREADS environment is not set. Defaulting to 1 thread. (src/comm.cpp:98)
  using 1 OpenMP thread(s) per MPI task
Loaded 1 plugins from F:\Lammps\LAMMPS 64-bit 2Aug2023\plugins

The 'box' command has been removed and will be ignored

Reading restart file ...
  restart file = 2 Aug 2023, LAMMPS = 2 Aug 2023
  restoring atom style atomic from restart
  triclinic box = (0.052699196 0.052788792 0.053362871) to (17.737301 17.737211 17.736637) with tilt (0 0 0)
  1 by 1 by 1 MPI processor grid
  pair style eam/alloy stores no restart info
  500 atoms
  read_restart CPU = 0.000 seconds
Changing box ...
  triclinic box = (0.052699196 0.052788792 0.053362871) to (17.737283 17.737211 17.736637) with tilt (0 0 0)
  triclinic box = (0.052699196 0.052788792 0.053362871) to (17.737283 17.737211 17.736637) with tilt (0 0 0)
  triclinic box = (0.052699196 0.052788792 0.053362871) to (17.737283 17.737211 17.736637) with tilt (0 0 0)
Neighbor list info ...
  update: every = 1 steps, delay = 0 steps, check = yes
  max neighbors/atom: 2000, page size: 100000
  master list distance cutoff = 6.80375
  ghost atom cutoff = 6.80375
  1 neighbor lists, perpetual/occasional/extra = 1 0 0
  (1) pair eam/alloy, perpetual
      attributes: half, newton on
      pair build: half/nsq/newton
      stencil: none
      bin: none
Setting up cg style minimization ...
  Unit style    : metal
  Current step  : 100
Per MPI rank memory allocation (min/avg/max) = 4.483 | 4.483 | 4.483 Mbytes
   Step          Temp          PotEng         Press           Pxx            Pyy            Pzz            Pxy            Pxz            Pyz             Lx             Ly             Lz           Volume    
       100   0             -2180.9647     -258.40118     -257.5606      -258.59664     -259.0463       113.66703      134.4939      -58.204469      17.684584      17.684422      17.683274      5530.2964    
       101   0             -2181.1268      601.50606      604.31739      599.42979      600.771        127.75552      163.45517     -100.94994      17.684584      17.684422      17.683274      5530.2964    
       102   0             -2181.1869      1086.8191      1088.8072      1085.9647      1085.6852      129.89815      187.94989     -137.46215      17.684584      17.684422      17.683274      5530.2964    
       103   0             -2181.2035      1100.3709      1104.9678      1101.0628      1095.0821      137.93272      195.13591     -130.18834      17.684584      17.684422      17.683274      5530.2964    
       104   0             -2181.207       1158.1463      1160.0496      1155.122       1159.2671      137.32294      198.65261     -134.29209      17.684584      17.684422      17.683274      5530.2964    
       105   0             -2181.2084      1210.8226      1211.2731      1205.455       1215.7395      142.42066      197.9375      -132.99031      17.684584      17.684422      17.683274      5530.2964    
       106   0             -2181.2091      1144.4314      1142.4916      1139.2255      1151.5771      141.73603      196.29405     -132.82438      17.684584      17.684422      17.683274      5530.2964    
       107   0             -2181.2093      1140.945       1138.9044      1136.1838      1147.7467      142.51306      197.71804     -131.97076      17.684584      17.684422      17.683274      5530.2964    
       108   0             -2181.2094      1152.2239      1149.5814      1148.1167      1158.9737      142.39938      197.44888     -131.8394       17.684584      17.684422      17.683274      5530.2964    
       109   0             -2181.2094      1150.5542      1147.2544      1146.7379      1157.6703      141.91988      197.47615     -133.18999      17.684584      17.684422      17.683274      5530.2964    
       110   0             -2181.2095      1147.2563      1144.2348      1143.2218      1154.3122      141.12676      197.48991     -133.15634      17.684584      17.684422      17.683274      5530.2964    
       111   0             -2181.2095      1145.9763      1142.9666      1142.1411      1152.8213      141.85194      197.36309     -132.46503      17.684584      17.684422      17.683274      5530.2964    
       112   0             -2181.2095      1147.2509      1144.1141      1143.6074      1154.0311      142.19133      197.43051     -132.50716      17.684584      17.684422      17.683274      5530.2964    
       113   0             -2181.2095      1149.3614      1146.0589      1145.7551      1156.2701      142.17303      197.55293     -132.72223      17.684584      17.684422      17.683274      5530.2964    
       114   0             -2181.2095      1148.4636      1145.0081      1145.0533      1155.3293      142.36589      197.44101     -132.9154       17.684584      17.684422      17.683274      5530.2964    
       115   0             -2181.2095      1147.9804      1144.3809      1144.6452      1154.9152      142.28272      197.3228      -132.84922      17.684584      17.684422      17.683274      5530.2964    
       116   0             -2181.2095      1148.1665      1144.5394      1144.9298      1155.0301      142.20658      197.36206     -132.87883      17.684584      17.684422      17.683274      5530.2964    
       117   0             -2181.2095      1148.1965      1144.5796      1145.0322      1154.9777      142.15916      197.37373     -132.8884       17.684584      17.684422      17.683274      5530.2964    
       118   0             -2181.2095      1148.2366      1144.6226      1145.0709      1155.0162      142.15712      197.46427     -132.87169      17.684584      17.684422      17.683274      5530.2964    
       119   0             -2181.2095      1148.1619      1144.5258      1144.9904      1154.9696      142.15538      197.46667     -132.82358      17.684584      17.684422      17.683274      5530.2964    
       120   0             -2181.2095      1148.119       1144.4588      1144.9548      1154.9433      142.13948      197.44447     -132.83278      17.684584      17.684422      17.683274      5530.2964    
       121   0             -2181.2095      1148.193       1144.5104      1145.0327      1155.036       142.14619      197.43007     -132.83615      17.684584      17.684422      17.683274      5530.2964    
       122   0             -2181.2095      1148.2114      1144.5301      1145.049       1155.0552      142.14204      197.43118     -132.84304      17.684584      17.684422      17.683274      5530.2964    
       123   0             -2181.2095      1148.1707      1144.4927      1145.0111      1155.0082      142.14252      197.4289      -132.83965      17.684584      17.684422      17.683274      5530.2964    
       124   0             -2181.2095      1148.159       1144.4828      1145.0033      1154.9911      142.1439       197.43033     -132.83604      17.684584      17.684422      17.683274      5530.2964    
       125   0             -2181.2095      1148.1569      1144.481       1145.002       1154.9879      142.14298      197.43091     -132.83648      17.684584      17.684422      17.683274      5530.2964    
       126   0             -2181.2095      1148.1617      1144.4845      1145.0081      1154.9925      142.14231      197.43058     -132.83675      17.684584      17.684422      17.683274      5530.2964    
       127   0             -2181.2095      1148.1679      1144.489       1145.0154      1154.9992      142.14154      197.43158     -132.83728      17.684584      17.684422      17.683274      5530.2964    
       128   0             -2181.2095      1148.165       1144.4862      1145.0122      1154.9965      142.1409       197.43197     -132.83853      17.684584      17.684422      17.683274      5530.2964    
       129   0             -2181.2095      1148.1643      1144.486       1145.0117      1154.9952      142.14051      197.43157     -132.83908      17.684584      17.684422      17.683274      5530.2964    
       130   0             -2181.2095      1148.1647      1144.4867      1145.0121      1154.9954      142.14065      197.43156     -132.83903      17.684584      17.684422      17.683274      5530.2964    
       131   0             -2181.2095      1148.1654      1144.4871      1145.0128      1154.9962      142.14047      197.43157     -132.83912      17.684584      17.684422      17.683274      5530.2964    
       132   0             -2181.2095      1148.1654      1144.4867      1145.013       1154.9964      142.14075      197.43142     -132.83936      17.684584      17.684422      17.683274      5530.2964    
       133   0             -2181.2095      1148.1652      1144.4865      1145.0129      1154.9963      142.14094      197.43149     -132.83929      17.684584      17.684422      17.683274      5530.2964    
       134   0             -2181.2095      1148.1652      1144.4864      1145.0129      1154.9964      142.14103      197.4315      -132.83913      17.684584      17.684422      17.683274      5530.2964    
       135   0             -2181.2095      1148.1653      1144.4865      1145.0129      1154.9964      142.14105      197.43146     -132.83909      17.684584      17.684422      17.683274      5530.2964    
       136   0             -2181.2095      1148.1652      1144.4864      1145.0128      1154.9963      142.14103      197.43145     -132.83908      17.684584      17.684422      17.683274      5530.2964    
       137   0             -2181.2095      1148.1652      1144.4864      1145.0128      1154.9963      142.14101      197.43144     -132.8391       17.684584      17.684422      17.683274      5530.2964    
       138   0             -2181.2095      1148.1652      1144.4864      1145.0128      1154.9963      142.14102      197.43145     -132.8391       17.684584      17.684422      17.683274      5530.2964    
       139   0             -2181.2095      1148.1652      1144.4864      1145.0128      1154.9963      142.14101      197.43144     -132.8391       17.684584      17.684422      17.683274      5530.2964    
       140   0             -2181.2095      1148.1652      1144.4864      1145.0128      1154.9963      142.14101      197.43144     -132.8391       17.684584      17.684422      17.683274      5530.2964    
       141   0             -2181.2095      1148.1652      1144.4864      1145.0128      1154.9963      142.14101      197.43144     -132.8391       17.684584      17.684422      17.683274      5530.2964    
       142   0             -2181.2095      1148.1652      1144.4864      1145.0128      1154.9963      142.14101      197.43144     -132.83911      17.684584      17.684422      17.683274      5530.2964    
       143   0             -2181.2095      1148.1652      1144.4864      1145.0128      1154.9963      142.14101      197.43144     -132.83911      17.684584      17.684422      17.683274      5530.2964    
       144   0             -2181.2095      1148.1652      1144.4864      1145.0128      1154.9963      142.14101      197.43144     -132.83911      17.684584      17.684422      17.683274      5530.2964    
       145   0             -2181.2095      1148.1652      1144.4864      1145.0128      1154.9963      142.14101      197.43144     -132.83911      17.684584      17.684422      17.683274      5530.2964    
       146   0             -2181.2095      1148.1652      1144.4864      1145.0128      1154.9963      142.14101      197.43144     -132.83911      17.684584      17.684422      17.683274      5530.2964    
       147   0             -2181.2095      1148.1652      1144.4864      1145.0128      1154.9963      142.14101      197.43144     -132.83911      17.684584      17.684422      17.683274      5530.2964    
       148   0             -2181.2095      1148.1652      1144.4864      1145.0128      1154.9963      142.14101      197.43144     -132.83911      17.684584      17.684422      17.683274      5530.2964    
       149   0             -2181.2095      1148.1652      1144.4864      1145.0128      1154.9963      142.14101      197.43144     -132.83911      17.684584      17.684422      17.683274      5530.2964    
       150   0             -2181.2095      1148.1652      1144.4864      1145.0128      1154.9963      142.14101      197.43144     -132.83911      17.684584      17.684422      17.683274      5530.2964    
       151   0             -2181.2095      1148.1652      1144.4864      1145.0128      1154.9963      142.14101      197.43144     -132.83911      17.684584      17.684422      17.683274      5530.2964    
       152   0             -2181.2095      1148.1652      1144.4864      1145.0128      1154.9963      142.14101      197.43144     -132.83911      17.684584      17.684422      17.683274      5530.2964    
       153   0             -2181.2095      1148.1652      1144.4864      1145.0128      1154.9963      142.14101      197.43144     -132.83911      17.684584      17.684422      17.683274      5530.2964    
       154   0             -2181.2095      1148.1652      1144.4864      1145.0128      1154.9963      142.14101      197.43144     -132.83911      17.684584      17.684422      17.683274      5530.2964    
       155   0             -2181.2095      1148.1652      1144.4864      1145.0128      1154.9963      142.14101      197.43144     -132.83911      17.684584      17.684422      17.683274      5530.2964    
       156   0             -2181.2095      1148.1652      1144.4864      1145.0128      1154.9963      142.14101      197.43144     -132.83911      17.684584      17.684422      17.683274      5530.2964    
       157   0             -2181.2095      1148.1652      1144.4864      1145.0128      1154.9963      142.14101      197.43144     -132.83911      17.684584      17.684422      17.683274      5530.2964    
       158   0             -2181.2095      1148.1652      1144.4864      1145.0128      1154.9963      142.14101      197.43144     -132.83911      17.684584      17.684422      17.683274      5530.2964    
       159   0             -2181.2095      1148.1652      1144.4864      1145.0128      1154.9963      142.14101      197.43144     -132.83911      17.684584      17.684422      17.683274      5530.2964    
       160   0             -2181.2095      1148.1652      1144.4864      1145.0128      1154.9963      142.14101      197.43144     -132.83911      17.684584      17.684422      17.683274      5530.2964    
       161   0             -2181.2095      1148.1652      1144.4864      1145.0128      1154.9963      142.14101      197.43144     -132.83911      17.684584      17.684422      17.683274      5530.2964    
Loop time of 0.142936 on 1 procs for 61 steps with 500 atoms

98.4% CPU use with 1 MPI tasks x 1 OpenMP threads

Minimization stats:
  Stopping criterion = force tolerance
  Energy initial, next-to-last, final = 
     -2180.96472320663  -2181.20950304126  -2181.20950304125
  Force two-norm initial, final = 2.0576472 7.718976e-11
  Force max component initial, final = 0.18446292 9.573186e-12
  Final line search alpha, max atom move = 1 9.573186e-12
  Iterations, force evaluations = 61 120

MPI task timing breakdown:
Section |  min time  |  avg time  |  max time  |%varavg| %total
---------------------------------------------------------------
Pair    | 0.14028    | 0.14028    | 0.14028    |   0.0 | 98.14
Neigh   | 0          | 0          | 0          |   0.0 |  0.00
Comm    | 0.000719   | 0.000719   | 0.000719   |   0.0 |  0.50
Output  | 0.000948   | 0.000948   | 0.000948   |   0.0 |  0.66
Modify  | 0          | 0          | 0          |   0.0 |  0.00
Other   |            | 0.00099    |            |       |  0.69

Nlocal:            500 ave         500 max         500 min
Histogram: 1 0 0 0 0 0 0 0 0 0
Nghost:           1956 ave        1956 max        1956 min
Histogram: 1 0 0 0 0 0 0 0 0 0
Neighs:          33500 ave       33500 max       33500 min
Histogram: 1 0 0 0 0 0 0 0 0 0

Total # of neighbors = 33500
Ave neighs/atom = 67
Neighbor list builds = 0
Dangerous builds = 0
OMP_NUM_THREADS environment is not set. Defaulting to 1 thread. (src/comm.cpp:98)
  using 1 OpenMP thread(s) per MPI task
Loaded 1 plugins from F:\Lammps\LAMMPS 64-bit 2Aug2023\plugins

The 'box' command has been removed and will be ignored

Reading restart file ...
  restart file = 2 Aug 2023, LAMMPS = 2 Aug 2023
  restoring atom style atomic from restart
  triclinic box = (0.052699196 0.052788792 0.053362871) to (17.737301 17.737211 17.736637) with tilt (0 0 0)
  1 by 1 by 1 MPI processor grid
  pair style eam/alloy stores no restart info
  500 atoms
  read_restart CPU = 0.000 seconds
Changing box ...
  triclinic box = (0.052699196 0.052788792 0.053362871) to (17.737318 17.737211 17.736637) with tilt (0 0 0)
  triclinic box = (0.052699196 0.052788792 0.053362871) to (17.737318 17.737211 17.736637) with tilt (0 0 0)
  triclinic box = (0.052699196 0.052788792 0.053362871) to (17.737318 17.737211 17.736637) with tilt (0 0 0)
Neighbor list info ...
  update: every = 1 steps, delay = 0 steps, check = yes
  max neighbors/atom: 2000, page size: 100000
  master list distance cutoff = 6.80375
  ghost atom cutoff = 6.80375
  1 neighbor lists, perpetual/occasional/extra = 1 0 0
  (1) pair eam/alloy, perpetual
      attributes: half, newton on
      pair build: half/nsq/newton
      stencil: none
      bin: none
Setting up cg style minimization ...
  Unit style    : metal
  Current step  : 100
Per MPI rank memory allocation (min/avg/max) = 4.483 | 4.483 | 4.483 Mbytes
   Step          Temp          PotEng         Press           Pxx            Pyy            Pzz            Pxy            Pxz            Pyz             Lx             Ly             Lz           Volume    
       100   0             -2180.9647     -262.12557     -262.50141     -261.70899     -262.16631      113.66665      134.49142     -58.203936      17.684619      17.684422      17.683274      5530.3075    
       101   0             -2181.1268      597.81458      599.41737      596.34702      597.67935      127.7547       163.45144     -100.94979      17.684619      17.684422      17.683274      5530.3075    
       102   0             -2181.1869      1083.1532      1083.9351      1082.9065      1082.618       129.89681      187.9453      -137.46335      17.684619      17.684422      17.683274      5530.3075    
       103   0             -2181.2035      1096.7141      1100.1082      1098.0125      1092.0216      137.93056      195.13217     -130.19082      17.684619      17.684422      17.683274      5530.3075    
       104   0             -2181.207       1154.5053      1155.2063      1152.0864      1156.2232      137.32101      198.64897     -134.29514      17.684619      17.684422      17.683274      5530.3075    
       105   0             -2181.2084      1207.1648      1206.413       1202.4028      1212.6785      142.41903      197.93307     -132.9923       17.684619      17.684422      17.683274      5530.3075    
       106   0             -2181.2091      1140.7732      1137.6329      1136.172       1148.5148      141.73438      196.29011     -132.82681      17.684619      17.684422      17.683274      5530.3075    
       107   0             -2181.2093      1137.2935      1134.0528      1133.1368      1144.6909      142.51122      197.7143      -131.97353      17.684619      17.684422      17.683274      5530.3075    
       108   0             -2181.2094      1148.5712      1144.7285      1145.0686      1155.9164      142.39759      197.44527     -131.84239      17.684619      17.684422      17.683274      5530.3075    
       109   0             -2181.2094      1146.901       1142.4014      1143.689       1154.6125      141.91794      197.4725      -133.19269      17.684619      17.684422      17.683274      5530.3075    
       110   0             -2181.2095      1143.6033      1139.3822      1140.173       1151.2546      141.125        197.48627     -133.15892      17.684619      17.684422      17.683274      5530.3075    
       111   0             -2181.2095      1142.3229      1138.1135      1139.092       1149.7631      141.85006      197.35946     -132.46766      17.684619      17.684422      17.683274      5530.3075    
       112   0             -2181.2095      1143.5984      1139.262       1140.5592      1150.9739      142.18943      197.42695     -132.50995      17.684619      17.684422      17.683274      5530.3075    
       113   0             -2181.2095      1145.7086      1141.2066      1142.7066      1153.2127      142.17113      197.54931     -132.72499      17.684619      17.684422      17.683274      5530.3075    
       114   0             -2181.2095      1144.8102      1140.1552      1142.0042      1152.2713      142.36395      197.43739     -132.91811      17.684619      17.684422      17.683274      5530.3075    
       115   0             -2181.2095      1144.3273      1139.5281      1141.5963      1151.8574      142.28082      197.31919     -132.85191      17.684619      17.684422      17.683274      5530.3075    
       116   0             -2181.2095      1144.5134      1139.6868      1141.881       1151.9725      142.2047       197.35845     -132.88155      17.684619      17.684422      17.683274      5530.3075    
       117   0             -2181.2095      1144.5434      1139.7268      1141.9834      1151.92        142.15727      197.37012     -132.89113      17.684619      17.684422      17.683274      5530.3075    
       118   0             -2181.2095      1144.5835      1139.7699      1142.022       1151.9585      142.15523      197.46066     -132.87441      17.684619      17.684422      17.683274      5530.3075    
       119   0             -2181.2095      1144.5088      1139.673       1141.9415      1151.9118      142.1535       197.46305     -132.8263       17.684619      17.684422      17.683274      5530.3075    
       120   0             -2181.2095      1144.4659      1139.606       1141.906       1151.8856      142.1376       197.44086     -132.8355       17.684619      17.684422      17.683274      5530.3075    
       121   0             -2181.2095      1144.5399      1139.6577      1141.9838      1151.9783      142.1443       197.42646     -132.83887      17.684619      17.684422      17.683274      5530.3075    
       122   0             -2181.2095      1144.5583      1139.6774      1142.0002      1151.9975      142.14016      197.42757     -132.84575      17.684619      17.684422      17.683274      5530.3075    
       123   0             -2181.2095      1144.5176      1139.64        1141.9622      1151.9504      142.14063      197.42529     -132.84237      17.684619      17.684422      17.683274      5530.3075    
       124   0             -2181.2095      1144.506       1139.63        1141.9545      1151.9334      142.14202      197.42672     -132.83875      17.684619      17.684422      17.683274      5530.3075    
       125   0             -2181.2095      1144.5039      1139.6282      1141.9532      1151.9302      142.14109      197.4273      -132.8392       17.684619      17.684422      17.683274      5530.3075    
       126   0             -2181.2095      1144.5086      1139.6318      1141.9593      1151.9348      142.14043      197.42697     -132.83947      17.684619      17.684422      17.683274      5530.3075    
       127   0             -2181.2095      1144.5148      1139.6363      1141.9666      1151.9415      142.13966      197.42797     -132.84         17.684619      17.684422      17.683274      5530.3075    
       128   0             -2181.2095      1144.5119      1139.6335      1141.9634      1151.9387      142.13902      197.42836     -132.84125      17.684619      17.684422      17.683274      5530.3075    
       129   0             -2181.2095      1144.5112      1139.6333      1141.9628      1151.9375      142.13862      197.42796     -132.84179      17.684619      17.684422      17.683274      5530.3075    
       130   0             -2181.2095      1144.5116      1139.634       1141.9632      1151.9376      142.13877      197.42795     -132.84175      17.684619      17.684422      17.683274      5530.3075    
       131   0             -2181.2095      1144.5123      1139.6344      1141.964       1151.9384      142.13859      197.42796     -132.84184      17.684619      17.684422      17.683274      5530.3075    
       132   0             -2181.2095      1144.5123      1139.634       1141.9641      1151.9387      142.13887      197.42781     -132.84208      17.684619      17.684422      17.683274      5530.3075    
       133   0             -2181.2095      1144.5121      1139.6338      1141.9641      1151.9386      142.13906      197.42789     -132.842        17.684619      17.684422      17.683274      5530.3075    
       134   0             -2181.2095      1144.5121      1139.6337      1141.9641      1151.9387      142.13915      197.42789     -132.84185      17.684619      17.684422      17.683274      5530.3075    
       135   0             -2181.2095      1144.5122      1139.6337      1141.9641      1151.9387      142.13917      197.42785     -132.84181      17.684619      17.684422      17.683274      5530.3075    
       136   0             -2181.2095      1144.5121      1139.6337      1141.9639      1151.9386      142.13915      197.42785     -132.8418       17.684619      17.684422      17.683274      5530.3075    
       137   0             -2181.2095      1144.5121      1139.6336      1141.9639      1151.9386      142.13913      197.42783     -132.84181      17.684619      17.684422      17.683274      5530.3075    
       138   0             -2181.2095      1144.5121      1139.6337      1141.964       1151.9386      142.13913      197.42784     -132.84181      17.684619      17.684422      17.683274      5530.3075    
       139   0             -2181.2095      1144.5121      1139.6337      1141.964       1151.9386      142.13913      197.42783     -132.84182      17.684619      17.684422      17.683274      5530.3075    
       140   0             -2181.2095      1144.5121      1139.6337      1141.964       1151.9386      142.13913      197.42783     -132.84182      17.684619      17.684422      17.683274      5530.3075    
       141   0             -2181.2095      1144.5121      1139.6336      1141.964       1151.9386      142.13913      197.42783     -132.84182      17.684619      17.684422      17.683274      5530.3075    
       142   0             -2181.2095      1144.5121      1139.6336      1141.964       1151.9386      142.13913      197.42783     -132.84182      17.684619      17.684422      17.683274      5530.3075    
       143   0             -2181.2095      1144.5121      1139.6336      1141.964       1151.9386      142.13913      197.42783     -132.84183      17.684619      17.684422      17.683274      5530.3075    
       144   0             -2181.2095      1144.5121      1139.6336      1141.964       1151.9386      142.13913      197.42783     -132.84182      17.684619      17.684422      17.683274      5530.3075    
       145   0             -2181.2095      1144.5121      1139.6336      1141.964       1151.9386      142.13913      197.42783     -132.84183      17.684619      17.684422      17.683274      5530.3075    
       146   0             -2181.2095      1144.5121      1139.6336      1141.964       1151.9386      142.13913      197.42783     -132.84183      17.684619      17.684422      17.683274      5530.3075    
       147   0             -2181.2095      1144.5121      1139.6336      1141.964       1151.9386      142.13913      197.42783     -132.84183      17.684619      17.684422      17.683274      5530.3075    
       148   0             -2181.2095      1144.5121      1139.6336      1141.964       1151.9386      142.13913      197.42783     -132.84182      17.684619      17.684422      17.683274      5530.3075    
       149   0             -2181.2095      1144.5121      1139.6336      1141.964       1151.9386      142.13913      197.42783     -132.84182      17.684619      17.684422      17.683274      5530.3075    
       150   0             -2181.2095      1144.5121      1139.6336      1141.964       1151.9386      142.13913      197.42783     -132.84182      17.684619      17.684422      17.683274      5530.3075    
       151   0             -2181.2095      1144.5121      1139.6336      1141.964       1151.9386      142.13913      197.42783     -132.84182      17.684619      17.684422      17.683274      5530.3075    
       152   0             -2181.2095      1144.5121      1139.6336      1141.964       1151.9386      142.13913      197.42783     -132.84182      17.684619      17.684422      17.683274      5530.3075    
       153   0             -2181.2095      1144.5121      1139.6336      1141.964       1151.9386      142.13913      197.42783     -132.84182      17.684619      17.684422      17.683274      5530.3075    
       154   0             -2181.2095      1144.5121      1139.6336      1141.964       1151.9386      142.13913      197.42783     -132.84182      17.684619      17.684422      17.683274      5530.3075    
       155   0             -2181.2095      1144.5121      1139.6336      1141.964       1151.9386      142.13913      197.42783     -132.84182      17.684619      17.684422      17.683274      5530.3075    
       156   0             -2181.2095      1144.5121      1139.6336      1141.964       1151.9386      142.13913      197.42783     -132.84182      17.684619      17.684422      17.683274      5530.3075    
       157   0             -2181.2095      1144.5121      1139.6336      1141.964       1151.9386      142.13913      197.42783     -132.84182      17.684619      17.684422      17.683274      5530.3075    
       158   0             -2181.2095      1144.5121      1139.6336      1141.964       1151.9386      142.13913      197.42783     -132.84182      17.684619      17.684422      17.683274      5530.3075    
       159   0             -2181.2095      1144.5121      1139.6336      1141.964       1151.9386      142.13913      197.42783     -132.84182      17.684619      17.684422      17.683274      5530.3075    
       160   0             -2181.2095      1144.5121      1139.6336      1141.964       1151.9386      142.13913      197.42783     -132.84182      17.684619      17.684422      17.683274      5530.3075    
       161   0             -2181.2095      1144.5121      1139.6336      1141.964       1151.9386      142.13913      197.42783     -132.84182      17.684619      17.684422      17.683274      5530.3075    
Loop time of 0.145386 on 1 procs for 61 steps with 500 atoms

96.7% CPU use with 1 MPI tasks x 1 OpenMP threads

Minimization stats:
  Stopping criterion = force tolerance
  Energy initial, next-to-last, final = 
     -2180.96472141151  -2181.20951092544  -2181.20951092545
  Force two-norm initial, final = 2.0576965 7.7207923e-11
  Force max component initial, final = 0.18446548 9.6148089e-12
  Final line search alpha, max atom move = 1 9.6148089e-12
  Iterations, force evaluations = 61 120

MPI task timing breakdown:
Section |  min time  |  avg time  |  max time  |%varavg| %total
---------------------------------------------------------------
Pair    | 0.14258    | 0.14258    | 0.14258    |   0.0 | 98.07
Neigh   | 0          | 0          | 0          |   0.0 |  0.00
Comm    | 0.00075    | 0.00075    | 0.00075    |   0.0 |  0.52
Output  | 0.001013   | 0.001013   | 0.001013   |   0.0 |  0.70
Modify  | 0          | 0          | 0          |   0.0 |  0.00
Other   |            | 0.001041   |            |       |  0.72

Nlocal:            500 ave         500 max         500 min
Histogram: 1 0 0 0 0 0 0 0 0 0
Nghost:           1956 ave        1956 max        1956 min
Histogram: 1 0 0 0 0 0 0 0 0 0
Neighs:          33500 ave       33500 max       33500 min
Histogram: 1 0 0 0 0 0 0 0 0 0

Total # of neighbors = 33500
Ave neighs/atom = 67
Neighbor list builds = 0
Dangerous builds = 0
OMP_NUM_THREADS environment is not set. Defaulting to 1 thread. (src/comm.cpp:98)
  using 1 OpenMP thread(s) per MPI task
Loaded 1 plugins from F:\Lammps\LAMMPS 64-bit 2Aug2023\plugins

The 'box' command has been removed and will be ignored

Reading restart file ...
  restart file = 2 Aug 2023, LAMMPS = 2 Aug 2023
  restoring atom style atomic from restart
  triclinic box = (0.052699196 0.052788792 0.053362871) to (17.737301 17.737211 17.736637) with tilt (0 0 0)
  1 by 1 by 1 MPI processor grid
  pair style eam/alloy stores no restart info
  500 atoms
  read_restart CPU = 0.000 seconds
Changing box ...
  triclinic box = (0.052699196 0.052788792 0.053362871) to (17.737301 17.737194 17.736637) with tilt (0 0 0)
  triclinic box = (0.052699196 0.052788792 0.053362871) to (17.737301 17.737194 17.736637) with tilt (0 0 0)
Neighbor list info ...
  update: every = 1 steps, delay = 0 steps, check = yes
  max neighbors/atom: 2000, page size: 100000
  master list distance cutoff = 6.80375
  ghost atom cutoff = 6.80375
  1 neighbor lists, perpetual/occasional/extra = 1 0 0
  (1) pair eam/alloy, perpetual
      attributes: half, newton on
      pair build: half/nsq/newton
      stencil: none
      bin: none
Setting up cg style minimization ...
  Unit style    : metal
  Current step  : 100
Per MPI rank memory allocation (min/avg/max) = 4.483 | 4.483 | 4.483 Mbytes
   Step          Temp          PotEng         Press           Pxx            Pyy            Pzz            Pxy            Pxz            Pyz             Lx             Ly             Lz           Volume    
       100   0             -2180.9647     -258.4007      -258.47482     -257.67988     -259.04741      113.6665       134.49286     -58.20468       17.684602      17.684405      17.683274      5530.2964    
       101   0             -2181.1268      601.51466      603.41609      600.35042      600.77748      127.75484      163.45388     -100.95101      17.684602      17.684405      17.683274      5530.2964    
       102   0             -2181.1869      1086.8215      1087.8995      1086.8795      1085.6855      129.89722      187.94809     -137.46362      17.684602      17.684405      17.683274      5530.2964    
       103   0             -2181.2035      1100.3803      1104.0694      1101.9818      1095.0898      137.93207      195.13475     -130.18837      17.684602      17.684405      17.683274      5530.2964    
       104   0             -2181.207       1158.1467      1159.1416      1156.0327      1159.2659      137.32223      198.65104     -134.29284      17.684602      17.684405      17.683274      5530.2964    
       105   0             -2181.2084      1210.8274      1210.3695      1206.3702      1215.7426      142.41979      197.93624     -132.99155      17.684602      17.684405      17.683274      5530.2964    
       106   0             -2181.2091      1144.4371      1141.5899      1140.1405      1151.581       141.73541      196.29288     -132.82554      17.684602      17.684405      17.683274      5530.2964    
       107   0             -2181.2093      1140.9492      1138.0012      1137.0973      1147.749       142.51235      197.71681     -131.9718       17.684602      17.684405      17.683274      5530.2964    
       108   0             -2181.2094      1152.229       1148.6793      1149.031       1158.9768      142.39867      197.44781     -131.8404       17.684602      17.684405      17.683274      5530.2964    
       109   0             -2181.2094      1150.5592      1146.3524      1147.652       1157.6733      141.91918      197.47509     -133.19102      17.684602      17.684405      17.683274      5530.2964    
       110   0             -2181.2095      1147.2612      1143.3327      1144.1356      1154.3151      141.12607      197.4888      -133.15732      17.684602      17.684405      17.683274      5530.2964    
       111   0             -2181.2095      1145.9816      1142.0649      1143.0553      1152.8247      141.8512       197.36202     -132.46611      17.684602      17.684405      17.683274      5530.2964    
       112   0             -2181.2095      1147.2558      1143.2121      1144.5212      1154.0341      142.19062      197.42943     -132.50821      17.684602      17.684405      17.683274      5530.2964    
       113   0             -2181.2095      1149.3662      1145.1568      1146.6687      1156.2731      142.17229      197.55184     -132.72328      17.684602      17.684405      17.683274      5530.2964    
       114   0             -2181.2095      1148.4686      1144.1062      1145.9671      1155.3324      142.36516      197.43993     -132.91644      17.684602      17.684405      17.683274      5530.2964    
       115   0             -2181.2095      1147.9854      1143.4789      1145.5589      1154.9182      142.28199      197.32173     -132.85027      17.684602      17.684405      17.683274      5530.2964    
       116   0             -2181.2095      1148.1714      1143.6375      1145.8436      1155.0332      142.20585      197.36097     -132.87988      17.684602      17.684405      17.683274      5530.2964    
       117   0             -2181.2095      1148.2015      1143.6776      1145.946       1154.9808      142.15843      197.37265     -132.88945      17.684602      17.684405      17.683274      5530.2964    
       118   0             -2181.2095      1148.2415      1143.7206      1145.9846      1155.0193      142.1564       197.46319     -132.87274      17.684602      17.684405      17.683274      5530.2964    
       119   0             -2181.2095      1148.1669      1143.6239      1145.9041      1154.9727      142.15465      197.46558     -132.82463      17.684602      17.684405      17.683274      5530.2964    
       120   0             -2181.2095      1148.1239      1143.5568      1145.8686      1154.9464      142.13876      197.44339     -132.83383      17.684602      17.684405      17.683274      5530.2964    
       121   0             -2181.2095      1148.198       1143.6084      1145.9464      1155.0391      142.14546      197.42899     -132.83719      17.684602      17.684405      17.683274      5530.2964    
       122   0             -2181.2095      1148.2164      1143.6282      1145.9627      1155.0583      142.14131      197.4301      -132.84409      17.684602      17.684405      17.683274      5530.2964    
       123   0             -2181.2095      1148.1756      1143.5908      1145.9248      1155.0112      142.14179      197.42782     -132.8407       17.684602      17.684405      17.683274      5530.2964    
       124   0             -2181.2095      1148.164       1143.5808      1145.9171      1154.9942      142.14317      197.42925     -132.83708      17.684602      17.684405      17.683274      5530.2964    
       125   0             -2181.2095      1148.1619      1143.579       1145.9157      1154.991       142.14225      197.42983     -132.83753      17.684602      17.684405      17.683274      5530.2964    
       126   0             -2181.2095      1148.1667      1143.5826      1145.9219      1154.9956      142.14158      197.4295      -132.8378       17.684602      17.684405      17.683274      5530.2964    
       127   0             -2181.2095      1148.1728      1143.587       1145.9292      1155.0023      142.14081      197.4305      -132.83833      17.684602      17.684405      17.683274      5530.2964    
       128   0             -2181.2095      1148.1699      1143.5843      1145.926       1154.9995      142.14018      197.43089     -132.83958      17.684602      17.684405      17.683274      5530.2964    
       129   0             -2181.2095      1148.1692      1143.5841      1145.9254      1154.9982      142.13978      197.43049     -132.84012      17.684602      17.684405      17.683274      5530.2964    
       130   0             -2181.2095      1148.1697      1143.5847      1145.9258      1154.9984      142.13992      197.43048     -132.84008      17.684602      17.684405      17.683274      5530.2964    
       131   0             -2181.2095      1148.1703      1143.5852      1145.9265      1154.9992      142.13975      197.43049     -132.84017      17.684602      17.684405      17.683274      5530.2964    
       132   0             -2181.2095      1148.1703      1143.5848      1145.9267      1154.9995      142.14002      197.43034     -132.84041      17.684602      17.684405      17.683274      5530.2964    
       133   0             -2181.2095      1148.1702      1143.5845      1145.9267      1154.9994      142.14022      197.43042     -132.84034      17.684602      17.684405      17.683274      5530.2964    
       134   0             -2181.2095      1148.1702      1143.5845      1145.9266      1154.9994      142.1403       197.43042     -132.84018      17.684602      17.684405      17.683274      5530.2964    
       135   0             -2181.2095      1148.1702      1143.5845      1145.9267      1154.9995      142.14032      197.43038     -132.84014      17.684602      17.684405      17.683274      5530.2964    
       136   0             -2181.2095      1148.1701      1143.5844      1145.9265      1154.9994      142.14031      197.43038     -132.84013      17.684602      17.684405      17.683274      5530.2964    
       137   0             -2181.2095      1148.1701      1143.5844      1145.9265      1154.9994      142.14028      197.43036     -132.84014      17.684602      17.684405      17.683274      5530.2964    
       138   0             -2181.2095      1148.1701      1143.5844      1145.9266      1154.9994      142.14029      197.43037     -132.84015      17.684602      17.684405      17.683274      5530.2964    
       139   0             -2181.2095      1148.1701      1143.5844      1145.9266      1154.9994      142.14028      197.43036     -132.84015      17.684602      17.684405      17.683274      5530.2964    
       140   0             -2181.2095      1148.1701      1143.5844      1145.9266      1154.9994      142.14029      197.43036     -132.84015      17.684602      17.684405      17.683274      5530.2964    
       141   0             -2181.2095      1148.1701      1143.5844      1145.9266      1154.9994      142.14029      197.43036     -132.84015      17.684602      17.684405      17.683274      5530.2964    
       142   0             -2181.2095      1148.1701      1143.5844      1145.9266      1154.9994      142.14028      197.43036     -132.84015      17.684602      17.684405      17.683274      5530.2964    
       143   0             -2181.2095      1148.1701      1143.5844      1145.9266      1154.9994      142.14028      197.43036     -132.84016      17.684602      17.684405      17.683274      5530.2964    
       144   0             -2181.2095      1148.1701      1143.5844      1145.9266      1154.9994      142.14028      197.43036     -132.84016      17.684602      17.684405      17.683274      5530.2964    
       145   0             -2181.2095      1148.1701      1143.5844      1145.9266      1154.9994      142.14028      197.43036     -132.84016      17.684602      17.684405      17.683274      5530.2964    
       146   0             -2181.2095      1148.1701      1143.5844      1145.9266      1154.9994      142.14028      197.43036     -132.84016      17.684602      17.684405      17.683274      5530.2964    
       147   0             -2181.2095      1148.1701      1143.5844      1145.9266      1154.9994      142.14028      197.43036     -132.84016      17.684602      17.684405      17.683274      5530.2964    
       148   0             -2181.2095      1148.1701      1143.5844      1145.9266      1154.9994      142.14028      197.43036     -132.84016      17.684602      17.684405      17.683274      5530.2964    
       149   0             -2181.2095      1148.1701      1143.5844      1145.9266      1154.9994      142.14028      197.43036     -132.84016      17.684602      17.684405      17.683274      5530.2964    
       150   0             -2181.2095      1148.1701      1143.5844      1145.9266      1154.9994      142.14028      197.43036     -132.84016      17.684602      17.684405      17.683274      5530.2964    
       151   0             -2181.2095      1148.1701      1143.5844      1145.9266      1154.9994      142.14028      197.43036     -132.84016      17.684602      17.684405      17.683274      5530.2964    
       152   0             -2181.2095      1148.1701      1143.5844      1145.9266      1154.9994      142.14028      197.43036     -132.84016      17.684602      17.684405      17.683274      5530.2964    
       153   0             -2181.2095      1148.1701      1143.5844      1145.9266      1154.9994      142.14028      197.43036     -132.84016      17.684602      17.684405      17.683274      5530.2964    
       154   0             -2181.2095      1148.1701      1143.5844      1145.9266      1154.9994      142.14028      197.43036     -132.84016      17.684602      17.684405      17.683274      5530.2964    
       155   0             -2181.2095      1148.1701      1143.5844      1145.9266      1154.9994      142.14028      197.43036     -132.84016      17.684602      17.684405      17.683274      5530.2964    
       156   0             -2181.2095      1148.1701      1143.5844      1145.9266      1154.9994      142.14028      197.43036     -132.84016      17.684602      17.684405      17.683274      5530.2964    
       157   0             -2181.2095      1148.1701      1143.5844      1145.9266      1154.9994      142.14028      197.43036     -132.84016      17.684602      17.684405      17.683274      5530.2964    
       158   0             -2181.2095      1148.1701      1143.5844      1145.9266      1154.9994      142.14028      197.43036     -132.84016      17.684602      17.684405      17.683274      5530.2964    
       159   0             -2181.2095      1148.1701      1143.5844      1145.9266      1154.9994      142.14028      197.43036     -132.84016      17.684602      17.684405      17.683274      5530.2964    
       160   0             -2181.2095      1148.1701      1143.5844      1145.9266      1154.9994      142.14028      197.43036     -132.84016      17.684602      17.684405      17.683274      5530.2964    
       161   0             -2181.2095      1148.1701      1143.5844      1145.9266      1154.9994      142.14028      197.43036     -132.84016      17.684602      17.684405      17.683274      5530.2964    
Loop time of 0.144679 on 1 procs for 61 steps with 500 atoms

97.2% CPU use with 1 MPI tasks x 1 OpenMP threads

Minimization stats:
  Stopping criterion = force tolerance
  Energy initial, next-to-last, final = 
     -2180.96472320704  -2181.20950303628  -2181.20950303628
  Force two-norm initial, final = 2.0576472 7.721634e-11
  Force max component initial, final = 0.1844615 9.5997064e-12
  Final line search alpha, max atom move = 1 9.5997064e-12
  Iterations, force evaluations = 61 120

MPI task timing breakdown:
Section |  min time  |  avg time  |  max time  |%varavg| %total
---------------------------------------------------------------
Pair    | 0.14199    | 0.14199    | 0.14199    |   0.0 | 98.14
Neigh   | 0          | 0          | 0          |   0.0 |  0.00
Comm    | 0.000748   | 0.000748   | 0.000748   |   0.0 |  0.52
Output  | 0.000991   | 0.000991   | 0.000991   |   0.0 |  0.68
Modify  | 0          | 0          | 0          |   0.0 |  0.00
Other   |            | 0.000953   |            |       |  0.66

Nlocal:            500 ave         500 max         500 min
Histogram: 1 0 0 0 0 0 0 0 0 0
Nghost:           1956 ave        1956 max        1956 min
Histogram: 1 0 0 0 0 0 0 0 0 0
Neighs:          33500 ave       33500 max       33500 min
Histogram: 1 0 0 0 0 0 0 0 0 0

Total # of neighbors = 33500
Ave neighs/atom = 67
Neighbor list builds = 0
Dangerous builds = 0
OMP_NUM_THREADS environment is not set. Defaulting to 1 thread. (src/comm.cpp:98)
  using 1 OpenMP thread(s) per MPI task
Loaded 1 plugins from F:\Lammps\LAMMPS 64-bit 2Aug2023\plugins

The 'box' command has been removed and will be ignored

Reading restart file ...
  restart file = 2 Aug 2023, LAMMPS = 2 Aug 2023
  restoring atom style atomic from restart
  triclinic box = (0.052699196 0.052788792 0.053362871) to (17.737301 17.737211 17.736637) with tilt (0 0 0)
  1 by 1 by 1 MPI processor grid
  pair style eam/alloy stores no restart info
  500 atoms
  read_restart CPU = 0.000 seconds
Changing box ...
  triclinic box = (0.052699196 0.052788792 0.053362871) to (17.737301 17.737229 17.736637) with tilt (0 0 0)
  triclinic box = (0.052699196 0.052788792 0.053362871) to (17.737301 17.737229 17.736637) with tilt (0 0 0)
Neighbor list info ...
  update: every = 1 steps, delay = 0 steps, check = yes
  max neighbors/atom: 2000, page size: 100000
  master list distance cutoff = 6.80375
  ghost atom cutoff = 6.80375
  1 neighbor lists, perpetual/occasional/extra = 1 0 0
  (1) pair eam/alloy, perpetual
      attributes: half, newton on
      pair build: half/nsq/newton
      stencil: none
      bin: none
Setting up cg style minimization ...
  Unit style    : metal
  Current step  : 100
Per MPI rank memory allocation (min/avg/max) = 4.483 | 4.483 | 4.483 Mbytes
   Step          Temp          PotEng         Press           Pxx            Pyy            Pzz            Pxy            Pxz            Pyz             Lx             Ly             Lz           Volume    
       100   0             -2180.9647     -262.12605     -261.58718     -262.62575     -262.16521      113.66718      134.49247     -58.203726      17.684602      17.68444       17.683274      5530.3075    
       101   0             -2181.1268      597.80598      600.31868      595.42639      597.67288      127.75538      163.45273     -100.94872      17.684602      17.68444       17.683274      5530.3075    
       102   0             -2181.1869      1083.1508      1084.8429      1081.9917      1082.6177      129.89774      187.9471      -137.46187      17.684602      17.68444       17.683274      5530.3075    
       103   0             -2181.2035      1096.7047      1101.0067      1097.0936      1092.0139      137.93121      195.13333     -130.19078      17.684602      17.68444       17.683274      5530.3075    
       104   0             -2181.207       1154.5048      1156.1143      1151.1757      1156.2245      137.32172      198.65054     -134.29439      17.684602      17.68444       17.683274      5530.3075    
       105   0             -2181.2084      1207.1599      1207.3166      1201.4876      1212.6754      142.4199       197.93433     -132.99106      17.684602      17.68444       17.683274      5530.3075    
       106   0             -2181.2091      1140.7675      1138.5346      1135.257       1148.5109      141.735        196.29127     -132.82565      17.684602      17.68444       17.683274      5530.3075    
       107   0             -2181.2093      1137.2893      1134.9559      1132.2233      1144.6886      142.51193      197.71552     -131.97249      17.684602      17.68444       17.683274      5530.3075    
       108   0             -2181.2094      1148.5661      1145.6307      1144.1543      1155.9133      142.3983       197.44635     -131.84139      17.684602      17.68444       17.683274      5530.3075    
       109   0             -2181.2094      1146.896       1143.3034      1142.775       1154.6095      141.91864      197.47355     -133.19166      17.684602      17.68444       17.683274      5530.3075    
       110   0             -2181.2095      1143.5984      1140.2843      1139.2592      1151.2517      141.12569      197.48738     -133.15794      17.684602      17.68444       17.683274      5530.3075    
       111   0             -2181.2095      1142.3176      1139.0151      1138.1779      1149.7598      141.8508       197.36053     -132.46659      17.684602      17.68444       17.683274      5530.3075    
       112   0             -2181.2095      1143.5934      1140.164       1139.6454      1150.9709      142.19014      197.42804     -132.5089       17.684602      17.68444       17.683274      5530.3075    
       113   0             -2181.2095      1145.7038      1142.1086      1141.7929      1153.2098      142.17187      197.5504      -132.72394      17.684602      17.68444       17.683274      5530.3075    
       114   0             -2181.2095      1144.8052      1141.057       1141.0904      1152.2682      142.36468      197.43847     -132.91706      17.684602      17.68444       17.683274      5530.3075    
       115   0             -2181.2095      1144.3223      1140.4301      1140.6826      1151.8544      142.28155      197.32027     -132.85086      17.684602      17.68444       17.683274      5530.3075    
       116   0             -2181.2095      1144.5085      1140.5887      1140.9673      1151.9694      142.20543      197.35954     -132.8805       17.684602      17.68444       17.683274      5530.3075    
       117   0             -2181.2095      1144.5384      1140.6288      1141.0696      1151.9169      142.158        197.37119     -132.89008      17.684602      17.68444       17.683274      5530.3075    
       118   0             -2181.2095      1144.5785      1140.6718      1141.1083      1151.9554      142.15596      197.46174     -132.87337      17.684602      17.68444       17.683274      5530.3075    
       119   0             -2181.2095      1144.5038      1140.575       1141.0278      1151.9087      142.15423      197.46414     -132.82525      17.684602      17.68444       17.683274      5530.3075    
       120   0             -2181.2095      1144.4609      1140.508       1140.9922      1151.8825      142.13833      197.44194     -132.83445      17.684602      17.68444       17.683274      5530.3075    
       121   0             -2181.2095      1144.535       1140.5596      1141.0701      1151.9752      142.14503      197.42755     -132.83782      17.684602      17.68444       17.683274      5530.3075    
       122   0             -2181.2095      1144.5534      1140.5793      1141.0864      1151.9944      142.14089      197.42865     -132.84471      17.684602      17.68444       17.683274      5530.3075    
       123   0             -2181.2095      1144.5126      1140.542       1141.0485      1151.9474      142.14136      197.42637     -132.84132      17.684602      17.68444       17.683274      5530.3075    
       124   0             -2181.2095      1144.501       1140.532       1141.0407      1151.9303      142.14274      197.4278      -132.8377       17.684602      17.68444       17.683274      5530.3075    
       125   0             -2181.2095      1144.4989      1140.5302      1141.0394      1151.9271      142.14182      197.42838     -132.83815      17.684602      17.68444       17.683274      5530.3075    
       126   0             -2181.2095      1144.5037      1140.5337      1141.0455      1151.9317      142.14115      197.42805     -132.83842      17.684602      17.68444       17.683274      5530.3075    
       127   0             -2181.2095      1144.5098      1140.5382      1141.0529      1151.9384      142.14038      197.42905     -132.83895      17.684602      17.68444       17.683274      5530.3075    
       128   0             -2181.2095      1144.5069      1140.5354      1141.0497      1151.9357      142.13975      197.42944     -132.8402       17.684602      17.68444       17.683274      5530.3075    
       129   0             -2181.2095      1144.5062      1140.5352      1141.0491      1151.9344      142.13935      197.42904     -132.84075      17.684602      17.68444       17.683274      5530.3075    
       130   0             -2181.2095      1144.5067      1140.5359      1141.0495      1151.9346      142.13949      197.42903     -132.8407       17.684602      17.68444       17.683274      5530.3075    
       131   0             -2181.2095      1144.5073      1140.5364      1141.0502      1151.9354      142.13932      197.42904     -132.84079      17.684602      17.68444       17.683274      5530.3075    
       132   0             -2181.2095      1144.5073      1140.5359      1141.0504      1151.9356      142.1396       197.42889     -132.84103      17.684602      17.68444       17.683274      5530.3075    
       133   0             -2181.2095      1144.5072      1140.5357      1141.0503      1151.9355      142.13979      197.42897     -132.84096      17.684602      17.68444       17.683274      5530.3075    
[...]
       155   0             -2181.2095      1146.3389      1142.0607      1143.4886      1153.4675      143.31883      197.43147     -132.84024      17.684602      17.684422      17.683274      5530.3019    
       156   0             -2181.2095      1146.3389      1142.0607      1143.4886      1153.4675      143.31883      197.43147     -132.84024      17.684602      17.684422      17.683274      5530.3019    
       157   0             -2181.2095      1146.3389      1142.0607      1143.4886      1153.4675      143.31883      197.43147     -132.84024      17.684602      17.684422      17.683274      5530.3019    
       158   0             -2181.2095      1146.3389      1142.0607      1143.4886      1153.4675      143.31883      197.43147     -132.84024      17.684602      17.684422      17.683274      5530.3019    
       159   0             -2181.2095      1146.3389      1142.0607      1143.4886      1153.4675      143.31883      197.43147     -132.84024      17.684602      17.684422      17.683274      5530.3019    
       160   0             -2181.2095      1146.3389      1142.0607      1143.4886      1153.4675      143.31883      197.43147     -132.84024      17.684602      17.684422      17.683274      5530.3019    
       161   0             -2181.2095      1146.3389      1142.0607      1143.4886      1153.4675      143.31883      197.43147     -132.84024      17.684602      17.684422      17.683274      5530.3019    
Loop time of 0.145637 on 1 procs for 61 steps with 500 atoms

107.3% CPU use with 1 MPI tasks x 1 OpenMP threads

Minimization stats:
  Stopping criterion = force tolerance
  Energy initial, next-to-last, final = 
     -2180.96472191892  -2181.20950649485  -2181.20950649484
  Force two-norm initial, final = 2.0576714 7.7187793e-11
  Force max component initial, final = 0.18446519 9.5855685e-12
  Final line search alpha, max atom move = 1 9.5855685e-12
  Iterations, force evaluations = 61 120

MPI task timing breakdown:
Section |  min time  |  avg time  |  max time  |%varavg| %total
---------------------------------------------------------------
Pair    | 0.1429     | 0.1429     | 0.1429     |   0.0 | 98.12
Neigh   | 0          | 0          | 0          |   0.0 |  0.00
Comm    | 0.000712   | 0.000712   | 0.000712   |   0.0 |  0.49
Output  | 0.001015   | 0.001015   | 0.001015   |   0.0 |  0.70
Modify  | 0          | 0          | 0          |   0.0 |  0.00
Other   |            | 0.001005   |            |       |  0.69

Nlocal:            500 ave         500 max         500 min
Histogram: 1 0 0 0 0 0 0 0 0 0
Nghost:           1956 ave        1956 max        1956 min
Histogram: 1 0 0 0 0 0 0 0 0 0
Neighs:          33500 ave       33500 max       33500 min
Histogram: 1 0 0 0 0 0 0 0 0 0

Total # of neighbors = 33500
Ave neighs/atom = 67
Neighbor list builds = 0
Dangerous builds = 0
OMP_NUM_THREADS environment is not set. Defaulting to 1 thread. (src/comm.cpp:98)
  using 1 OpenMP thread(s) per MPI task
Loaded 1 plugins from F:\Lammps\LAMMPS 64-bit 2Aug2023\plugins

The 'box' command has been removed and will be ignored

Reading restart file ...
  restart file = 2 Aug 2023, LAMMPS = 2 Aug 2023
  restoring atom style atomic from restart
  triclinic box = (0.052699196 0.052788792 0.053362871) to (17.737301 17.737211 17.736637) with tilt (0 0 0)
  1 by 1 by 1 MPI processor grid
  pair style eam/alloy stores no restart info
  500 atoms
  read_restart CPU = 0.000 seconds
Changing box ...
  triclinic box = (0.052699196 0.052788792 0.053362871) to (17.737301 17.737211 17.736637) with tilt (1.7684422e-05 0 0)
Neighbor list info ...
  update: every = 1 steps, delay = 0 steps, check = yes
  max neighbors/atom: 2000, page size: 100000
  master list distance cutoff = 6.80375
  ghost atom cutoff = 6.80375
  1 neighbor lists, perpetual/occasional/extra = 1 0 0
  (1) pair eam/alloy, perpetual
      attributes: half, newton on
      pair build: half/nsq/newton
      stencil: none
      bin: none
Setting up cg style minimization ...
  Unit style    : metal
  Current step  : 100
Per MPI rank memory allocation (min/avg/max) = 4.483 | 4.483 | 4.483 Mbytes
   Step          Temp          PotEng         Press           Pxx            Pyy            Pzz            Pxy            Pxz            Pyz             Lx             Ly             Lz           Volume    
       100   0             -2180.9647     -260.26313     -260.03097     -260.15247     -260.60595      112.47802      134.49201     -58.20452       17.684602      17.684422      17.683274      5530.3019    
       101   0             -2181.1268      599.66553      601.8723       597.89384      599.23045      126.57318      163.45241     -100.95029      17.684602      17.684422      17.683274      5530.3019    
       102   0             -2181.1869      1084.9863      1086.3709      1084.4362      1084.1517      128.7173       187.9461      -137.46307      17.684602      17.684422      17.683274      5530.3019    
       103   0             -2181.2035      1098.5446      1102.54        1099.5397      1093.5542      136.75337      195.13222     -130.1895       17.684602      17.684422      17.683274      5530.3019    
       104   0             -2181.207       1156.3226      1157.6245      1153.6013      1157.742       136.14291      198.64879     -134.29369      17.684602      17.684422      17.683274      5530.3019    
       105   0             -2181.2084      1208.9936      1208.8426      1203.929       1214.2092      141.24023      197.93331     -132.99161      17.684602      17.684422      17.683274      5530.3019    
       106   0             -2181.2091      1142.6028      1140.0624      1137.6993      1150.0466      140.55635      196.29025     -132.82592      17.684602      17.684422      17.683274      5530.3019    
       107   0             -2181.2093      1139.1184      1136.4774      1134.6596      1146.2182      141.33316      197.71429     -131.97237      17.684602      17.684422      17.683274      5530.3019    
       108   0             -2181.2094      1150.3973      1147.1544      1146.5925      1157.445       141.21956      197.44523     -131.84109      17.684602      17.684422      17.683274      5530.3019    
       109   0             -2181.2094      1148.7273      1144.8272      1145.2132      1156.1413      140.74016      197.47247     -133.19155      17.684602      17.684422      17.683274      5530.3019    
       110   0             -2181.2095      1145.4294      1141.8078      1141.6971      1152.7832      139.94708      197.48626     -133.15786      17.684602      17.684422      17.683274      5530.3019    
       111   0             -2181.2095      1144.1494      1140.5395      1140.6164      1151.2923      140.67224      197.35943     -132.46658      17.684602      17.684422      17.683274      5530.3019    
       112   0             -2181.2095      1145.4242      1141.6873      1142.083       1152.5024      141.01164      197.42691     -132.50878      17.684602      17.684422      17.683274      5530.3019    
       113   0             -2181.2095      1147.5346      1143.632       1144.2305      1154.7413      140.99334      197.54928     -132.72382      17.684602      17.684422      17.683274      5530.3019    
       114   0             -2181.2095      1146.6366      1142.581       1143.5286      1153.8003      141.18619      197.43737     -132.91698      17.684602      17.684422      17.683274      5530.3019    
       115   0             -2181.2095      1146.1535      1141.9538      1143.1205      1153.3862      141.10304      197.31915     -132.85078      17.684602      17.684422      17.683274      5530.3019    
       116   0             -2181.2095      1146.3396      1142.1124      1143.4052      1153.5012      141.02689      197.35842     -132.88041      17.684602      17.684422      17.683274      5530.3019    
       117   0             -2181.2095      1146.3696      1142.1526      1143.5076      1153.4488      140.97946      197.37008     -132.88999      17.684602      17.684422      17.683274      5530.3019    
       118   0             -2181.2095      1146.4097      1142.1956      1143.5462      1153.4873      140.97742      197.46063     -132.87327      17.684602      17.684422      17.683274      5530.3019    
       119   0             -2181.2095      1146.3351      1142.0988      1143.4657      1153.4406      140.97569      197.46302     -132.82516      17.684602      17.684422      17.683274      5530.3019    
       120   0             -2181.2095      1146.2921      1142.0317      1143.4302      1153.4144      140.95979      197.44083     -132.83436      17.684602      17.684422      17.683274      5530.3019    
       121   0             -2181.2095      1146.3662      1142.0833      1143.508       1153.5071      140.96649      197.42643     -132.83773      17.684602      17.684422      17.683274      5530.3019    
       122   0             -2181.2095      1146.3846      1142.1031      1143.5244      1153.5263      140.96235      197.42753     -132.84462      17.684602      17.684422      17.683274      5530.3019    
       123   0             -2181.2095      1146.3438      1142.0657      1143.4864      1153.4792      140.96282      197.42525     -132.84123      17.684602      17.684422      17.683274      5530.3019    
       124   0             -2181.2095      1146.3322      1142.0557      1143.4787      1153.4621      140.9642       197.42669     -132.83762      17.684602      17.684422      17.683274      5530.3019    
       125   0             -2181.2095      1146.3301      1142.0539      1143.4774      1153.4589      140.96328      197.42727     -132.83806      17.684602      17.684422      17.683274      5530.3019    
       126   0             -2181.2095      1146.3349      1142.0575      1143.4835      1153.4636      140.96261      197.42694     -132.83833      17.684602      17.684422      17.683274      5530.3019    
       127   0             -2181.2095      1146.341       1142.062       1143.4908      1153.4703      140.96184      197.42793     -132.83886      17.684602      17.684422      17.683274      5530.3019    
       128   0             -2181.2095      1146.3381      1142.0592      1143.4876      1153.4675      140.96121      197.42832     -132.84012      17.684602      17.684422      17.683274      5530.3019    
       129   0             -2181.2095      1146.3374      1142.059       1143.487       1153.4662      140.96081      197.42792     -132.84066      17.684602      17.684422      17.683274      5530.3019    
       130   0             -2181.2095      1146.3378      1142.0597      1143.4874      1153.4664      140.96095      197.42791     -132.84061      17.684602      17.684422      17.683274      5530.3019    
       131   0             -2181.2095      1146.3385      1142.0601      1143.4882      1153.4672      140.96078      197.42793     -132.8407       17.684602      17.684422      17.683274      5530.3019    
       132   0             -2181.2095      1146.3385      1142.0597      1143.4883      1153.4674      140.96105      197.42777     -132.84095      17.684602      17.684422      17.683274      5530.3019    
       133   0             -2181.2095      1146.3384      1142.0595      1143.4883      1153.4674      140.96125      197.42785     -132.84087      17.684602      17.684422      17.683274      5530.3019    
       134   0             -2181.2095      1146.3384      1142.0594      1143.4883      1153.4674      140.96133      197.42785     -132.84071      17.684602      17.684422      17.683274      5530.3019    
       135   0             -2181.2095      1146.3384      1142.0594      1143.4883      1153.4675      140.96135      197.42781     -132.84067      17.684602      17.684422      17.683274      5530.3019    
       136   0             -2181.2095      1146.3383      1142.0594      1143.4881      1153.4674      140.96134      197.42781     -132.84066      17.684602      17.684422      17.683274      5530.3019    
       137   0             -2181.2095      1146.3383      1142.0593      1143.4881      1153.4674      140.96131      197.4278      -132.84068      17.684602      17.684422      17.683274      5530.3019    
       138   0             -2181.2095      1146.3383      1142.0594      1143.4882      1153.4674      140.96132      197.42781     -132.84068      17.684602      17.684422      17.683274      5530.3019    
       139   0             -2181.2095      1146.3383      1142.0594      1143.4882      1153.4674      140.96131      197.4278      -132.84068      17.684602      17.684422      17.683274      5530.3019    
       140   0             -2181.2095      1146.3383      1142.0594      1143.4882      1153.4674      140.96132      197.4278      -132.84068      17.684602      17.684422      17.683274      5530.3019    
       141   0             -2181.2095      1146.3383      1142.0593      1143.4882      1153.4674      140.96132      197.42779     -132.84068      17.684602      17.684422      17.683274      5530.3019    
       142   0             -2181.2095      1146.3383      1142.0594      1143.4882      1153.4674      140.96131      197.42779     -132.84069      17.684602      17.684422      17.683274      5530.3019    
       143   0             -2181.2095      1146.3383      1142.0594      1143.4882      1153.4674      140.96131      197.42779     -132.84069      17.684602      17.684422      17.683274      5530.3019    
       144   0             -2181.2095      1146.3383      1142.0594      1143.4882      1153.4674      140.96131      197.42779     -132.84069      17.684602      17.684422      17.683274      5530.3019    
       145   0             -2181.2095      1146.3383      1142.0594      1143.4882      1153.4674      140.96131      197.42779     -132.84069      17.684602      17.684422      17.683274      5530.3019    
       146   0             -2181.2095      1146.3383      1142.0594      1143.4882      1153.4674      140.96131      197.42779     -132.84069      17.684602      17.684422      17.683274      5530.3019    
       147   0             -2181.2095      1146.3383      1142.0594      1143.4882      1153.4674      140.96131      197.42779     -132.84069      17.684602      17.684422      17.683274      5530.3019    
       148   0             -2181.2095      1146.3383      1142.0594      1143.4882      1153.4674      140.96131      197.42779     -132.84069      17.684602      17.684422      17.683274      5530.3019    
       149   0             -2181.2095      1146.3383      1142.0593      1143.4882      1153.4674      140.96131      197.42779     -132.84069      17.684602      17.684422      17.683274      5530.3019    
       150   0             -2181.2095      1146.3383      1142.0593      1143.4882      1153.4674      140.96131      197.42779     -132.84069      17.684602      17.684422      17.683274      5530.3019    
       151   0             -2181.2095      1146.3383      1142.0593      1143.4882      1153.4674      140.96131      197.42779     -132.84069      17.684602      17.684422      17.683274      5530.3019    
       152   0             -2181.2095      1146.3383      1142.0593      1143.4882      1153.4674      140.96131      197.42779     -132.84069      17.684602      17.684422      17.683274      5530.3019    
       153   0             -2181.2095      1146.3383      1142.0593      1143.4882      1153.4674      140.96131      197.42779     -132.84069      17.684602      17.684422      17.683274      5530.3019    
       154   0             -2181.2095      1146.3383      1142.0593      1143.4882      1153.4674      140.96131      197.42779     -132.84069      17.684602      17.684422      17.683274      5530.3019    
       155   0             -2181.2095      1146.3383      1142.0593      1143.4882      1153.4674      140.96131      197.42779     -132.84069      17.684602      17.684422      17.683274      5530.3019    
       156   0             -2181.2095      1146.3383      1142.0593      1143.4882      1153.4674      140.96131      197.42779     -132.84069      17.684602      17.684422      17.683274      5530.3019    
       157   0             -2181.2095      1146.3383      1142.0593      1143.4882      1153.4674      140.96131      197.42779     -132.84069      17.684602      17.684422      17.683274      5530.3019    
       158   0             -2181.2095      1146.3383      1142.0593      1143.4882      1153.4674      140.96131      197.42779     -132.84069      17.684602      17.684422      17.683274      5530.3019    
       159   0             -2181.2095      1146.3383      1142.0593      1143.4882      1153.4674      140.96131      197.42779     -132.84069      17.684602      17.684422      17.683274      5530.3019    
       160   0             -2181.2095      1146.3383      1142.0593      1143.4882      1153.4674      140.96131      197.42779     -132.84069      17.684602      17.684422      17.683274      5530.3019    
       161   0             -2181.2095      1146.3383      1142.0593      1143.4882      1153.4674      140.96131      197.42779     -132.84069      17.684602      17.684422      17.683274      5530.3019    
Loop time of 0.142697 on 1 procs for 61 steps with 500 atoms

109.5% CPU use with 1 MPI tasks x 1 OpenMP threads

Minimization stats:
  Stopping criterion = force tolerance
  Energy initial, next-to-last, final = 
     -2180.96472270362  -2181.20950747612  -2181.20950747612
  Force two-norm initial, final = 2.0576722 7.7201952e-11
  Force max component initial, final = 0.18446321 9.5919314e-12
  Final line search alpha, max atom move = 1 9.5919314e-12
  Iterations, force evaluations = 61 120

MPI task timing breakdown:
Section |  min time  |  avg time  |  max time  |%varavg| %total
---------------------------------------------------------------
Pair    | 0.14018    | 0.14018    | 0.14018    |   0.0 | 98.24
Neigh   | 0          | 0          | 0          |   0.0 |  0.00
Comm    | 0.00069    | 0.00069    | 0.00069    |   0.0 |  0.48
Output  | 0.000847   | 0.000847   | 0.000847   |   0.0 |  0.59
Modify  | 0          | 0          | 0          |   0.0 |  0.00
Other   |            | 0.000978   |            |       |  0.69

Nlocal:            500 ave         500 max         500 min
Histogram: 1 0 0 0 0 0 0 0 0 0
Nghost:           1956 ave        1956 max        1956 min
Histogram: 1 0 0 0 0 0 0 0 0 0
Neighs:          33500 ave       33500 max       33500 min
Histogram: 1 0 0 0 0 0 0 0 0 0

Total # of neighbors = 33500
Ave neighs/atom = 67
Neighbor list builds = 0
Dangerous builds = 0
=========================================
Components of the Elastic Constant Tensor
=========================================
Elastic Constant C11all = 242.636796547988 GPa
Elastic Constant C22all = 243.817269688996 GPa
Elastic Constant C33all = 243.987540684509 GPa
Elastic Constant C12all = 152.441665877748 GPa
Elastic Constant C13all = 152.885238372502 GPa
Elastic Constant C23all = 153.193177508998 GPa
Elastic Constant C44all = 118.13581219135 GPa
Elastic Constant C55all = 117.9900247684 GPa
Elastic Constant C66all = 117.87561729345 GPa
Elastic Constant C14all = 0.142486908320506 GPa
Elastic Constant C15all = 0.160658971255316 GPa
Elastic Constant C16all = 0.0799133049561078 GPa
Elastic Constant C24all = 0.0443303074498544 GPa
Elastic Constant C25all = 0.0625948129247717 GPa
Elastic Constant C26all = 0.0213807401521535 GPa
Elastic Constant C34all = -0.0779101138191436 GPa
Elastic Constant C35all = 0.221898497456323 GPa
Elastic Constant C36all = 0.0145307243482194 GPa
Elastic Constant C45all = 0.0664556195247314 GPa
Elastic Constant C46all = 0.0123627632248145 GPa
Elastic Constant C56all = 0.184033697074937 GPa
=========================================
Average properties for a cubic crystal
=========================================
Bulk Modulus = 183.053530048888 GPa
Shear Modulus 1 = 118.000484751067 GPa
Shear Modulus 2 = 45.3202541937075 GPa
Poisson Ratio = 0.385647482273392
Total wall time: 0:00:02
