LAMMPS (2 Aug 2023 - Update 3)
OMP_NUM_THREADS environment is not set. Defaulting to 1 thread. (src/comm.cpp:98)
  using 1 OpenMP thread(s) per MPI task
Loaded 1 plugins from F:\Lammps\LAMMPS 64-bit 2Aug2023\plugins
Lattice spacing in x,y,z = 3.21 5.5598831 5.241908
Created triclinic box = (0 0 0) to (6.42 16.679649 20.967632) with tilt (0 0 0)
  1 by 1 by 1 MPI processor grid
Created 96 atoms
  using lattice units in triclinic box = (0 0 0) to (6.42 16.679649 20.967632) with tilt (0 0 0)
  create_atoms CPU = 0.000 seconds
Neighbor list info ...
  update: every = 1 steps, delay = 0 steps, check = yes
  max neighbors/atom: 2000, page size: 100000
  master list distance cutoff = 8.5
  ghost atom cutoff = 8.5
  1 neighbor lists, perpetual/occasional/extra = 1 0 0
  (1) pair eam/alloy, perpetual
      attributes: half, newton on
      pair build: half/nsq/newton
      stencil: none
      bin: none
Setting up cg style minimization ...
  Unit style    : metal
  Current step  : 0
WARNING: Energy due to 3 extra global DOFs will be included in minimizer energies
 (src/min.cpp:228)
Per MPI rank memory allocation (min/avg/max) = 4.472 | 4.472 | 4.472 Mbytes
   Step          Temp          PotEng         Press           Pxx            Pyy            Pzz            Pxy            Pxz            Pyz             Lx             Ly             Lz           Volume    
         0   0             -146.56845     -9864.3832     -9673.7539     -9673.7539     -10245.642     -2.4955128e-12  2.5747355e-12 -2.9708486e-13  6.42           16.679649      20.967632      2245.2843    
         1   0             -146.57242     -9756.6247     -9563.4759     -9563.4759     -10142.922     -3.1500093e-12 -9.7670099e-12  2.1029779e-11  6.4193938      16.678074      20.965535      2244.6358    
         2   0             -146.57635     -9647.857      -9452.1746     -9452.1746     -10039.222      1.7562903e-11  7.2530578e-12  1.2881114e-12  6.4187885      16.676502      20.963439      2243.9881    
         3   0             -146.58023     -9538.7815     -9340.2259     -9340.2259     -9935.8925     -6.5910854e-13 -5.0349946e-12  4.2817277e-12  6.4181841      16.674931      20.961342      2243.3411    
         4   0             -146.58406     -9431.1326     -9229.8164     -9229.8164     -9833.765       1.5233264e-11  3.0535929e-12  3.3272265e-11  6.4175806      16.673363      20.959245      2242.6948    
         5   0             -146.58784     -9323.2119     -9119.4704     -9119.4704     -9730.695       7.5469258e-12  2.5586161e-12 -1.8842522e-12  6.416978       16.671798      20.957148      2242.0494    
         6   0             -146.59157     -9216.6124     -9010.1468     -9010.1468     -9629.5435     -9.0222119e-12  1.9046341e-12  2.1754492e-11  6.4163763      16.670235      20.955052      2241.4047    
         7   0             -146.59526     -9109.3171     -8900.4154     -8900.4154     -9527.1203     -1.3395806e-13 -7.3230409e-12 -1.5370448e-11  6.4157757      16.668674      20.952955      2240.7608    
         8   0             -146.5989      -9001.3603     -8789.6154     -8789.6154     -9424.8501      5.6973336e-12  4.5459561e-12 -1.5106867e-11  6.4151759      16.667116      20.950858      2240.1177    
         9   0             -146.60249     -8895.2656     -8681.1149     -8681.1149     -9323.5672      5.7783956e-12  5.1429707e-12  5.8379667e-12  6.4145772      16.66556       20.948761      2239.4755    
        10   0             -146.60603     -8787.8035     -8571.2943     -8571.2943     -9220.8219      2.0458601e-12  2.1451736e-12 -4.0420633e-12  6.4139795      16.664008      20.946665      2238.834     
        11   0             -146.60953     -8680.4544     -8460.9889     -8460.9889     -9119.3854     -1.2040253e-11 -6.8943363e-12  4.4405883e-12  6.4133828      16.662457      20.944568      2238.1934    
        12   0             -146.61298     -8574.1671     -8352.0707     -8352.0707     -9018.36        4.8592137e-12 -4.9883953e-12  8.3968008e-12  6.4127871      16.66091       20.942471      2237.5537    
        13   0             -146.61638     -8469.5129     -8245.1839     -8245.1839     -8918.1711     -1.3518237e-12  7.0175555e-12 -2.7632867e-12  6.4121926      16.659365      20.940374      2236.9148    
        14   0             -146.61974     -8363.3443     -8136.6345     -8136.6345     -8816.7638     -7.6558914e-13 -2.346481e-12   9.7935754e-12  6.4115991      16.657823      20.938278      2236.2768    
        15   0             -146.62304     -8255.4003     -8026.2591     -8026.2591     -8713.6827     -2.2476942e-11  5.6490722e-12  1.7156073e-11  6.4110067      16.656284      20.936181      2235.6397    
        16   0             -146.62631     -8148.9875     -7917.1021     -7917.1021     -8612.7581      1.2495166e-11 -1.750915e-12   4.7752228e-13  6.4104154      16.654748      20.934084      2235.0034    
        17   0             -146.62952     -8044.6833     -7810.2014     -7810.2014     -8513.6471      1.6384666e-11  5.3736531e-12  1.0538331e-11  6.4098253      16.653215      20.931987      2234.3682    
        18   0             -146.63269     -7940.75       -7704.2691     -7704.2691     -8413.7118     -6.9628476e-12  1.6722779e-12 -2.2187544e-11  6.4092364      16.651685      20.92989       2233.7339    
        19   0             -146.63582     -7834.6993     -7595.8697     -7595.8697     -8312.3584      2.2696659e-11 -1.4138739e-12 -1.3640896e-12  6.4086486      16.650158      20.927794      2233.1004    
        20   0             -146.63889     -7728.1906     -7487.3524     -7487.3524     -8209.867      -8.4806671e-12 -5.6969367e-12  2.0616537e-11  6.4080621      16.648634      20.925697      2232.468     
        21   0             -146.64193     -7623.4722     -7379.9272     -7379.9272     -8110.5624     -6.6698923e-12 -3.6064242e-12 -2.4298532e-11  6.4074766      16.647113      20.9236        2231.8364    
        22   0             -146.64491     -7519.5298     -7273.2329     -7273.2329     -8012.1235      4.5342174e-13 -1.6343113e-12 -5.1819627e-13  6.4068926      16.645595      20.921503      2231.2059    
        23   0             -146.64785     -7415.7555     -7167.5484     -7167.5484     -7912.1697     -6.6786437e-12  2.8508837e-12  9.4298461e-12  6.4063099      16.644081      20.919407      2230.5765    
        24   0             -146.65075     -7311.5991     -7061.7158     -7061.7158     -7811.3658      2.8467017e-12  2.2135474e-12 -9.0934919e-12  6.4057284      16.642571      20.91731       2229.9481    
        25   0             -146.6536      -7207.8811     -6955.773      -6955.773      -7712.0974     -1.0622034e-11  1.5160086e-12  9.2057626e-12  6.4051481      16.641063      20.915213      2229.3206    
        26   0             -146.6564      -7103.4914     -6849.0107     -6849.0107     -7612.4527     -6.7092258e-12 -1.085448e-11   3.5915558e-13  6.4045692      16.639559      20.913116      2228.6942    
        27   0             -146.65916     -6999.8613     -6743.1869     -6743.1869     -7513.2102     -8.3078038e-12 -2.2952491e-12 -1.8621456e-11  6.4039917      16.638058      20.91102       2228.0689    
        28   0             -146.66188     -6897.2087     -6638.4493     -6638.4493     -7414.7275      8.3650337e-12  7.7860696e-13  9.8124441e-12  6.4034156      16.636562      20.908923      2227.4447    
        29   0             -146.66455     -6794.1538     -6533.3766     -6533.3766     -7315.7083     -1.2705828e-11 -6.9894536e-13 -1.503731e-11   6.4028409      16.635069      20.906826      2226.8215    
        30   0             -146.66717     -6690.7955     -6428.5986     -6428.5986     -7215.1893      1.1985268e-13  1.0986496e-12 -3.3458873e-12  6.4022677      16.633579      20.904729      2226.1996    
        31   0             -146.66975     -6588.1525     -6323.4725     -6323.4725     -7117.5124     -1.0150358e-11 -4.2159952e-12 -4.4957295e-12  6.4016958      16.632094      20.902633      2225.5786    
        32   0             -146.67229     -6485.7587     -6219.2797     -6219.2797     -7018.7168     -9.2437955e-12  2.2584841e-12 -1.7718108e-11  6.4011256      16.630612      20.900536      2224.9589    
        33   0             -146.67478     -6383.9516     -6115.7681     -6115.7681     -6920.3186      1.3094853e-12 -3.07879e-12    5.5977999e-12  6.4005569      16.629135      20.898439      2224.3404    
        34   0             -146.67723     -6281.9599     -6011.8996     -6011.8996     -6822.0804     -9.3739185e-12  1.0598777e-12  2.0477637e-11  6.3999897      16.627661      20.896342      2223.7231    
        35   0             -146.67964     -6180.3081     -5908.8162     -5908.8162     -6723.2919      4.9908071e-12 -1.8603009e-12 -1.6212622e-11  6.3994241      16.626191      20.894245      2223.107     
        36   0             -146.682       -6078.8898     -5805.5072     -5805.5072     -6625.655       8.4136876e-12  1.4606402e-12 -6.9030255e-13  6.39886        16.624726      20.892149      2222.492     
        37   0             -146.68432     -5977.0717     -5702.0362     -5702.0362     -6527.1429      4.8284488e-12 -1.0287348e-11  1.9794138e-11  6.3982976      16.623265      20.890052      2221.8784    
        38   0             -146.68659     -5875.7368     -5598.8877     -5598.8877     -6429.4351      1.0630521e-11 -1.2412284e-11 -9.6795796e-12  6.397737       16.621808      20.887955      2221.266     
        39   0             -146.68882     -5776.0056     -5497.7079     -5497.7079     -6332.6011     -8.1803438e-12 -1.2876282e-11  1.5990219e-11  6.3971781      16.620356      20.885858      2220.655     
        40   0             -146.69101     -5675.4591     -5396.4061     -5396.4061     -6233.565      -4.6271197e-12 -3.2049314e-13 -1.4151775e-11  6.3966209      16.618909      20.883762      2220.0453    
        41   0             -146.69316     -5575.2197     -5294.5302     -5294.5302     -6136.5988      1.5878778e-12  2.0036313e-14  6.8223645e-12  6.3960654      16.617465      20.881665      2219.4369    
        42   0             -146.69526     -5475.1206     -5192.6784     -5192.6784     -6040.0051     -4.1586724e-12 -4.9703651e-12  1.8498576e-11  6.3955117      16.616027      20.879568      2218.8298    
        43   0             -146.69732     -5375.8019     -5092.0425     -5092.0425     -5943.3205      0             -6.7158342e-12 -1.249947e-11   6.3949599      16.614593      20.877471      2218.2242    
        44   0             -146.69934     -5276.1471     -4991.4893     -4991.4893     -5845.4626     -1.7596269e-12  4.0105456e-13 -5.6949747e-12  6.3944101      16.613165      20.875375      2217.62      
        45   0             -146.70132     -5177.2752     -4891.2519     -4891.2519     -5749.3219     -9.7282172e-13 -9.14653e-12    7.471672e-12   6.3938621      16.611741      20.873278      2217.0173    
        46   0             -146.70326     -5078.4368     -4791.4962     -4791.4962     -5652.318      -4.4440921e-12 -3.1098613e-12 -2.7386843e-11  6.3933162      16.610323      20.871181      2216.416     
        47   0             -146.70515     -4979.7729     -4691.8304     -4691.8304     -5555.6579     -6.3267686e-12 -3.7127746e-12  1.7911629e-11  6.3927722      16.608909      20.869084      2215.8162    
        48   0             -146.70701     -4881.362      -4592.1502     -4592.1502     -5459.7856      2.7050351e-12  5.9219692e-12  1.797669e-11   6.3922303      16.607501      20.866988      2215.218     
        49   0             -146.70882     -4784.1106     -4494.0227     -4494.0227     -5364.2863      6.8773589e-13  1.7670294e-12  4.3171742e-13  6.3916905      16.606099      20.864891      2214.6214    
        50   0             -146.71059     -4685.9172     -4395.3247     -4395.3247     -5267.1021     -6.8089087e-12 -1.4059694e-13  9.6007622e-12  6.391153       16.604702      20.862794      2214.0263    
        51   0             -146.71232     -4588.6275     -4297.6776     -4297.6776     -5170.5274     -1.2933363e-11  0             -1.4555684e-11  6.3906175      16.603311      20.860697      2213.4329    
        52   0             -146.71401     -4491.9531     -4200.2557     -4200.2557     -5075.3477     -5.8630183e-12  1.708163e-12  -5.8278503e-12  6.3900842      16.601926      20.858601      2212.841     
        53   0             -146.71566     -4395.3625     -4102.8641     -4102.8641     -4980.3592     -1.0332118e-11  1.2583474e-11  1.2744285e-11  6.3895531      16.600546      20.856504      2212.2508    
        54   0             -146.71727     -4298.0887     -4005.3573     -4005.3573     -4883.5515      4.0967491e-12  4.0213488e-13 -1.3391092e-11  6.3890245      16.599173      20.854407      2211.6625    
        55   0             -146.71885     -4202.8249     -3909.5978     -3909.5978     -4789.2792      2.2676369e-12  6.8381068e-13 -1.0880635e-11  6.3884983      16.597805      20.85231       2211.0758    
        56   0             -146.72038     -4106.7608     -3813.1767     -3813.1767     -4693.9292      7.026002e-12   3.922893e-12   2.0399044e-11  6.3879745      16.596445      20.850213      2210.491     
        57   0             -146.72187     -4010.8087     -3717.2323     -3717.2323     -4597.9616      1.2144054e-11 -1.0302826e-11 -3.3504307e-12  6.3874533      16.595091      20.848117      2209.908     
        58   0             -146.72332     -3915.4112     -3621.7194     -3621.7194     -4502.7949      1.831648e-12   8.0109439e-12  1.1342128e-11  6.3869346      16.593743      20.84602       2209.3269    
        59   0             -146.72474     -3821.4142     -3527.4731     -3527.4731     -4409.2963      7.5751458e-12  4.1071887e-12  4.0759821e-11  6.3864186      16.592402      20.843923      2208.7477    
        60   0             -146.72611     -3727.2365     -3433.3401     -3433.3401     -4315.0293     -5.4776829e-12 -4.7526955e-12 -1.1076197e-12  6.3859053      16.591069      20.841826      2208.1705    
        61   0             -146.72745     -3632.5188     -3339.157      -3339.157      -4219.2425     -3.7114927e-12 -1.8935159e-12  8.117946e-12   6.3853949      16.589742      20.83973       2207.5954    
        62   0             -146.72875     -3538.7272     -3245.7118     -3245.7118     -4124.7582      1.5464371e-12  7.4349875e-12 -1.3560289e-11  6.3848871      16.588423      20.837633      2207.0223    
        63   0             -146.73001     -3446.399      -3153.616      -3153.616      -4031.965      -5.4517198e-12 -2.4789706e-12 -2.085963e-11   6.3843823      16.587112      20.835536      2206.4513    
        64   0             -146.73124     -3353.4649     -3061.2917     -3061.2917     -3937.8114      1.7488305e-12  5.9470316e-12  2.3445416e-11  6.3838806      16.585808      20.833439      2205.8824    
        65   0             -146.73242     -3260.7499     -2969.3762     -2969.3762     -3843.4972     -9.7092591e-12  2.8633744e-12 -1.8763168e-11  6.3833819      16.584513      20.831343      2205.3158    
        66   0             -146.73358     -3168.9129     -2878.4568     -2878.4568     -3749.8252     -5.4710502e-12 -4.8004053e-12  1.3513746e-11  6.3828863      16.583225      20.829246      2204.7515    
        67   0             -146.73469     -3077.0407     -2787.1701     -2787.1701     -3656.7819      1.2009117e-11 -5.0033786e-12  1.1963724e-11  6.3823938      16.581946      20.827149      2204.1894    
        68   0             -146.73577     -2984.4975     -2695.4973     -2695.4973     -3562.4978      4.0259173e-12 -8.293995e-12  -1.2138292e-11  6.3819049      16.580675      20.825052      2203.6299    
        69   0             -146.73681     -2894.3912     -2606.4731     -2606.4731     -3470.2273     -4.8948961e-13 -1.5946259e-12  5.4499874e-12  6.3814196      16.579414      20.822956      2203.0729    
        70   0             -146.73782     -2805.0553     -2518.5169     -2518.5169     -3378.1322      9.2218828e-12 -5.1283158e-12  2.7822123e-11  6.3809378      16.578163      20.820859      2202.5184    
        71   0             -146.73879     -2714.7801     -2430.0155     -2430.0155     -3284.3092     -8.3356018e-12 -5.9778029e-12 -1.4177087e-11  6.3804596      16.57692       20.818762      2201.9666    
        72   0             -146.73972     -2625.2723     -2341.7622     -2341.7622     -3192.2924     -6.8984089e-12  2.4644389e-12  5.6257888e-12  6.3799851      16.575687      20.816665      2201.4173    
        73   0             -146.74062     -2536.2575     -2254.4775     -2254.4775     -3099.8176     -4.2481714e-12 -2.8287467e-13  3.8390134e-12  6.3795146      16.574465      20.814568      2200.8709    
        74   0             -146.74149     -2447.6978     -2167.7359     -2167.7359     -3007.6215     -1.3288288e-12  6.2652007e-13 -1.5945946e-11  6.3790481      16.573253      20.812472      2200.3274    
        75   0             -146.74232     -2360.1022     -2082.036      -2082.036      -2916.2344      1.5313083e-12 -7.4392269e-12 -1.5767927e-12  6.3785859      16.572052      20.810375      2199.7869    
        76   0             -146.74312     -2272.0819     -1996.6047     -1996.6047     -2823.0363      5.2572599e-13  6.5917951e-12 -3.1907524e-11  6.378128       16.570863      20.808278      2199.2495    
        77   0             -146.74389     -2184.9845     -1911.6905     -1911.6905     -2731.5724     -1.1513164e-11 -2.2854413e-12  1.0415949e-11  6.3776745      16.569684      20.806181      2198.7151    
        78   0             -146.74462     -2099.306      -1828.4857     -1828.4857     -2640.9465     -1.0256625e-11  9.8115646e-12  2.8099512e-11  6.3772257      16.568518      20.804085      2198.1841    
        79   0             -146.74532     -2013.5276     -1745.7404     -1745.7404     -2549.1018      6.3891654e-12 -3.7232191e-12 -7.233972e-12   6.3767817      16.567365      20.801988      2197.6565    
        80   0             -146.74599     -1928.6665     -1663.5011     -1663.5011     -2458.9973     -4.5792353e-12  9.5430252e-12 -6.1731128e-13  6.3763425      16.566224      20.799891      2197.1324    
        81   0             -146.74662     -1844.3897     -1582.2553     -1582.2553     -2368.6587     -6.4276316e-13 -3.6946229e-12  3.1601678e-11  6.3759087      16.565097      20.797794      2196.612     
        82   0             -146.74723     -1760.5943     -1501.9595     -1501.9595     -2277.864       7.8010315e-12  8.9096791e-13 -7.6744736e-12  6.3754804      16.563984      20.795698      2196.0954    
        83   0             -146.7478      -1676.8053     -1421.9737     -1421.9737     -2186.4686     -2.5722578e-12  1.1544779e-12  8.7801084e-12  6.3750576      16.562886      20.793601      2195.5828    
        84   0             -146.74835     -1594.7032     -1343.2583     -1343.2583     -2097.5929     -1.2383125e-11 -5.2672597e-13 -4.1712645e-11  6.3746406      16.561802      20.791504      2195.0742    
        85   0             -146.74886     -1513.2909     -1265.6929     -1265.6929     -2008.4867     -1.3490322e-11  9.7162738e-12 -8.287708e-12   6.3742301      16.560736      20.789407      2194.5701    
        86   0             -146.74935     -1432.2316     -1188.8796     -1188.8796     -1918.9355     -1.7633123e-12  1.1299386e-11  7.0431153e-12  6.3738261      16.559686      20.787311      2194.0706    
        87   0             -146.7498      -1351.5915     -1112.7737     -1112.7737     -1829.2271      3.3094903e-12 -7.6528796e-12 -1.3937364e-11  6.3734289      16.558654      20.785214      2193.5759    
        88   0             -146.75023     -1272.2644     -1037.8558     -1037.8558     -1741.0816      5.0692639e-13 -2.919896e-12   2.0074285e-12  6.3730389      16.557641      20.783117      2193.0862    
        89   0             -146.75063     -1193.6151     -963.99438     -963.99438     -1652.8564     -8.1785283e-12 -3.8940544e-12  3.5695499e-12  6.3726568      16.556648      20.78102       2192.602     
        90   0             -146.751       -1116.3145     -892.01965     -892.01965     -1564.9043      3.0479655e-12  2.8400344e-13 -2.2253698e-11  6.3722829      16.555677      20.778924      2192.1236    
        91   0             -146.75134     -1040.5963     -822.08268     -822.08268     -1477.6236     -2.0036705e-12  3.6319698e-12  1.2884362e-12  6.3719175      16.554727      20.776827      2191.651     
        92   0             -146.75166     -965.40865     -752.81968     -752.81968     -1390.5866     -3.6276693e-12 -5.7230923e-12  3.0888462e-11  6.3715609      16.553801      20.77473       2191.1846    
        93   0             -146.75195     -890.43872     -684.17465     -684.17465     -1302.9669      1.1468886e-12  2.8925951e-12 -4.1003804e-12  6.371214       16.552899      20.772633      2190.7248    
        94   0             -146.75222     -816.80927     -617.40777     -617.40777     -1215.6123     -1.5486195e-11 -1.0121099e-11  2.2932359e-11  6.3708774      16.552025      20.770536      2190.2722    
        95   0             -146.75246     -745.76228     -553.12718     -553.12718     -1131.0325      9.1230237e-12  2.193181e-12  -2.2287186e-11  6.3705519      16.551179      20.76844       2189.8274    
        96   0             -146.75269     -675.71114     -490.41582     -490.41582     -1046.3018      7.3222165e-12 -6.7027225e-13 -7.647197e-12   6.3702385      16.550365      20.766343      2189.3908    
        97   0             -146.75288     -606.83068     -429.2916      -429.2916      -961.90884     -1.4850445e-11  1.4169885e-11  2.4408769e-11  6.3699382      16.549585      20.764246      2188.9634    
        98   0             -146.75306     -539.71267     -370.38405     -370.38405     -878.36991     -6.5732363e-12 -6.0957369e-14 -3.1636874e-11  6.3696522      16.548842      20.762149      2188.5458    
        99   0             -146.75321     -474.0867      -313.88249     -313.88249     -794.49512      4.1966787e-12  5.0705633e-12 -1.4632487e-12  6.369382       16.54814       20.760053      2188.1391    
       100   0             -146.75335     -410.6318      -260.11286     -260.11286     -711.66969     -1.4889211e-12 -5.3662138e-12  2.2664123e-11  6.3691289      16.547482      20.757956      2187.7442    
Loop time of 0.02366 on 1 procs for 100 steps with 96 atoms

0.0% CPU use with 1 MPI tasks x 1 OpenMP threads

Minimization stats:
  Stopping criterion = max iterations
  Energy initial, next-to-last, final = 
     -146.568450621862  -146.753213887664  -146.753348893176
  Force two-norm initial, final = 23.952655 1.1044762
  Force max component initial, final = 14.358205 0.98158851
  Final line search alpha, max atom move = 9.1247978e-05 8.9567967e-05
  Iterations, force evaluations = 100 100

MPI task timing breakdown:
Section |  min time  |  avg time  |  max time  |%varavg| %total
---------------------------------------------------------------
Pair    | 0.018488   | 0.018488   | 0.018488   |   0.0 | 78.14
Neigh   | 0          | 0          | 0          |   0.0 |  0.00
Comm    | 0.000396   | 0.000396   | 0.000396   |   0.0 |  1.67
Output  | 0.000958   | 0.000958   | 0.000958   |   0.0 |  4.05
Modify  | 0          | 0          | 0          |   0.0 |  0.00
Other   |            | 0.003818   |            |       | 16.14

Nlocal:             96 ave          96 max          96 min
Histogram: 1 0 0 0 0 0 0 0 0 0
Nghost:           1310 ave        1310 max        1310 min
Histogram: 1 0 0 0 0 0 0 0 0 0
Neighs:           6144 ave        6144 max        6144 min
Histogram: 1 0 0 0 0 0 0 0 0 0

Total # of neighbors = 6144
Ave neighs/atom = 64
Neighbor list builds = 0
Dangerous builds = 0
Displacing atoms ...
System init for write_restart ...
OMP_NUM_THREADS environment is not set. Defaulting to 1 thread. (src/comm.cpp:98)
  using 1 OpenMP thread(s) per MPI task
Loaded 1 plugins from F:\Lammps\LAMMPS 64-bit 2Aug2023\plugins

The 'box' command has been removed and will be ignored

Reading restart file ...
  restart file = 2 Aug 2023, LAMMPS = 2 Aug 2023
  restoring atom style atomic from restart
  triclinic box = (0.025435542 0.066083476 0.10483816) to (6.3945645 16.613566 20.862794) with tilt (0 0 0)
  1 by 1 by 1 MPI processor grid
  pair style eam/alloy stores no restart info
  96 atoms
  read_restart CPU = 0.000 seconds
Changing box ...
  triclinic box = (0.025435542 0.066083476 0.10483816) to (6.3881953 16.613566 20.862794) with tilt (0 0 0)
  triclinic box = (0.025435542 0.066083476 0.10483816) to (6.3881953 16.613566 20.862794) with tilt (0 0 0)
  triclinic box = (0.025435542 0.066083476 0.10483816) to (6.3881953 16.613566 20.862794) with tilt (0 0 0)
Neighbor list info ...
  update: every = 1 steps, delay = 0 steps, check = yes
  max neighbors/atom: 2000, page size: 100000
  master list distance cutoff = 8.5
  ghost atom cutoff = 8.5
  1 neighbor lists, perpetual/occasional/extra = 1 0 0
  (1) pair eam/alloy, perpetual
      attributes: half, newton on
      pair build: half/nsq/newton
      stencil: none
      bin: none
Setting up cg style minimization ...
  Unit style    : metal
  Current step  : 100
Per MPI rank memory allocation (min/avg/max) = 4.467 | 4.467 | 4.467 Mbytes
   Step          Temp          PotEng         Press           Pxx            Pyy            Pzz            Pxy            Pxz            Pyz             Lx             Ly             Lz           Volume    
       100   0             -146.75323     -41.815607      436.47973     -7.6128993     -554.31365      0.017839761    6.8801067e-06 -0.00016268271  6.3627598      16.547482      20.757956      2185.5565    
       101   0             -146.75323     -41.806037      429.59339     -0.63836724    -554.37313      0.00081395111  2.9763651e-05  0.0003861888   6.3627598      16.547482      20.757956      2185.5565    
       102   0             -146.75323     -41.804397      429.2722      -0.30907879    -554.37632      7.5368771e-05  1.9057871e-06 -7.1400837e-05  6.3627598      16.547482      20.757956      2185.5565    
       103   0             -146.75323     -41.804342      429.25832     -0.29487038    -554.37648      3.4834066e-05  5.4836167e-07  2.1220317e-05  6.3627598      16.547482      20.757956      2185.5565    
       104   0             -146.75323     -41.804328      429.25524     -0.29170893    -554.37651      1.9360337e-05  2.0108457e-08 -7.703463e-06   6.3627598      16.547482      20.757956      2185.5565    
       105   0             -146.75323     -41.804323      429.25414     -0.29058926    -554.37652      1.1126881e-05 -2.9065982e-08  3.399181e-06   6.3627598      16.547482      20.757956      2185.5565    
       106   0             -146.75323     -41.804319      429.25334     -0.28976253    -554.37653      3.5834767e-06 -2.7758841e-08 -3.6511424e-06  6.3627598      16.547482      20.757956      2185.5565    
       107   0             -146.75323     -41.804316      429.25259     -0.2889923     -554.37654     -4.0922619e-06 -1.0974655e-09  5.3751263e-06  6.3627598      16.547482      20.757956      2185.5565    
       108   0             -146.75323     -41.804314      429.25231     -0.28871261    -554.37654     -7.3035586e-06  4.5813151e-09 -4.9678523e-06  6.3627598      16.547482      20.757956      2185.5565    
       109   0             -146.75323     -41.804315      429.25251     -0.28891527    -554.37654     -5.6048158e-06  8.4778267e-09  2.420674e-06   6.3627598      16.547482      20.757956      2185.5565    
       110   0             -146.75323     -41.804317      429.25282     -0.28923752    -554.37654     -2.520096e-06   6.8066304e-09 -1.1447021e-06  6.3627598      16.547482      20.757956      2185.5565    
       111   0             -146.75323     -41.804319      429.2532      -0.28962623    -554.37653      1.3405995e-06  2.2410626e-09  8.2713379e-07  6.3627598      16.547482      20.757956      2185.5565    
       112   0             -146.75323     -41.804319      429.25332     -0.28974683    -554.37653      2.6136485e-06 -3.51423e-10   -7.749588e-07   6.3627598      16.547482      20.757956      2185.5565    
       113   0             -146.75323     -41.804319      429.25325     -0.28967514    -554.37653      1.9840703e-06 -1.1798324e-09  6.2975152e-07  6.3627598      16.547482      20.757956      2185.5565    
       114   0             -146.75323     -41.804318      429.25311     -0.2895296     -554.37653      5.6982309e-07 -1.1747011e-09 -5.9174841e-07  6.3627598      16.547482      20.757956      2185.5565    
       115   0             -146.75323     -41.804318      429.25298     -0.28939293    -554.37654     -8.0202214e-07 -4.4918866e-10  6.1080727e-07  6.3627598      16.547482      20.757956      2185.5565    
       116   0             -146.75323     -41.804317      429.25292     -0.28933287    -554.37654     -1.4376757e-06 -6.709395e-11  -3.2627021e-07  6.3627598      16.547482      20.757956      2185.5565    
       117   0             -146.75323     -41.804318      429.25297     -0.2893859     -554.37654     -9.5514553e-07  7.5600232e-11  1.9731665e-07  6.3627598      16.547482      20.757956      2185.5565    
       118   0             -146.75323     -41.804318      429.25305     -0.28946824    -554.37654     -1.434214e-07   5.6869626e-11 -1.6396225e-07  6.3627598      16.547482      20.757956      2185.5565    
       119   0             -146.75323     -41.804318      429.25311     -0.28952889    -554.37653      4.7792907e-07  1.8603438e-11  1.1916451e-07  6.3627598      16.547482      20.757956      2185.5565    
       120   0             -146.75323     -41.804318      429.25311     -0.28952973    -554.37653      5.0354986e-07  3.3521541e-12 -6.0927285e-08  6.3627598      16.547482      20.757956      2185.5565    
       121   0             -146.75323     -41.804318      429.25309     -0.28950605    -554.37653      2.7797242e-07 -6.6089321e-12  3.6541745e-08  6.3627598      16.547482      20.757956      2185.5565    
       122   0             -146.75323     -41.804318      429.25306     -0.28948149    -554.37654      3.7365547e-08  1.0398545e-11 -1.1591464e-08  6.3627598      16.547482      20.757956      2185.5565    
       123   0             -146.75323     -41.804318      429.25305     -0.2894703     -554.37654     -7.6622522e-08  2.8918052e-12  5.8386876e-09  6.3627598      16.547482      20.757956      2185.5565    
       124   0             -146.75323     -41.804318      429.25305     -0.28946989    -554.37654     -8.3763086e-08 -8.2595756e-12 -1.5173126e-09  6.3627598      16.547482      20.757956      2185.5565    
       125   0             -146.75323     -41.804318      429.25306     -0.2894751     -554.37654     -3.4654941e-08 -7.2269697e-12  8.1604797e-10  6.3627598      16.547482      20.757956      2185.5565    
       126   0             -146.75323     -41.804318      429.25306     -0.28947985    -554.37654      1.1452375e-08  4.9977108e-13 -6.5399688e-10  6.3627598      16.547482      20.757956      2185.5565    
       127   0             -146.75323     -41.804318      429.25306     -0.28948337    -554.37654      4.6717617e-08  1.6023195e-13  3.2273385e-10  6.3627598      16.547482      20.757956      2185.5565    
       128   0             -146.75323     -41.804318      429.25306     -0.28948272    -554.37654      4.1244981e-08  6.0926292e-12 -9.3443204e-11  6.3627598      16.547482      20.757956      2185.5565    
       129   0             -146.75323     -41.804318      429.25306     -0.28948032    -554.37654      1.8332613e-08  9.3595806e-13 -5.3215447e-11  6.3627598      16.547482      20.757956      2185.5565    
       130   0             -146.75323     -41.804318      429.25306     -0.28947906    -554.37654      5.8812018e-09 -1.2734625e-11  1.0829963e-10  6.3627598      16.547482      20.757956      2185.5565    
       131   0             -146.75323     -41.804318      429.25306     -0.28947837    -554.37654     -1.1271529e-09 -3.4093798e-12 -1.0400389e-10  6.3627598      16.547482      20.757956      2185.5565    
       132   0             -146.75323     -41.804318      429.25306     -0.28947825    -554.37654     -2.4333053e-09  3.5454498e-12  1.2074177e-10  6.3627598      16.547482      20.757956      2185.5565    
       133   0             -146.75323     -41.804318      429.25306     -0.28947834    -554.37654     -1.6573833e-09 -1.5122844e-11 -1.5115786e-10  6.3627598      16.547482      20.757956      2185.5565    
       134   0             -146.75323     -41.804318      429.25306     -0.28947847    -554.37654     -4.9474285e-10  2.5535378e-12  1.2830955e-10  6.3627598      16.547482      20.757956      2185.5565    
       135   0             -146.75323     -41.804318      429.25306     -0.28947854    -554.37654      2.7563711e-10  2.4848669e-12 -7.8907877e-11  6.3627598      16.547482      20.757956      2185.5565    
       136   0             -146.75323     -41.804318      429.25306     -0.28947856    -554.37654      4.9607812e-10  7.0069686e-12  6.033178e-11   6.3627598      16.547482      20.757956      2185.5565    
       137   0             -146.75323     -41.804318      429.25306     -0.28947854    -554.37654      3.9144411e-10  3.204639e-12  -7.5921332e-11  6.3627598      16.547482      20.757956      2185.5565    
       138   0             -146.75323     -41.804318      429.25306     -0.2894785     -554.37654      1.6938806e-12 -1.9138816e-12  9.6471715e-11  6.3627598      16.547482      20.757956      2185.5565    
       139   0             -146.75323     -41.804318      429.25306     -0.28947848    -554.37654     -2.1423775e-10 -3.2364311e-12 -1.2453838e-10  6.3627598      16.547482      20.757956      2185.5565    
       140   0             -146.75323     -41.804318      429.25306     -0.28947848    -554.37654     -2.3851416e-10  1.0542245e-12  1.3689213e-10  6.3627598      16.547482      20.757956      2185.5565    
Loop time of 0.016475 on 1 procs for 40 steps with 96 atoms

94.8% CPU use with 1 MPI tasks x 1 OpenMP threads

Minimization stats:
  Stopping criterion = force tolerance
  Energy initial, next-to-last, final = 
     -146.753228191005  -146.753233119319  -146.753233119318
  Force two-norm initial, final = 0.0038213509 9.7210428e-11
  Force max component initial, final = 0.00044596508 1.6304805e-11
  Final line search alpha, max atom move = 1 1.6304805e-11
  Iterations, force evaluations = 40 80

MPI task timing breakdown:
Section |  min time  |  avg time  |  max time  |%varavg| %total
---------------------------------------------------------------
Pair    | 0.015591   | 0.015591   | 0.015591   |   0.0 | 94.63
Neigh   | 0          | 0          | 0          |   0.0 |  0.00
Comm    | 0.000304   | 0.000304   | 0.000304   |   0.0 |  1.85
Output  | 0.000395   | 0.000395   | 0.000395   |   0.0 |  2.40
Modify  | 0          | 0          | 0          |   0.0 |  0.00
Other   |            | 0.000185   |            |       |  1.12

Nlocal:             96 ave          96 max          96 min
Histogram: 1 0 0 0 0 0 0 0 0 0
Nghost:           1310 ave        1310 max        1310 min
Histogram: 1 0 0 0 0 0 0 0 0 0
Neighs:           6144 ave        6144 max        6144 min
Histogram: 1 0 0 0 0 0 0 0 0 0

Total # of neighbors = 6144
Ave neighs/atom = 64
Neighbor list builds = 0
Dangerous builds = 0
OMP_NUM_THREADS environment is not set. Defaulting to 1 thread. (src/comm.cpp:98)
  using 1 OpenMP thread(s) per MPI task
Loaded 1 plugins from F:\Lammps\LAMMPS 64-bit 2Aug2023\plugins

The 'box' command has been removed and will be ignored

Reading restart file ...
  restart file = 2 Aug 2023, LAMMPS = 2 Aug 2023
  restoring atom style atomic from restart
  triclinic box = (0.025435542 0.066083476 0.10483816) to (6.3945645 16.613566 20.862794) with tilt (0 0 0)
  1 by 1 by 1 MPI processor grid
  pair style eam/alloy stores no restart info
  96 atoms
  read_restart CPU = 0.000 seconds
Changing box ...
  triclinic box = (0.025435542 0.066083476 0.10483816) to (6.4009336 16.613566 20.862794) with tilt (0 0 0)
  triclinic box = (0.025435542 0.066083476 0.10483816) to (6.4009336 16.613566 20.862794) with tilt (0 0 0)
  triclinic box = (0.025435542 0.066083476 0.10483816) to (6.4009336 16.613566 20.862794) with tilt (0 0 0)
Neighbor list info ...
  update: every = 1 steps, delay = 0 steps, check = yes
  max neighbors/atom: 2000, page size: 100000
  master list distance cutoff = 8.5
  ghost atom cutoff = 8.5
  1 neighbor lists, perpetual/occasional/extra = 1 0 0
  (1) pair eam/alloy, perpetual
      attributes: half, newton on
      pair build: half/nsq/newton
      stencil: none
      bin: none
Setting up cg style minimization ...
  Unit style    : metal
  Current step  : 100
Per MPI rank memory allocation (min/avg/max) = 4.467 | 4.467 | 4.467 Mbytes
   Step          Temp          PotEng         Press           Pxx            Pyy            Pzz            Pxy            Pxz            Pyz             Lx             Ly             Lz           Volume    
       100   0             -146.75252     -781.63294     -958.68377     -514.93952     -871.27553      0.01699622     1.462063e-05   0.00060321429  6.375498       16.547482      20.757956      2189.932     
       101   0             -146.75252     -781.95425     -952.43112     -521.82363     -871.60801      0.00051011658  8.5996059e-05 -0.0021181191   6.375498       16.547482      20.757956      2189.932     
       102   0             -146.75252     -781.96998     -952.13397     -522.15495     -871.62103     -0.00016238181  2.8162605e-06  0.00031063865  6.375498       16.547482      20.757956      2189.932     
       103   0             -146.75252     -781.97055     -952.12291     -522.16725     -871.62149     -0.00013740477  8.0826994e-07 -9.9722888e-05  6.375498       16.547482      20.757956      2189.932     
       104   0             -146.75252     -781.97062     -952.12153     -522.16879     -871.62155     -9.0210405e-05  1.5106199e-07  3.8138864e-05  6.375498       16.547482      20.757956      2189.932     
       105   0             -146.75252     -781.97062     -952.12157     -522.16875     -871.62154     -5.4019581e-05  8.4509486e-08 -1.7629471e-05  6.375498       16.547482      20.757956      2189.932     
       106   0             -146.75252     -781.97061     -952.12185     -522.16844     -871.62153     -1.6950232e-05  7.260565e-08   1.9293574e-05  6.375498       16.547482      20.757956      2189.932     
       107   0             -146.75252     -781.97059     -952.12223     -522.16802     -871.62151      2.0765443e-05  5.0888083e-08 -2.6377811e-05  6.375498       16.547482      20.757956      2189.932     
       108   0             -146.75252     -781.97058     -952.12242     -522.1678      -871.6215       3.6007001e-05  2.9166628e-08  1.9683064e-05  6.375498       16.547482      20.757956      2189.932     
       109   0             -146.75252     -781.97058     -952.12237     -522.16786     -871.62151      2.673207e-05   2.0228241e-08 -8.3137435e-06  6.375498       16.547482      20.757956      2189.932     
       110   0             -146.75252     -781.97059     -952.12223     -522.16802     -871.62151      1.1001829e-05  1.3763132e-08  4.2231191e-06  6.375498       16.547482      20.757956      2189.932     
       111   0             -146.75252     -781.9706      -952.12205     -522.16822     -871.62152     -7.8661758e-06  4.1927772e-09 -3.615891e-06   6.375498       16.547482      20.757956      2189.932     
       112   0             -146.75252     -781.9706      -952.12198     -522.16829     -871.62152     -1.362934e-05  -6.960999e-10   3.71676e-06    6.375498       16.547482      20.757956      2189.932     
       113   0             -146.75252     -781.9706      -952.12201     -522.16826     -871.62152     -9.4715934e-06 -1.9923539e-09 -3.3429968e-06  6.375498       16.547482      20.757956      2189.932     
       114   0             -146.75252     -781.97059     -952.12208     -522.16819     -871.62152     -2.1890177e-06 -1.6454735e-09  3.1648456e-06  6.375498       16.547482      20.757956      2189.932     
       115   0             -146.75252     -781.97059     -952.12215     -522.16811     -871.62152      4.7713049e-06 -6.2588212e-10 -2.7581858e-06  6.375498       16.547482      20.757956      2189.932     
       116   0             -146.75252     -781.97059     -952.12218     -522.16807     -871.62151      7.6615631e-06  9.9107246e-11  1.3236583e-06  6.375498       16.547482      20.757956      2189.932     
       117   0             -146.75252     -781.97059     -952.12216     -522.1681      -871.62152      4.410936e-06   2.3022097e-10 -7.2866369e-07  6.375498       16.547482      20.757956      2189.932     
       118   0             -146.75252     -781.97059     -952.12212     -522.16815     -871.62152      2.5488769e-07  1.2942323e-10  6.1206733e-07  6.375498       16.547482      20.757956      2189.932     
       119   0             -146.75252     -781.97059     -952.12209     -522.16818     -871.62152     -2.3366616e-06  3.5313857e-11 -4.7436981e-07  6.375498       16.547482      20.757956      2189.932     
       120   0             -146.75252     -781.97059     -952.12209     -522.16818     -871.62152     -2.2676263e-06  7.3356369e-12  2.1242466e-07  6.375498       16.547482      20.757956      2189.932     
       121   0             -146.75252     -781.97059     -952.1221      -522.16817     -871.62152     -1.1512785e-06 -2.747691e-12  -1.0643076e-07  6.375498       16.547482      20.757956      2189.932     
       122   0             -146.75252     -781.97059     -952.12211     -522.16816     -871.62152     -4.4488975e-08  9.4043372e-13  3.3005835e-08  6.375498       16.547482      20.757956      2189.932     
       123   0             -146.75252     -781.97059     -952.12211     -522.16815     -871.62152      4.4123082e-07 -7.3940174e-12 -1.9819433e-08  6.375498       16.547482      20.757956      2189.932     
       124   0             -146.75252     -781.97059     -952.12211     -522.16815     -871.62152      4.1045165e-07  6.3469758e-12  8.1800588e-09  6.375498       16.547482      20.757956      2189.932     
       125   0             -146.75252     -781.97059     -952.12211     -522.16815     -871.62152      1.3312031e-07  1.3153381e-11 -7.4015656e-09  6.375498       16.547482      20.757956      2189.932     
       126   0             -146.75252     -781.97059     -952.12211     -522.16815     -871.62152     -1.1807461e-07 -1.5140856e-12  7.8666069e-09  6.375498       16.547482      20.757956      2189.932     
       127   0             -146.75252     -781.97059     -952.12211     -522.16816     -871.62152     -2.8983606e-07  3.6081688e-12 -4.1577514e-09  6.375498       16.547482      20.757956      2189.932     
       128   0             -146.75252     -781.97059     -952.12211     -522.16816     -871.62152     -2.2409453e-07  7.7176484e-12  1.6653679e-09  6.375498       16.547482      20.757956      2189.932     
       129   0             -146.75252     -781.97059     -952.12211     -522.16815     -871.62152     -9.2832535e-08 -4.9877254e-13 -5.6947323e-10  6.375498       16.547482      20.757956      2189.932     
       130   0             -146.75252     -781.97059     -952.12211     -522.16815     -871.62152     -2.3982616e-08  7.6364234e-12  3.0670513e-10  6.375498       16.547482      20.757956      2189.932     
       131   0             -146.75252     -781.97059     -952.12211     -522.16815     -871.62152      1.4709929e-08  4.8481199e-13 -2.5955019e-10  6.375498       16.547482      20.757956      2189.932     
       132   0             -146.75252     -781.97059     -952.12211     -522.16815     -871.62152      1.9483759e-08  1.0150592e-11  2.8021118e-10  6.375498       16.547482      20.757956      2189.932     
       133   0             -146.75252     -781.97059     -952.12211     -522.16815     -871.62152      9.8968351e-09 -2.2349579e-12 -3.6057828e-10  6.375498       16.547482      20.757956      2189.932     
       134   0             -146.75252     -781.97059     -952.12211     -522.16815     -871.62152     -1.0343146e-09  7.13892e-12    5.7919549e-10  6.375498       16.547482      20.757956      2189.932     
       135   0             -146.75252     -781.97059     -952.12211     -522.16815     -871.62152     -6.4485274e-09 -5.3126256e-12 -6.9413591e-10  6.375498       16.547482      20.757956      2189.932     
       136   0             -146.75252     -781.97059     -952.12211     -522.16815     -871.62152     -6.4991027e-09 -5.900238e-12   1.0835675e-09  6.375498       16.547482      20.757956      2189.932     
       137   0             -146.75252     -781.97059     -952.12211     -522.16815     -871.62152     -2.8706175e-09 -4.0193706e-12 -6.7703994e-10  6.375498       16.547482      20.757956      2189.932     
       138   0             -146.75252     -781.97059     -952.12211     -522.16815     -871.62152      1.5921479e-09  1.4709348e-12  5.1803938e-10  6.375498       16.547482      20.757956      2189.932     
       139   0             -146.75252     -781.97059     -952.12211     -522.16815     -871.62152      2.6956308e-09 -1.2437585e-12 -5.0542284e-10  6.375498       16.547482      20.757956      2189.932     
       140   0             -146.75252     -781.97059     -952.12211     -522.16815     -871.62152      1.8496745e-09 -3.0649763e-12  3.9757375e-10  6.375498       16.547482      20.757956      2189.932     
Loop time of 0.016048 on 1 procs for 40 steps with 96 atoms

97.4% CPU use with 1 MPI tasks x 1 OpenMP threads

Minimization stats:
  Stopping criterion = force tolerance
  Energy initial, next-to-last, final = 
     -146.752516974872  -146.752521571439  -146.752521571439
  Force two-norm initial, final = 0.0037010736 7.3130501e-11
  Force max component initial, final = 0.00043444226 1.3389165e-11
  Final line search alpha, max atom move = 1 1.3389165e-11
  Iterations, force evaluations = 40 80

MPI task timing breakdown:
Section |  min time  |  avg time  |  max time  |%varavg| %total
---------------------------------------------------------------
Pair    | 0.015146   | 0.015146   | 0.015146   |   0.0 | 94.38
Neigh   | 0          | 0          | 0          |   0.0 |  0.00
Comm    | 0.000319   | 0.000319   | 0.000319   |   0.0 |  1.99
Output  | 0.000392   | 0.000392   | 0.000392   |   0.0 |  2.44
Modify  | 0          | 0          | 0          |   0.0 |  0.00
Other   |            | 0.000191   |            |       |  1.19

Nlocal:             96 ave          96 max          96 min
Histogram: 1 0 0 0 0 0 0 0 0 0
Nghost:           1310 ave        1310 max        1310 min
Histogram: 1 0 0 0 0 0 0 0 0 0
Neighs:           6144 ave        6144 max        6144 min
Histogram: 1 0 0 0 0 0 0 0 0 0

Total # of neighbors = 6144
Ave neighs/atom = 64
Neighbor list builds = 0
Dangerous builds = 0
OMP_NUM_THREADS environment is not set. Defaulting to 1 thread. (src/comm.cpp:98)
  using 1 OpenMP thread(s) per MPI task
Loaded 1 plugins from F:\Lammps\LAMMPS 64-bit 2Aug2023\plugins

The 'box' command has been removed and will be ignored

Reading restart file ...
  restart file = 2 Aug 2023, LAMMPS = 2 Aug 2023
  restoring atom style atomic from restart
  triclinic box = (0.025435542 0.066083476 0.10483816) to (6.3945645 16.613566 20.862794) with tilt (0 0 0)
  1 by 1 by 1 MPI processor grid
  pair style eam/alloy stores no restart info
  96 atoms
  read_restart CPU = 0.000 seconds
Changing box ...
  triclinic box = (0.025435542 0.066083476 0.10483816) to (6.3945645 16.597018 20.862794) with tilt (0 0 0)
  triclinic box = (0.025435542 0.066083476 0.10483816) to (6.3945645 16.597018 20.862794) with tilt (0 0 0)
Neighbor list info ...
  update: every = 1 steps, delay = 0 steps, check = yes
  max neighbors/atom: 2000, page size: 100000
  master list distance cutoff = 8.5
  ghost atom cutoff = 8.5
  1 neighbor lists, perpetual/occasional/extra = 1 0 0
  (1) pair eam/alloy, perpetual
      attributes: half, newton on
      pair build: half/nsq/newton
      stencil: none
      bin: none
Setting up cg style minimization ...
  Unit style    : metal
  Current step  : 100
Per MPI rank memory allocation (min/avg/max) = 4.467 | 4.467 | 4.467 Mbytes
   Step          Temp          PotEng         Press           Pxx            Pyy            Pzz            Pxy            Pxz            Pyz             Lx             Ly             Lz           Volume    
       100   0             -146.75323     -41.365343     -5.1840773      434.73927     -553.65123      0.018056645    1.6946068e-05  0.00031633449  6.3691289      16.530935      20.757956      2185.5565    
       101   0             -146.75323     -41.539158      1.8119949      427.43532     -553.86479      0.0004811519   2.4581218e-05 -0.0013804887   6.3691289      16.530935      20.757956      2185.5565    
       102   0             -146.75323     -41.549127      2.1297761      427.09583     -553.87298     -0.0002233183   3.3919764e-06  0.00020769829  6.3691289      16.530935      20.757956      2185.5565    
       103   0             -146.75323     -41.549338      2.1374852      427.08764     -553.87314     -0.00017823754  1.0054874e-06 -6.6547789e-05  6.3691289      16.530935      20.757956      2185.5565    
       104   0             -146.75323     -41.549269      2.1357425      427.08953     -553.87308     -0.00011668566  2.4446885e-07  2.5292603e-05  6.3691289      16.530935      20.757956      2185.5565    
       105   0             -146.75323     -41.549187      2.133449       427.092       -553.87301     -6.9869445e-05  1.2869073e-07 -1.1419361e-05  6.3691289      16.530935      20.757956      2185.5565    
       106   0             -146.75323     -41.549097      2.1309164      427.09473     -553.87293     -2.3358097e-05  1.1263089e-07  1.1802122e-05  6.3691289      16.530935      20.757956      2185.5565    
       107   0             -146.75323     -41.54901       2.1284602      427.09737     -553.87286      1.9825162e-05  8.1606714e-08 -1.4339293e-05  6.3691289      16.530935      20.757956      2185.5565    
       108   0             -146.75323     -41.548968      2.1272799      427.09864     -553.87283      3.9036094e-05  4.6659811e-08  1.1073012e-05  6.3691289      16.530935      20.757956      2185.5565    
       109   0             -146.75323     -41.548982      2.1276943      427.0982      -553.87284      3.0240543e-05  2.9250799e-08 -5.3408459e-06  6.3691289      16.530935      20.757956      2185.5565    
       110   0             -146.75323     -41.549017      2.128687       427.09713     -553.87287      1.2182805e-05  1.8956037e-08  2.5544292e-06  6.3691289      16.530935      20.757956      2185.5565    
       111   0             -146.75323     -41.549053      2.129699       427.09604     -553.8729      -5.3826e-06     7.5763643e-09 -1.7144245e-06  6.3691289      16.530935      20.757956      2185.5565    
       112   0             -146.75323     -41.549064      2.1300121      427.0957      -553.87291     -1.0207382e-05  1.5309057e-09  1.7113335e-06  6.3691289      16.530935      20.757956      2185.5565    
       113   0             -146.75323     -41.54906       2.1299053      427.09582     -553.8729      -7.5143692e-06 -1.8794114e-09 -1.6730932e-06  6.3691289      16.530935      20.757956      2185.5565    
       114   0             -146.75323     -41.549049      2.1295905      427.09616     -553.87289     -1.7041413e-06 -2.2063495e-09  1.5597131e-06  6.3691289      16.530935      20.757956      2185.5565    
       115   0             -146.75323     -41.54904       2.12933        427.09644     -553.87289      2.6247134e-06 -1.2523119e-09 -1.328215e-06   6.3691289      16.530935      20.757956      2185.5565    
       116   0             -146.75323     -41.549036      2.129215       427.09656     -553.87288      4.1373418e-06 -3.1662469e-10  8.8554645e-07  6.3691289      16.530935      20.757956      2185.5565    
       117   0             -146.75323     -41.549038      2.1292825      427.09649     -553.87289      2.3209166e-06  2.1973523e-10 -8.7760757e-07  6.3691289      16.530935      20.757956      2185.5565    
       118   0             -146.75323     -41.549043      2.12941        427.09635     -553.87289      2.7797972e-08  1.9760796e-10  8.8397279e-07  6.3691289      16.530935      20.757956      2185.5565    
       119   0             -146.75323     -41.549046      2.1294945      427.09626     -553.87289     -1.1657571e-06  8.6465484e-11 -7.1639128e-07  6.3691289      16.530935      20.757956      2185.5565    
       120   0             -146.75323     -41.549046      2.1295045      427.09625     -553.87289     -1.0901872e-06  3.5791494e-11  4.080495e-07   6.3691289      16.530935      20.757956      2185.5565    
       121   0             -146.75323     -41.549045      2.1294802      427.09627     -553.87289     -4.8203507e-07  1.056132e-11  -2.5686777e-07  6.3691289      16.530935      20.757956      2185.5565    
       122   0             -146.75323     -41.549044      2.1294537      427.0963      -553.87289      3.8239154e-08 -7.173559e-12   9.0218845e-08  6.3691289      16.530935      20.757956      2185.5565    
       123   0             -146.75323     -41.549044      2.1294423      427.09632     -553.87289      1.8293796e-07 -5.945114e-12  -6.7820863e-08  6.3691289      16.530935      20.757956      2185.5565    
       124   0             -146.75323     -41.549044      2.1294409      427.09632     -553.87289      1.5517401e-07  1.6175797e-12  3.5733755e-08  6.3691289      16.530935      20.757956      2185.5565    
       125   0             -146.75323     -41.549044      2.1294449      427.09631     -553.87289      3.276851e-08  -1.7790833e-12 -3.9560999e-08  6.3691289      16.530935      20.757956      2185.5565    
       126   0             -146.75323     -41.549044      2.1294485      427.09631     -553.87289     -4.8123293e-08 -1.7841701e-12  3.1347593e-08  6.3691289      16.530935      20.757956      2185.5565    
       127   0             -146.75323     -41.549044      2.1294511      427.09631     -553.87289     -8.4618908e-08  1.0079353e-11 -1.7445776e-08  6.3691289      16.530935      20.757956      2185.5565    
       128   0             -146.75323     -41.549044      2.1294508      427.09631     -553.87289     -5.8181908e-08 -7.5715955e-12  9.7807509e-09  6.3691289      16.530935      20.757956      2185.5565    
       129   0             -146.75323     -41.549044      2.1294491      427.09631     -553.87289     -9.5662213e-09  5.7327431e-12 -4.2220432e-09  6.3691289      16.530935      20.757956      2185.5565    
       130   0             -146.75323     -41.549044      2.1294483      427.09631     -553.87289      4.607073e-09  -8.3829287e-12  1.8812897e-09  6.3691289      16.530935      20.757956      2185.5565    
       131   0             -146.75323     -41.549044      2.129448       427.09631     -553.87289      6.541622e-09   7.4126352e-12 -9.7503876e-10  6.3691289      16.530935      20.757956      2185.5565    
       132   0             -146.75323     -41.549044      2.1294479      427.09631     -553.87289      4.4333281e-09 -8.6309067e-12  5.2225633e-10  6.3691289      16.530935      20.757956      2185.5565    
       133   0             -146.75323     -41.549044      2.1294479      427.09631     -553.87289      6.0806245e-10  2.4912253e-12 -3.3557085e-10  6.3691289      16.530935      20.757956      2185.5565    
       134   0             -146.75323     -41.549044      2.129448       427.09631     -553.87289     -3.0580878e-09 -6.709395e-12   1.8851162e-10  6.3691289      16.530935      20.757956      2185.5565    
       135   0             -146.75323     -41.549044      2.1294481      427.09631     -553.87289     -3.5133399e-09 -6.8632686e-12 -1.2145963e-10  6.3691289      16.530935      20.757956      2185.5565    
       136   0             -146.75323     -41.549044      2.1294481      427.09631     -553.87289     -1.0798591e-09  3.1601301e-12  1.6885332e-10  6.3691289      16.530935      20.757956      2185.5565    
       137   0             -146.75323     -41.549044      2.129448       427.09631     -553.87289      2.3667887e-09 -2.2915712e-12 -1.8818035e-10  6.3691289      16.530935      20.757956      2185.5565    
       138   0             -146.75323     -41.549044      2.129448       427.09631     -553.87289      2.8352077e-09 -1.0905946e-11  2.5429574e-10  6.3691289      16.530935      20.757956      2185.5565    
       139   0             -146.75323     -41.549044      2.129448       427.09631     -553.87289      1.904166e-09   2.7455618e-12 -1.2690243e-10  6.3691289      16.530935      20.757956      2185.5565    
       140   0             -146.75323     -41.549044      2.129448       427.09631     -553.87289      4.7196703e-10 -1.0025942e-11  9.099458e-11   6.3691289      16.530935      20.757956      2185.5565    
Loop time of 0.015123 on 1 procs for 40 steps with 96 atoms

103.3% CPU use with 1 MPI tasks x 1 OpenMP threads

Minimization stats:
  Stopping criterion = force tolerance
  Energy initial, next-to-last, final = 
     -146.753229116884  -146.753234159632  -146.753234159633
  Force two-norm initial, final = 0.0038544335 8.9416526e-11
  Force max component initial, final = 0.00045074248 1.8500861e-11
  Final line search alpha, max atom move = 1 1.8500861e-11
  Iterations, force evaluations = 40 80

MPI task timing breakdown:
Section |  min time  |  avg time  |  max time  |%varavg| %total
---------------------------------------------------------------
Pair    | 0.014272   | 0.014272   | 0.014272   |   0.0 | 94.37
Neigh   | 0          | 0          | 0          |   0.0 |  0.00
Comm    | 0.000303   | 0.000303   | 0.000303   |   0.0 |  2.00
Output  | 0.000366   | 0.000366   | 0.000366   |   0.0 |  2.42
Modify  | 0          | 0          | 0          |   0.0 |  0.00
Other   |            | 0.000182   |            |       |  1.20

Nlocal:             96 ave          96 max          96 min
Histogram: 1 0 0 0 0 0 0 0 0 0
Nghost:           1310 ave        1310 max        1310 min
Histogram: 1 0 0 0 0 0 0 0 0 0
Neighs:           6144 ave        6144 max        6144 min
Histogram: 1 0 0 0 0 0 0 0 0 0

Total # of neighbors = 6144
Ave neighs/atom = 64
Neighbor list builds = 0
Dangerous builds = 0
OMP_NUM_THREADS environment is not set. Defaulting to 1 thread. (src/comm.cpp:98)
  using 1 OpenMP thread(s) per MPI task
Loaded 1 plugins from F:\Lammps\LAMMPS 64-bit 2Aug2023\plugins

The 'box' command has been removed and will be ignored

Reading restart file ...
  restart file = 2 Aug 2023, LAMMPS = 2 Aug 2023
  restoring atom style atomic from restart
  triclinic box = (0.025435542 0.066083476 0.10483816) to (6.3945645 16.613566 20.862794) with tilt (0 0 0)
  1 by 1 by 1 MPI processor grid
  pair style eam/alloy stores no restart info
  96 atoms
  read_restart CPU = 0.000 seconds
Changing box ...
  triclinic box = (0.025435542 0.066083476 0.10483816) to (6.3945645 16.630113 20.862794) with tilt (0 0 0)
  triclinic box = (0.025435542 0.066083476 0.10483816) to (6.3945645 16.630113 20.862794) with tilt (0 0 0)
Neighbor list info ...
  update: every = 1 steps, delay = 0 steps, check = yes
  max neighbors/atom: 2000, page size: 100000
  master list distance cutoff = 8.5
  ghost atom cutoff = 8.5
  1 neighbor lists, perpetual/occasional/extra = 1 0 0
  (1) pair eam/alloy, perpetual
      attributes: half, newton on
      pair build: half/nsq/newton
      stencil: none
      bin: none
Setting up cg style minimization ...
  Unit style    : metal
  Current step  : 100
Per MPI rank memory allocation (min/avg/max) = 4.467 | 4.467 | 4.467 Mbytes
   Step          Temp          PotEng         Press           Pxx            Pyy            Pzz            Pxy            Pxz            Pyz             Lx             Ly             Lz           Volume    
       100   0             -146.75252     -781.55474     -512.47886     -960.46697     -871.71839      0.017384672   -1.114815e-06  -0.00049515409  6.3691289      16.56403       20.757956      2189.932     
       101   0             -146.75252     -781.74492     -518.84108     -954.43281     -871.96086      0.00073740139 -3.7107085e-05  0.001455112    6.3691289      16.56403       20.757956      2189.932     
       102   0             -146.75252     -781.75528     -519.14631     -954.14778     -871.97177      2.6566357e-06 -3.736517e-07  -0.00022836844  6.3691289      16.56403       20.757956      2189.932     
       103   0             -146.75252     -781.7556      -519.15513     -954.13955     -871.9721      -1.8360862e-05  9.805136e-08   7.2656798e-05  6.3691289      16.56403       20.757956      2189.932     
       104   0             -146.75252     -781.75558     -519.15464     -954.14002     -871.97209     -1.4379422e-05  5.6163078e-08 -2.8489629e-05  6.3691289      16.56403       20.757956      2189.932     
       105   0             -146.75252     -781.75554     -519.15329     -954.14128     -871.97205     -8.9810094e-06 -1.7842082e-08  1.3825285e-05  6.3691289      16.56403       20.757956      2189.932     
       106   0             -146.75252     -781.75549     -519.15166     -954.14281     -871.97199     -2.8302234e-06 -1.9456383e-08 -1.5890467e-05  6.3691289      16.56403       20.757956      2189.932     
       107   0             -146.75252     -781.75543     -519.14999     -954.14437     -871.97194      3.4166913e-06  1.0708125e-08  2.2565972e-05  6.3691289      16.56403       20.757956      2189.932     
       108   0             -146.75252     -781.75541     -519.14937     -954.14494     -871.97192      5.717964e-06   8.7095712e-09 -1.8962806e-05  6.3691289      16.56403       20.757956      2189.932     
       109   0             -146.75252     -781.75543     -519.14977     -954.14457     -871.97193      4.2183637e-06  1.204579e-08   9.0477145e-06  6.3691289      16.56403       20.757956      2189.932     
       110   0             -146.75252     -781.75545     -519.15046     -954.14392     -871.97196      1.6407136e-06  7.4277461e-09 -4.5467616e-06  6.3691289      16.56403       20.757956      2189.932     
       111   0             -146.75252     -781.75547     -519.1512      -954.14323     -871.97198     -1.1519124e-06  1.3041557e-09  3.265438e-06   6.3691289      16.56403       20.757956      2189.932     
       112   0             -146.75252     -781.75548     -519.15138     -954.14306     -871.97199     -1.8582053e-06 -1.3927823e-09 -3.1771577e-06  6.3691289      16.56403       20.757956      2189.932     
       113   0             -146.75252     -781.75547     -519.15122     -954.14321     -871.97198     -1.2648213e-06 -1.8328266e-09  2.6855214e-06  6.3691289      16.56403       20.757956      2189.932     
       114   0             -146.75252     -781.75546     -519.15095     -954.14347     -871.97197     -2.5335191e-07 -1.2200522e-09 -2.1585576e-06  6.3691289      16.56403       20.757956      2189.932     
       115   0             -146.75252     -781.75546     -519.15074     -954.14366     -871.97197      5.5557549e-07 -3.6891781e-10  1.6636458e-06  6.3691289      16.56403       20.757956      2189.932     
       116   0             -146.75252     -781.75545     -519.15066     -954.14373     -871.97196      8.5356158e-07  5.4085727e-11 -8.3140862e-07  6.3691289      16.56403       20.757956      2189.932     
       117   0             -146.75252     -781.75546     -519.15078     -954.14363     -871.97197      4.5391117e-07  1.2938007e-10  5.10655e-07    6.3691289      16.56403       20.757956      2189.932     
       118   0             -146.75252     -781.75546     -519.1509      -954.14351     -871.97197     -6.2898873e-09  7.857127e-11  -4.1225075e-07  6.3691289      16.56403       20.757956      2189.932     
       119   0             -146.75252     -781.75546     -519.15096     -954.14346     -871.97197     -2.5035827e-07  2.2971458e-11  2.7787342e-07  6.3691289      16.56403       20.757956      2189.932     
       120   0             -146.75252     -781.75546     -519.15095     -954.14346     -871.97197     -2.3375622e-07  1.0814353e-11 -1.3209867e-07  6.3691289      16.56403       20.757956      2189.932     
       121   0             -146.75252     -781.75546     -519.15092     -954.1435      -871.97197     -1.0500756e-07 -5.074027e-12   7.2407912e-08  6.3691289      16.56403       20.757956      2189.932     
       122   0             -146.75252     -781.75546     -519.15089     -954.14352     -871.97197      2.0369871e-09 -5.0042242e-12 -2.042484e-08   6.3691289      16.56403       20.757956      2189.932     
       123   0             -146.75252     -781.75546     -519.15088     -954.14353     -871.97197      3.5897624e-08 -3.7338138e-12  1.1722593e-08  6.3691289      16.56403       20.757956      2189.932     
       124   0             -146.75252     -781.75546     -519.15088     -954.14353     -871.97197      3.1596355e-08 -8.1846924e-12 -5.6624067e-09  6.3691289      16.56403       20.757956      2189.932     
       125   0             -146.75252     -781.75546     -519.15089     -954.14352     -871.97197      8.1719198e-09 -5.0778344e-12  5.9347669e-09  6.3691289      16.56403       20.757956      2189.932     
       126   0             -146.75252     -781.75546     -519.15089     -954.14352     -871.97197     -7.5081665e-09  5.4738065e-12 -7.2517733e-09  6.3691289      16.56403       20.757956      2189.932     
       127   0             -146.75252     -781.75546     -519.15089     -954.14352     -871.97197     -1.5515603e-08  2.0940832e-12  6.1596778e-09  6.3691289      16.56403       20.757956      2189.932     
       128   0             -146.75252     -781.75546     -519.15089     -954.14352     -871.97197     -1.1509353e-08  1.306581e-11  -5.1632578e-09  6.3691289      16.56403       20.757956      2189.932     
       129   0             -146.75252     -781.75546     -519.15089     -954.14352     -871.97197     -3.8626494e-09 -7.1452657e-12  2.5802348e-09  6.3691289      16.56403       20.757956      2189.932     
       130   0             -146.75252     -781.75546     -519.15089     -954.14352     -871.97197     -8.3560519e-10 -4.0472917e-12 -1.7131955e-09  6.3691289      16.56403       20.757956      2189.932     
       131   0             -146.75252     -781.75546     -519.15089     -954.14352     -871.97197      4.5532222e-10  9.2901145e-13  1.431158e-09   6.3691289      16.56403       20.757956      2189.932     
       132   0             -146.75252     -781.75546     -519.15089     -954.14352     -871.97197      6.1199772e-10 -5.6552937e-12 -1.5194833e-09  6.3691289      16.56403       20.757956      2189.932     
       133   0             -146.75252     -781.75546     -519.15089     -954.14352     -871.97197      3.5396352e-10  1.9062503e-12  1.6699273e-09  6.3691289      16.56403       20.757956      2189.932     
       134   0             -146.75252     -781.75546     -519.15089     -954.14352     -871.97197      7.45519e-11   -6.4535836e-12 -1.0543931e-09  6.3691289      16.56403       20.757956      2189.932     
       135   0             -146.75252     -781.75546     -519.15089     -954.14352     -871.97197     -5.2060177e-11 -1.1511112e-12  5.0750804e-10  6.3691289      16.56403       20.757956      2189.932     
       136   0             -146.75252     -781.75546     -519.15089     -954.14352     -871.97197     -9.2682853e-11  1.9671691e-12 -4.9869639e-10  6.3691289      16.56403       20.757956      2189.932     
       137   0             -146.75252     -781.75546     -519.15089     -954.14352     -871.97197     -6.8231576e-11 -1.5686587e-12  4.7843646e-10  6.3691289      16.56403       20.757956      2189.932     
       138   0             -146.75252     -781.75546     -519.15089     -954.14352     -871.97197     -6.0106533e-12  1.5331227e-12 -6.0894797e-10  6.3691289      16.56403       20.757956      2189.932     
       139   0             -146.75252     -781.75546     -519.15089     -954.14352     -871.97197      3.5292282e-11 -3.6335516e-12  4.4490257e-10  6.3691289      16.56403       20.757956      2189.932     
       140   0             -146.75252     -781.75546     -519.15089     -954.14352     -871.97197      4.7925315e-11 -5.3151639e-12 -2.1211159e-10  6.3691289      16.56403       20.757956      2189.932     
Loop time of 0.01546 on 1 procs for 40 steps with 96 atoms

101.1% CPU use with 1 MPI tasks x 1 OpenMP threads

Minimization stats:
  Stopping criterion = force tolerance
  Energy initial, next-to-last, final = 
     -146.752516237238   -146.75252070874  -146.752520708739
  Force two-norm initial, final = 0.0036768641 8.4787974e-11
  Force max component initial, final = 0.000430591 1.4631699e-11
  Final line search alpha, max atom move = 1 1.4631699e-11
  Iterations, force evaluations = 40 80

MPI task timing breakdown:
Section |  min time  |  avg time  |  max time  |%varavg| %total
---------------------------------------------------------------
Pair    | 0.014545   | 0.014545   | 0.014545   |   0.0 | 94.08
Neigh   | 0          | 0          | 0          |   0.0 |  0.00
Comm    | 0.000318   | 0.000318   | 0.000318   |   0.0 |  2.06
Output  | 0.000418   | 0.000418   | 0.000418   |   0.0 |  2.70
Modify  | 0          | 0          | 0          |   0.0 |  0.00
Other   |            | 0.000179   |            |       |  1.16

Nlocal:             96 ave          96 max          96 min
Histogram: 1 0 0 0 0 0 0 0 0 0
Nghost:           1310 ave        1310 max        1310 min
Histogram: 1 0 0 0 0 0 0 0 0 0
Neighs:           6144 ave        6144 max        6144 min
Histogram: 1 0 0 0 0 0 0 0 0 0

Total # of neighbors = 6144
Ave neighs/atom = 64
Neighbor list builds = 0
Dangerous builds = 0
OMP_NUM_THREADS environment is not set. Defaulting to 1 thread. (src/comm.cpp:98)
  using 1 OpenMP thread(s) per MPI task
Loaded 1 plugins from F:\Lammps\LAMMPS 64-bit 2Aug2023\plugins

The 'box' command has been removed and will be ignored

Reading restart file ...
  restart file = 2 Aug 2023, LAMMPS = 2 Aug 2023
  restoring atom style atomic from restart
  triclinic box = (0.025435542 0.066083476 0.10483816) to (6.3945645 16.613566 20.862794) with tilt (0 0 0)
  1 by 1 by 1 MPI processor grid
  pair style eam/alloy stores no restart info
  96 atoms
  read_restart CPU = 0.000 seconds
Changing box ...
  triclinic box = (0.025435542 0.066083476 0.10483816) to (6.3945645 16.613566 20.842036) with tilt (0 0 0)
Neighbor list info ...
  update: every = 1 steps, delay = 0 steps, check = yes
  max neighbors/atom: 2000, page size: 100000
  master list distance cutoff = 8.5
  ghost atom cutoff = 8.5
  1 neighbor lists, perpetual/occasional/extra = 1 0 0
  (1) pair eam/alloy, perpetual
      attributes: half, newton on
      pair build: half/nsq/newton
      stencil: none
      bin: none
Setting up cg style minimization ...
  Unit style    : metal
  Current step  : 100
Per MPI rank memory allocation (min/avg/max) = 4.467 | 4.467 | 4.467 Mbytes
   Step          Temp          PotEng         Press           Pxx            Pyy            Pzz            Pxy            Pxz            Pyz             Lx             Ly             Lz           Volume    
       100   0             -146.75385     -72.900834     -100.10409     -100.11049     -18.487917      0.018126033   -5.7995387e-06  6.3200825e-06  6.3691289      16.547482      20.737198      2185.5565    
       101   0             -146.75385     -72.90087      -100.10484     -100.10968     -18.488091      0.013827298   -6.603059e-07   9.6527559e-07  6.3691289      16.547482      20.737198      2185.5565    
       102   0             -146.75385     -72.900878     -100.10583     -100.10868     -18.488125      0.0081679611   1.8994217e-07  2.6746038e-07  6.3691289      16.547482      20.737198      2185.5565    
       103   0             -146.75385     -72.900878     -100.10648     -100.10802     -18.48813       0.0044203412   1.1497641e-07  1.0552209e-07  6.3691289      16.547482      20.737198      2185.5565    
       104   0             -146.75385     -72.900877     -100.10697     -100.10753     -18.488131      0.0016120213   1.0112212e-07  6.103363e-08   6.3691289      16.547482      20.737198      2185.5565    
       105   0             -146.75385     -72.900877     -100.10729     -100.10721     -18.488132     -0.00021689335  7.350062e-08   1.283563e-08   6.3691289      16.547482      20.737198      2185.5565    
       106   0             -146.75385     -72.900876     -100.10741     -100.10708     -18.488132     -0.00095357978  4.4959196e-08 -9.0911775e-09  6.3691289      16.547482      20.737198      2185.5565    
       107   0             -146.75385     -72.900876     -100.10739     -100.1071      -18.488132     -0.00082455241  1.7239245e-08 -1.5511667e-08  6.3691289      16.547482      20.737198      2185.5565    
       108   0             -146.75385     -72.900876     -100.10731     -100.10719     -18.488132     -0.00035642969  3.9277327e-09 -1.1027008e-08  6.3691289      16.547482      20.737198      2185.5565    
       109   0             -146.75385     -72.900876     -100.10724     -100.10726     -18.488132      7.276753e-05  -8.7448622e-10 -4.9611595e-09  6.3691289      16.547482      20.737198      2185.5565    
       110   0             -146.75385     -72.900876     -100.10721     -100.10729     -18.488132      0.00022249255 -2.0786955e-09 -1.3876036e-09  6.3691289      16.547482      20.737198      2185.5565    
       111   0             -146.75385     -72.900876     -100.10722     -100.10728     -18.488132      0.00017056931 -8.1333993e-10  1.0408896e-09  6.3691289      16.547482      20.737198      2185.5565    
       112   0             -146.75385     -72.900876     -100.10724     -100.10726     -18.488132      5.3012316e-05 -8.2870439e-11  1.1587472e-09  6.3691289      16.547482      20.737198      2185.5565    
       113   0             -146.75385     -72.900876     -100.10726     -100.10724     -18.488132     -6.2758136e-05  3.3986596e-10  6.8889057e-10  6.3691289      16.547482      20.737198      2185.5565    
       114   0             -146.75385     -72.900876     -100.10726     -100.10723     -18.488132     -9.6032839e-05  5.3255124e-10  2.9274505e-10  6.3691289      16.547482      20.737198      2185.5565    
       115   0             -146.75385     -72.900876     -100.10726     -100.10724     -18.488132     -6.2634241e-05  3.5385827e-10  2.4600055e-11  6.3691289      16.547482      20.737198      2185.5565    
       116   0             -146.75385     -72.900876     -100.10725     -100.10725     -18.488132      4.995967e-06   1.0644997e-10 -1.0433834e-10  6.3691289      16.547482      20.737198      2185.5565    
       117   0             -146.75385     -72.900876     -100.10724     -100.10726     -18.488132      6.7975613e-05 -6.6508976e-13 -8.7160459e-11  6.3691289      16.547482      20.737198      2185.5565    
       118   0             -146.75385     -72.900876     -100.10724     -100.10726     -18.488132      6.0050355e-05 -1.57625e-11   -5.0419018e-11  6.3691289      16.547482      20.737198      2185.5565    
       119   0             -146.75385     -72.900876     -100.10724     -100.10725     -18.488132      2.462991e-05  -1.5234752e-12  6.4219949e-12  6.3691289      16.547482      20.737198      2185.5565    
       120   0             -146.75385     -72.900876     -100.10725     -100.10725     -18.488132     -1.0232871e-06  8.8674396e-12  1.0174729e-11  6.3691289      16.547482      20.737198      2185.5565    
       121   0             -146.75385     -72.900876     -100.10725     -100.10725     -18.488132     -1.1237446e-05  4.8578258e-12 -2.1834147e-11  6.3691289      16.547482      20.737198      2185.5565    
       122   0             -146.75385     -72.900876     -100.10725     -100.10725     -18.488132     -1.070687e-05   4.3478813e-12 -2.2999008e-11  6.3691289      16.547482      20.737198      2185.5565    
       123   0             -146.75385     -72.900876     -100.10725     -100.10725     -18.488132     -4.6580999e-06 -6.3406072e-12 -4.3427945e-13  6.3691289      16.547482      20.737198      2185.5565    
       124   0             -146.75385     -72.900876     -100.10725     -100.10725     -18.488132     -8.4103302e-07 -1.1365023e-11  3.2588127e-11  6.3691289      16.547482      20.737198      2185.5565    
       125   0             -146.75385     -72.900876     -100.10725     -100.10725     -18.488132      1.5420663e-06  1.9494887e-12  7.9804413e-12  6.3691289      16.547482      20.737198      2185.5565    
       126   0             -146.75385     -72.900876     -100.10725     -100.10725     -18.488132      2.0264468e-06 -8.8839715e-12  1.2430057e-11  6.3691289      16.547482      20.737198      2185.5565    
       127   0             -146.75385     -72.900876     -100.10725     -100.10725     -18.488132      1.2633786e-06 -5.3601403e-12  2.3562999e-11  6.3691289      16.547482      20.737198      2185.5565    
       128   0             -146.75385     -72.900876     -100.10725     -100.10725     -18.488132      3.7661711e-07  1.0205249e-11  7.3210741e-12  6.3691289      16.547482      20.737198      2185.5565    
       129   0             -146.75385     -72.900876     -100.10725     -100.10725     -18.488132     -1.8110346e-07 -3.8150464e-15  1.8105575e-11  6.3691289      16.547482      20.737198      2185.5565    
       130   0             -146.75385     -72.900876     -100.10725     -100.10725     -18.488132     -2.3829493e-07 -1.2983875e-12  9.9852482e-12  6.3691289      16.547482      20.737198      2185.5565    
       131   0             -146.75385     -72.900876     -100.10725     -100.10725     -18.488132     -1.3586564e-07 -7.093443e-12  -2.9248689e-14  6.3691289      16.547482      20.737198      2185.5565    
       132   0             -146.75385     -72.900876     -100.10725     -100.10725     -18.488132     -4.4388574e-08  3.8277633e-12  9.8644384e-12  6.3691289      16.547482      20.737198      2185.5565    
       133   0             -146.75385     -72.900876     -100.10725     -100.10725     -18.488132      1.31584e-08    3.6980517e-12 -1.2486647e-11  6.3691289      16.547482      20.737198      2185.5565    
       134   0             -146.75385     -72.900876     -100.10725     -100.10725     -18.488132      2.7539205e-08  1.7396612e-12  1.6353832e-12  6.3691289      16.547482      20.737198      2185.5565    
       135   0             -146.75385     -72.900876     -100.10725     -100.10725     -18.488132      1.9718207e-08  1.4860878e-11  9.3150717e-13  6.3691289      16.547482      20.737198      2185.5565    
Loop time of 0.013414 on 1 procs for 35 steps with 96 atoms

116.5% CPU use with 1 MPI tasks x 1 OpenMP threads

Minimization stats:
  Stopping criterion = force tolerance
  Energy initial, next-to-last, final = 
     -146.753847975064  -146.753847995315  -146.753847995315
  Force two-norm initial, final = 0.00046624166 9.1785169e-11
  Force max component initial, final = 7.1745062e-05 1.5389134e-11
  Final line search alpha, max atom move = 1 1.5389134e-11
  Iterations, force evaluations = 35 70

MPI task timing breakdown:
Section |  min time  |  avg time  |  max time  |%varavg| %total
---------------------------------------------------------------
Pair    | 0.012615   | 0.012615   | 0.012615   |   0.0 | 94.04
Neigh   | 0          | 0          | 0          |   0.0 |  0.00
Comm    | 0.000252   | 0.000252   | 0.000252   |   0.0 |  1.88
Output  | 0.000341   | 0.000341   | 0.000341   |   0.0 |  2.54
Modify  | 0          | 0          | 0          |   0.0 |  0.00
Other   |            | 0.000206   |            |       |  1.54

Nlocal:             96 ave          96 max          96 min
Histogram: 1 0 0 0 0 0 0 0 0 0
Nghost:           1310 ave        1310 max        1310 min
Histogram: 1 0 0 0 0 0 0 0 0 0
Neighs:           6144 ave        6144 max        6144 min
Histogram: 1 0 0 0 0 0 0 0 0 0

[...]
       115   0             -146.7532      -411.71558     -262.20635     -260.01901     -712.9214       214.75349      6.8554252e-07  2.3924797e-08  6.3691289      16.547482      20.757956      2187.7442    
       116   0             -146.7532      -411.71558     -262.20641     -260.01894     -712.9214       214.75349     -3.7809614e-07 -1.2941795e-08  6.3691289      16.547482      20.757956      2187.7442    
       117   0             -146.7532      -411.71558     -262.20637     -260.01898     -712.9214       214.75353      2.3370557e-07  8.2009461e-09  6.3691289      16.547482      20.757956      2187.7442    
       118   0             -146.7532      -411.71558     -262.2063      -260.01906     -712.9214       214.75355     -1.7235833e-07 -5.9204088e-09  6.3691289      16.547482      20.757956      2187.7442    
       119   0             -146.7532      -411.71558     -262.20625     -260.0191      -712.9214       214.75355      1.1091174e-07  3.8463494e-09  6.3691289      16.547482      20.757956      2187.7442    
       120   0             -146.7532      -411.71558     -262.20625     -260.01911     -712.9214       214.75354     -5.7151937e-08 -1.9753657e-09  6.3691289      16.547482      20.757956      2187.7442    
       121   0             -146.7532      -411.71558     -262.20626     -260.0191      -712.9214       214.75353      2.7915984e-08  9.5904811e-10  6.3691289      16.547482      20.757956      2187.7442    
       122   0             -146.7532      -411.71558     -262.20627     -260.01908     -712.9214       214.75353     -4.3419187e-09 -1.5233873e-10  6.3691289      16.547482      20.757956      2187.7442    
       123   0             -146.7532      -411.71558     -262.20628     -260.01908     -712.9214       214.75353     -6.1870641e-10 -3.4791461e-11  6.3691289      16.547482      20.757956      2187.7442    
       124   0             -146.7532      -411.71558     -262.20628     -260.01908     -712.9214       214.75353      2.096599e-09   7.6217641e-11  6.3691289      16.547482      20.757956      2187.7442    
       125   0             -146.7532      -411.71558     -262.20628     -260.01908     -712.9214       214.75353     -4.1869718e-09 -1.2264225e-10  6.3691289      16.547482      20.757956      2187.7442    
       126   0             -146.7532      -411.71558     -262.20628     -260.01908     -712.9214       214.75354      5.2364655e-09  1.6832812e-10  6.3691289      16.547482      20.757956      2187.7442    
       127   0             -146.7532      -411.71558     -262.20628     -260.01908     -712.9214       214.75353     -4.6133457e-09 -1.6715235e-10  6.3691289      16.547482      20.757956      2187.7442    
       128   0             -146.7532      -411.71558     -262.20628     -260.01908     -712.9214       214.75353      4.4189869e-09  1.5379462e-10  6.3691289      16.547482      20.757956      2187.7442    
       129   0             -146.7532      -411.71558     -262.20628     -260.01908     -712.9214       214.75353     -2.4616807e-09 -7.671183e-11   6.3691289      16.547482      20.757956      2187.7442    
       130   0             -146.7532      -411.71558     -262.20628     -260.01908     -712.9214       214.75353      1.6388346e-09  7.0531919e-11  6.3691289      16.547482      20.757956      2187.7442    
       131   0             -146.7532      -411.71558     -262.20628     -260.01908     -712.9214       214.75353     -1.3196605e-09 -3.5630567e-11  6.3691289      16.547482      20.757956      2187.7442    
       132   0             -146.7532      -411.71558     -262.20628     -260.01908     -712.9214       214.75353      1.2914853e-09  3.2386574e-11  6.3691289      16.547482      20.757956      2187.7442    
       133   0             -146.7532      -411.71558     -262.20628     -260.01908     -712.9214       214.75353     -1.3402373e-09 -5.5718297e-11  6.3691289      16.547482      20.757956      2187.7442    
       134   0             -146.7532      -411.71558     -262.20628     -260.01908     -712.9214       214.75353      8.3406004e-10  4.2999583e-11  6.3691289      16.547482      20.757956      2187.7442    
       135   0             -146.7532      -411.71558     -262.20628     -260.01908     -712.9214       214.75353     -4.1094476e-10 -6.2961543e-12  6.3691289      16.547482      20.757956      2187.7442    
       136   0             -146.7532      -411.71558     -262.20628     -260.01908     -712.9214       214.75353      4.0883333e-10 -3.6714863e-13  6.3691289      16.547482      20.757956      2187.7442    
       137   0             -146.7532      -411.71558     -262.20628     -260.01908     -712.9214       214.75353     -3.2129824e-10 -2.2189624e-11  6.3691289      16.547482      20.757956      2187.7442    
       138   0             -146.7532      -411.71558     -262.20628     -260.01908     -712.9214       214.75353      3.4480592e-10  3.0889395e-11  6.3691289      16.547482      20.757956      2187.7442    
       139   0             -146.7532      -411.71558     -262.20628     -260.01908     -712.9214       214.75353     -2.0358582e-10 -4.3873625e-12  6.3691289      16.547482      20.757956      2187.7442    
       140   0             -146.7532      -411.71558     -262.20628     -260.01908     -712.9214       214.75353      9.1259936e-11  1.9865408e-11  6.3691289      16.547482      20.757956      2187.7442    
       141   0             -146.7532      -411.71558     -262.20628     -260.01908     -712.9214       214.75353     -3.4144822e-11  1.2734595e-11  6.3691289      16.547482      20.757956      2187.7442    
Loop time of 0.016424 on 1 procs for 41 steps with 96 atoms

95.1% CPU use with 1 MPI tasks x 1 OpenMP threads

Minimization stats:
  Stopping criterion = force tolerance
  Energy initial, next-to-last, final = 
     -146.753197206812  -146.753202084139  -146.753202084139
  Force two-norm initial, final = 0.0038064514 6.1979456e-11
  Force max component initial, final = 0.00044530646 9.1397875e-12
  Final line search alpha, max atom move = 1 9.1397875e-12
  Iterations, force evaluations = 41 82

MPI task timing breakdown:
Section |  min time  |  avg time  |  max time  |%varavg| %total
---------------------------------------------------------------
Pair    | 0.015548   | 0.015548   | 0.015548   |   0.0 | 94.67
Neigh   | 0          | 0          | 0          |   0.0 |  0.00
Comm    | 0.000299   | 0.000299   | 0.000299   |   0.0 |  1.82
Output  | 0.000387   | 0.000387   | 0.000387   |   0.0 |  2.36
Modify  | 0          | 0          | 0          |   0.0 |  0.00
Other   |            | 0.00019    |            |       |  1.16

Nlocal:             96 ave          96 max          96 min
Histogram: 1 0 0 0 0 0 0 0 0 0
Nghost:           1310 ave        1310 max        1310 min
Histogram: 1 0 0 0 0 0 0 0 0 0
Neighs:           6144 ave        6144 max        6144 min
Histogram: 1 0 0 0 0 0 0 0 0 0

Total # of neighbors = 6144
Ave neighs/atom = 64
Neighbor list builds = 0
Dangerous builds = 0
OMP_NUM_THREADS environment is not set. Defaulting to 1 thread. (src/comm.cpp:98)
  using 1 OpenMP thread(s) per MPI task
Loaded 1 plugins from F:\Lammps\LAMMPS 64-bit 2Aug2023\plugins

The 'box' command has been removed and will be ignored

Reading restart file ...
  restart file = 2 Aug 2023, LAMMPS = 2 Aug 2023
  restoring atom style atomic from restart
  triclinic box = (0.025435542 0.066083476 0.10483816) to (6.3945645 16.613566 20.862794) with tilt (0 0 0)
  1 by 1 by 1 MPI processor grid
  pair style eam/alloy stores no restart info
  96 atoms
  read_restart CPU = 0.000 seconds
Changing box ...
  triclinic box = (0.025435542 0.066083476 0.10483816) to (6.3945645 16.613566 20.862794) with tilt (0.016547482 0 0)
Neighbor list info ...
  update: every = 1 steps, delay = 0 steps, check = yes
  max neighbors/atom: 2000, page size: 100000
  master list distance cutoff = 8.5
  ghost atom cutoff = 8.5
  1 neighbor lists, perpetual/occasional/extra = 1 0 0
  (1) pair eam/alloy, perpetual
      attributes: half, newton on
      pair build: half/nsq/newton
      stencil: none
      bin: none
Setting up cg style minimization ...
  Unit style    : metal
  Current step  : 100
Per MPI rank memory allocation (min/avg/max) = 4.467 | 4.467 | 4.467 Mbytes
   Step          Temp          PotEng         Press           Pxx            Pyy            Pzz            Pxy            Pxz            Pyz             Lx             Ly             Lz           Volume    
       100   0             -146.7532      -411.53911     -261.88884     -260.08276     -712.64573     -221.83942      0.00062610215 -4.9222852e-06  6.3691289      16.547482      20.757956      2187.7442    
       101   0             -146.7532      -411.71301     -262.16122     -260.0644      -712.91341     -215.09079     -0.00090415907  0.00013992227  6.3691289      16.547482      20.757956      2187.7442    
       102   0             -146.7532      -411.71553     -262.17255     -260.05322     -712.92082     -214.77984      0.00012946995 -1.8617874e-05  6.3691289      16.547482      20.757956      2187.7442    
       103   0             -146.7532      -411.71561     -262.18194     -260.0437      -712.92119     -214.76375     -4.0748931e-05  1.5318231e-06  6.3691289      16.547482      20.757956      2187.7442    
       104   0             -146.7532      -411.71561     -262.19095     -260.03458     -712.92129     -214.75864      1.5713647e-05 -6.2976928e-07  6.3691289      16.547482      20.757956      2187.7442    
       105   0             -146.7532      -411.7156      -262.19774     -260.02771     -712.92134     -214.75608     -8.1343215e-06  3.7065315e-07  6.3691289      16.547482      20.757956      2187.7442    
       106   0             -146.7532      -411.71559     -262.20414     -260.02123     -712.92139     -214.75402      8.1989437e-06 -2.5056683e-07  6.3691289      16.547482      20.757956      2187.7442    
       107   0             -146.7532      -411.71558     -262.20811     -260.01722     -712.92141     -214.75285     -8.8500937e-06  3.1692473e-07  6.3691289      16.547482      20.757956      2187.7442    
       108   0             -146.7532      -411.71558     -262.20932     -260.016       -712.92142     -214.75257      8.2902417e-06 -2.7109468e-07  6.3691289      16.547482      20.757956      2187.7442    
       109   0             -146.7532      -411.71558     -262.20849     -260.01684     -712.92141     -214.7529      -5.5473877e-06  1.9292763e-07  6.3691289      16.547482      20.757956      2187.7442    
       110   0             -146.7532      -411.71558     -262.20697     -260.01838     -712.9214      -214.75338      2.5984285e-06 -8.8838271e-08  6.3691289      16.547482      20.757956      2187.7442    
       111   0             -146.7532      -411.71559     -262.20603     -260.01933     -712.9214      -214.75365     -1.3042366e-06  4.5973591e-08  6.3691289      16.547482      20.757956      2187.7442    
       112   0             -146.7532      -411.71559     -262.20583     -260.01953     -712.9214      -214.75368      1.4115271e-06 -4.907491e-08   6.3691289      16.547482      20.757956      2187.7442    
       113   0             -146.7532      -411.71559     -262.20595     -260.01941     -712.9214      -214.75361     -1.471046e-06   5.0613211e-08  6.3691289      16.547482      20.757956      2187.7442    
       114   0             -146.7532      -411.71559     -262.2062      -260.01916     -712.9214      -214.75352      1.0936583e-06 -3.7909641e-08  6.3691289      16.547482      20.757956      2187.7442    
       115   0             -146.7532      -411.71558     -262.20635     -260.019       -712.9214      -214.75349     -6.9701168e-07  2.4307112e-08  6.3691289      16.547482      20.757956      2187.7442    
       116   0             -146.7532      -411.71558     -262.20641     -260.01894     -712.9214      -214.75349      3.8585196e-07 -1.3208106e-08  6.3691289      16.547482      20.757956      2187.7442    
       117   0             -146.7532      -411.71558     -262.20637     -260.01899     -712.9214      -214.75353     -2.4402636e-07  8.5973898e-09  6.3691289      16.547482      20.757956      2187.7442    
       118   0             -146.7532      -411.71558     -262.2063      -260.01906     -712.9214      -214.75355      1.751936e-07  -5.9575829e-09  6.3691289      16.547482      20.757956      2187.7442    
       119   0             -146.7532      -411.71558     -262.20625     -260.0191      -712.9214      -214.75355     -1.1078343e-07  3.8459073e-09  6.3691289      16.547482      20.757956      2187.7442    
       120   0             -146.7532      -411.71558     -262.20625     -260.01911     -712.9214      -214.75354      5.9208285e-08 -2.054659e-09   6.3691289      16.547482      20.757956      2187.7442    
       121   0             -146.7532      -411.71558     -262.20626     -260.0191      -712.9214      -214.75353     -3.2168677e-08  1.1239804e-09  6.3691289      16.547482      20.757956      2187.7442    
       122   0             -146.7532      -411.71558     -262.20627     -260.01908     -712.9214      -214.75353      5.9717702e-09 -2.0480922e-10  6.3691289      16.547482      20.757956      2187.7442    
       123   0             -146.7532      -411.71558     -262.20628     -260.01908     -712.9214      -214.75353     -6.3073212e-10 -1.5852182e-11  6.3691289      16.547482      20.757956      2187.7442    
       124   0             -146.7532      -411.71558     -262.20628     -260.01908     -712.9214      -214.75353     -1.3905024e-09  6.5518879e-11  6.3691289      16.547482      20.757956      2187.7442    
       125   0             -146.7532      -411.71558     -262.20628     -260.01908     -712.9214      -214.75353      3.5510577e-09 -1.2720811e-10  6.3691289      16.547482      20.757956      2187.7442    
       126   0             -146.7532      -411.71558     -262.20628     -260.01908     -712.9214      -214.75354     -4.8229317e-09  1.668843e-10   6.3691289      16.547482      20.757956      2187.7442    
       127   0             -146.7532      -411.71558     -262.20628     -260.01908     -712.9214      -214.75353      4.7436199e-09 -1.8143621e-10  6.3691289      16.547482      20.757956      2187.7442    
       128   0             -146.7532      -411.71558     -262.20628     -260.01908     -712.9214      -214.75353     -4.4266983e-09  1.6774436e-10  6.3691289      16.547482      20.757956      2187.7442    
       129   0             -146.7532      -411.71558     -262.20628     -260.01908     -712.9214      -214.75353      2.4240867e-09 -7.0359143e-11  6.3691289      16.547482      20.757956      2187.7442    
       130   0             -146.7532      -411.71558     -262.20628     -260.01908     -712.9214      -214.75353     -1.5186411e-09  3.8776739e-11  6.3691289      16.547482      20.757956      2187.7442    
       131   0             -146.7532      -411.71558     -262.20628     -260.01908     -712.9214      -214.75353      1.2012341e-09 -4.9934119e-11  6.3691289      16.547482      20.757956      2187.7442    
       132   0             -146.7532      -411.71558     -262.20628     -260.01908     -712.9214      -214.75353     -1.2430128e-09  2.9266446e-11  6.3691289      16.547482      20.757956      2187.7442    
       133   0             -146.7532      -411.71558     -262.20628     -260.01908     -712.9214      -214.75353      1.4130407e-09 -4.2253217e-11  6.3691289      16.547482      20.757956      2187.7442    
       134   0             -146.7532      -411.71558     -262.20628     -260.01908     -712.9214      -214.75353     -9.0844385e-10  1.9494449e-11  6.3691289      16.547482      20.757956      2187.7442    
       135   0             -146.7532      -411.71558     -262.20628     -260.01908     -712.9214      -214.75353      4.758767e-10  -3.6155882e-12  6.3691289      16.547482      20.757956      2187.7442    
       136   0             -146.7532      -411.71558     -262.20628     -260.01908     -712.9214      -214.75353     -4.9139604e-10  2.6278441e-11  6.3691289      16.547482      20.757956      2187.7442    
       137   0             -146.7532      -411.71558     -262.20628     -260.01908     -712.9214      -214.75353      3.7953259e-10 -3.6062507e-11  6.3691289      16.547482      20.757956      2187.7442    
       138   0             -146.7532      -411.71558     -262.20628     -260.01908     -712.9214      -214.75353     -3.9170058e-10 -7.6110291e-12  6.3691289      16.547482      20.757956      2187.7442    
       139   0             -146.7532      -411.71558     -262.20628     -260.01908     -712.9214      -214.75353      2.0838543e-10  2.1444529e-12  6.3691289      16.547482      20.757956      2187.7442    
       140   0             -146.7532      -411.71558     -262.20628     -260.01908     -712.9214      -214.75353     -1.0053647e-10 -1.6375591e-12  6.3691289      16.547482      20.757956      2187.7442    
Loop time of 0.016714 on 1 procs for 40 steps with 96 atoms

93.5% CPU use with 1 MPI tasks x 1 OpenMP threads

Minimization stats:
  Stopping criterion = force tolerance
  Energy initial, next-to-last, final = 
     -146.753197254996  -146.753202084138  -146.753202084138
  Force two-norm initial, final = 0.0037878252 9.8672547e-11
  Force max component initial, final = 0.00045621275 1.9903777e-11
  Final line search alpha, max atom move = 1 1.9903777e-11
  Iterations, force evaluations = 40 80

MPI task timing breakdown:
Section |  min time  |  avg time  |  max time  |%varavg| %total
---------------------------------------------------------------
Pair    | 0.015543   | 0.015543   | 0.015543   |   0.0 | 92.99
Neigh   | 0          | 0          | 0          |   0.0 |  0.00
Comm    | 0.000358   | 0.000358   | 0.000358   |   0.0 |  2.14
Output  | 0.000419   | 0.000419   | 0.000419   |   0.0 |  2.51
Modify  | 0          | 0          | 0          |   0.0 |  0.00
Other   |            | 0.000394   |            |       |  2.36

Nlocal:             96 ave          96 max          96 min
Histogram: 1 0 0 0 0 0 0 0 0 0
Nghost:           1310 ave        1310 max        1310 min
Histogram: 1 0 0 0 0 0 0 0 0 0
Neighs:           6144 ave        6144 max        6144 min
Histogram: 1 0 0 0 0 0 0 0 0 0

Total # of neighbors = 6144
Ave neighs/atom = 64
Neighbor list builds = 0
Dangerous builds = 0
=========================================
Components of the Elastic Constant Tensor
=========================================
Elastic Constant C11all = 69.068758406644 GPa
Elastic Constant C22all = 69.0619915977571 GPa
Elastic Constant C33all = 69.1705091652356 GPa
Elastic Constant C12all = 26.0789753405115 GPa
Elastic Constant C13all = 15.8999324402226 GPa
Elastic Constant C23all = 15.9212848621211 GPa
Elastic Constant C44all = 12.770805613531 GPa
Elastic Constant C55all = 12.7712240496882 GPa
Elastic Constant C66all = 21.4753533955022 GPa
Elastic Constant C14all = -2.52909907154487e-11 GPa
Elastic Constant C15all = -1.47021388357613e-13 GPa
Elastic Constant C16all = -2.82605470286919e-10 GPa
Elastic Constant C24all = 2.75524052744499e-11 GPa
Elastic Constant C25all = -9.67594439519595e-13 GPa
Elastic Constant C26all = 2.40626462939462e-10 GPa
Elastic Constant C34all = -9.3992427163122e-13 GPa
Elastic Constant C35all = 7.10244692412656e-13 GPa
Elastic Constant C36all = 1.033910568617e-10 GPa
Elastic Constant C45all = 2.69968576362077e-12 GPa
Elastic Constant C46all = 2.33212425515767e-12 GPa
Elastic Constant C56all = 2.1922838229652e-12 GPa
=========================================
Average properties for a cubic crystal
=========================================
Bulk Modulus = 35.9001827172608 GPa
Shear Modulus 1 = 15.6724610195738 GPa
Shear Modulus 2 = 24.9001777544635 GPa
Poisson Ratio = 0.218325323059668
Total wall time: 0:00:00
