LAMMPS (2 Aug 2023 - Update 3)
OMP_NUM_THREADS environment is not set. Defaulting to 1 thread. (src/comm.cpp:98)
  using 1 OpenMP thread(s) per MPI task
Loaded 1 plugins from F:\Lammps\LAMMPS 64-bit 2Aug2023\plugins
Lattice spacing in x,y,z = 3.21 5.5598831 5.241908
Created triclinic box = (0 0 0) to (6.42 16.679649 20.967632) with tilt (0 0 0)
  1 by 1 by 1 MPI processor grid
Created 96 atoms
  using lattice units in triclinic box = (0 0 0) to (6.42 16.679649 20.967632) with tilt (0 0 0)
  create_atoms CPU = 0.000 seconds
Neighbor list info ...
  update: every = 1 steps, delay = 0 steps, check = yes
  max neighbors/atom: 2000, page size: 100000
  master list distance cutoff = 8.5
  ghost atom cutoff = 8.5
  1 neighbor lists, perpetual/occasional/extra = 1 0 0
  (1) pair eam/alloy, perpetual
      attributes: half, newton on
      pair build: half/nsq/newton
      stencil: none
      bin: none
Setting up cg style minimization ...
  Unit style    : metal
  Current step  : 0
WARNING: Energy due to 3 extra global DOFs will be included in minimizer energies
 (src/min.cpp:228)
Per MPI rank memory allocation (min/avg/max) = 4.472 | 4.472 | 4.472 Mbytes
   Step          Temp          PotEng         Press           Pxx            Pyy            Pzz            Pxy            Pxz            Pyz             Lx             Ly             Lz           Volume    
         0   0             -146.56845     -9864.3832     -9673.7539     -9673.7539     -10245.642     -2.4955128e-12  2.5747355e-12 -2.9708486e-13  6.42           16.679649      20.967632      2245.2843    
         1   0             -146.57242     -9756.6247     -9563.4759     -9563.4759     -10142.922     -3.1500093e-12 -9.7670099e-12  2.1029779e-11  6.4193938      16.678074      20.965535      2244.6358    
         2   0             -146.57635     -9647.857      -9452.1746     -9452.1746     -10039.222      1.7562903e-11  7.2530578e-12  1.2881114e-12  6.4187885      16.676502      20.963439      2243.9881    
         3   0             -146.58023     -9538.7815     -9340.2259     -9340.2259     -9935.8925     -6.5910854e-13 -5.0349946e-12  4.2817277e-12  6.4181841      16.674931      20.961342      2243.3411    
         4   0             -146.58406     -9431.1326     -9229.8164     -9229.8164     -9833.765       1.5233264e-11  3.0535929e-12  3.3272265e-11  6.4175806      16.673363      20.959245      2242.6948    
         5   0             -146.58784     -9323.2119     -9119.4704     -9119.4704     -9730.695       7.5469258e-12  2.5586161e-12 -1.8842522e-12  6.416978       16.671798      20.957148      2242.0494    
         6   0             -146.59157     -9216.6124     -9010.1468     -9010.1468     -9629.5435     -9.0222119e-12  1.9046341e-12  2.1754492e-11  6.4163763      16.670235      20.955052      2241.4047    
         7   0             -146.59526     -9109.3171     -8900.4154     -8900.4154     -9527.1203     -1.3395806e-13 -7.3230409e-12 -1.5370448e-11  6.4157757      16.668674      20.952955      2240.7608    
         8   0             -146.5989      -9001.3603     -8789.6154     -8789.6154     -9424.8501      5.6973336e-12  4.5459561e-12 -1.5106867e-11  6.4151759      16.667116      20.950858      2240.1177    
         9   0             -146.60249     -8895.2656     -8681.1149     -8681.1149     -9323.5672      5.7783956e-12  5.1429707e-12  5.8379667e-12  6.4145772      16.66556       20.948761      2239.4755    
        10   0             -146.60603     -8787.8035     -8571.2943     -8571.2943     -9220.8219      2.0458601e-12  2.1451736e-12 -4.0420633e-12  6.4139795      16.664008      20.946665      2238.834     
        11   0             -146.60953     -8680.4544     -8460.9889     -8460.9889     -9119.3854     -1.2040253e-11 -6.8943363e-12  4.4405883e-12  6.4133828      16.662457      20.944568      2238.1934    
        12   0             -146.61298     -8574.1671     -8352.0707     -8352.0707     -9018.36        4.8592137e-12 -4.9883953e-12  8.3968008e-12  6.4127871      16.66091       20.942471      2237.5537    
        13   0             -146.61638     -8469.5129     -8245.1839     -8245.1839     -8918.1711     -1.3518237e-12  7.0175555e-12 -2.7632867e-12  6.4121926      16.659365      20.940374      2236.9148    
        14   0             -146.61974     -8363.3443     -8136.6345     -8136.6345     -8816.7638     -7.6558914e-13 -2.346481e-12   9.7935754e-12  6.4115991      16.657823      20.938278      2236.2768    
        15   0             -146.62304     -8255.4003     -8026.2591     -8026.2591     -8713.6827     -2.2476942e-11  5.6490722e-12  1.7156073e-11  6.4110067      16.656284      20.936181      2235.6397    
        16   0             -146.62631     -8148.9875     -7917.1021     -7917.1021     -8612.7581      1.2495166e-11 -1.750915e-12   4.7752228e-13  6.4104154      16.654748      20.934084      2235.0034    
        17   0             -146.62952     -8044.6833     -7810.2014     -7810.2014     -8513.6471      1.6384666e-11  5.3736531e-12  1.0538331e-11  6.4098253      16.653215      20.931987      2234.3682    
        18   0             -146.63269     -7940.75       -7704.2691     -7704.2691     -8413.7118     -6.9628476e-12  1.6722779e-12 -2.2187544e-11  6.4092364      16.651685      20.92989       2233.7339    
        19   0             -146.63582     -7834.6993     -7595.8697     -7595.8697     -8312.3584      2.2696659e-11 -1.4138739e-12 -1.3640896e-12  6.4086486      16.650158      20.927794      2233.1004    
        20   0             -146.63889     -7728.1906     -7487.3524     -7487.3524     -8209.867      -8.4806671e-12 -5.6969367e-12  2.0616537e-11  6.4080621      16.648634      20.925697      2232.468     
        21   0             -146.64193     -7623.4722     -7379.9272     -7379.9272     -8110.5624     -6.6698923e-12 -3.6064242e-12 -2.4298532e-11  6.4074766      16.647113      20.9236        2231.8364    
        22   0             -146.64491     -7519.5298     -7273.2329     -7273.2329     -8012.1235      4.5342174e-13 -1.6343113e-12 -5.1819627e-13  6.4068926      16.645595      20.921503      2231.2059    
        23   0             -146.64785     -7415.7555     -7167.5484     -7167.5484     -7912.1697     -6.6786437e-12  2.8508837e-12  9.4298461e-12  6.4063099      16.644081      20.919407      2230.5765    
        24   0             -146.65075     -7311.5991     -7061.7158     -7061.7158     -7811.3658      2.8467017e-12  2.2135474e-12 -9.0934919e-12  6.4057284      16.642571      20.91731       2229.9481    
        25   0             -146.6536      -7207.8811     -6955.773      -6955.773      -7712.0974     -1.0622034e-11  1.5160086e-12  9.2057626e-12  6.4051481      16.641063      20.915213      2229.3206    
        26   0             -146.6564      -7103.4914     -6849.0107     -6849.0107     -7612.4527     -6.7092258e-12 -1.085448e-11   3.5915558e-13  6.4045692      16.639559      20.913116      2228.6942    
        27   0             -146.65916     -6999.8613     -6743.1869     -6743.1869     -7513.2102     -8.3078038e-12 -2.2952491e-12 -1.8621456e-11  6.4039917      16.638058      20.91102       2228.0689    
        28   0             -146.66188     -6897.2087     -6638.4493     -6638.4493     -7414.7275      8.3650337e-12  7.7860696e-13  9.8124441e-12  6.4034156      16.636562      20.908923      2227.4447    
        29   0             -146.66455     -6794.1538     -6533.3766     -6533.3766     -7315.7083     -1.2705828e-11 -6.9894536e-13 -1.503731e-11   6.4028409      16.635069      20.906826      2226.8215    
        30   0             -146.66717     -6690.7955     -6428.5986     -6428.5986     -7215.1893      1.1985268e-13  1.0986496e-12 -3.3458873e-12  6.4022677      16.633579      20.904729      2226.1996    
        31   0             -146.66975     -6588.1525     -6323.4725     -6323.4725     -7117.5124     -1.0150358e-11 -4.2159952e-12 -4.4957295e-12  6.4016958      16.632094      20.902633      2225.5786    
        32   0             -146.67229     -6485.7587     -6219.2797     -6219.2797     -7018.7168     -9.2437955e-12  2.2584841e-12 -1.7718108e-11  6.4011256      16.630612      20.900536      2224.9589    
        33   0             -146.67478     -6383.9516     -6115.7681     -6115.7681     -6920.3186      1.3094853e-12 -3.07879e-12    5.5977999e-12  6.4005569      16.629135      20.898439      2224.3404    
        34   0             -146.67723     -6281.9599     -6011.8996     -6011.8996     -6822.0804     -9.3739185e-12  1.0598777e-12  2.0477637e-11  6.3999897      16.627661      20.896342      2223.7231    
        35   0             -146.67964     -6180.3081     -5908.8162     -5908.8162     -6723.2919      4.9908071e-12 -1.8603009e-12 -1.6212622e-11  6.3994241      16.626191      20.894245      2223.107     
        36   0             -146.682       -6078.8898     -5805.5072     -5805.5072     -6625.655       8.4136876e-12  1.4606402e-12 -6.9030255e-13  6.39886        16.624726      20.892149      2222.492     
        37   0             -146.68432     -5977.0717     -5702.0362     -5702.0362     -6527.1429      4.8284488e-12 -1.0287348e-11  1.9794138e-11  6.3982976      16.623265      20.890052      2221.8784    
        38   0             -146.68659     -5875.7368     -5598.8877     -5598.8877     -6429.4351      1.0630521e-11 -1.2412284e-11 -9.6795796e-12  6.397737       16.621808      20.887955      2221.266     
        39   0             -146.68882     -5776.0056     -5497.7079     -5497.7079     -6332.6011     -8.1803438e-12 -1.2876282e-11  1.5990219e-11  6.3971781      16.620356      20.885858      2220.655     
        40   0             -146.69101     -5675.4591     -5396.4061     -5396.4061     -6233.565      -4.6271197e-12 -3.2049314e-13 -1.4151775e-11  6.3966209      16.618909      20.883762      2220.0453    
        41   0             -146.69316     -5575.2197     -5294.5302     -5294.5302     -6136.5988      1.5878778e-12  2.0036313e-14  6.8223645e-12  6.3960654      16.617465      20.881665      2219.4369    
        42   0             -146.69526     -5475.1206     -5192.6784     -5192.6784     -6040.0051     -4.1586724e-12 -4.9703651e-12  1.8498576e-11  6.3955117      16.616027      20.879568      2218.8298    
        43   0             -146.69732     -5375.8019     -5092.0425     -5092.0425     -5943.3205      0             -6.7158342e-12 -1.249947e-11   6.3949599      16.614593      20.877471      2218.2242    
        44   0             -146.69934     -5276.1471     -4991.4893     -4991.4893     -5845.4626     -1.7596269e-12  4.0105456e-13 -5.6949747e-12  6.3944101      16.613165      20.875375      2217.62      
        45   0             -146.70132     -5177.2752     -4891.2519     -4891.2519     -5749.3219     -9.7282172e-13 -9.14653e-12    7.471672e-12   6.3938621      16.611741      20.873278      2217.0173    
        46   0             -146.70326     -5078.4368     -4791.4962     -4791.4962     -5652.318      -4.4440921e-12 -3.1098613e-12 -2.7386843e-11  6.3933162      16.610323      20.871181      2216.416     
        47   0             -146.70515     -4979.7729     -4691.8304     -4691.8304     -5555.6579     -6.3267686e-12 -3.7127746e-12  1.7911629e-11  6.3927722      16.608909      20.869084      2215.8162    
        48   0             -146.70701     -4881.362      -4592.1502     -4592.1502     -5459.7856      2.7050351e-12  5.9219692e-12  1.797669e-11   6.3922303      16.607501      20.866988      2215.218     
        49   0             -146.70882     -4784.1106     -4494.0227     -4494.0227     -5364.2863      6.8773589e-13  1.7670294e-12  4.3171742e-13  6.3916905      16.606099      20.864891      2214.6214    
        50   0             -146.71059     -4685.9172     -4395.3247     -4395.3247     -5267.1021     -6.8089087e-12 -1.4059694e-13  9.6007622e-12  6.391153       16.604702      20.862794      2214.0263    
        51   0             -146.71232     -4588.6275     -4297.6776     -4297.6776     -5170.5274     -1.2933363e-11  0             -1.4555684e-11  6.3906175      16.603311      20.860697      2213.4329    
        52   0             -146.71401     -4491.9531     -4200.2557     -4200.2557     -5075.3477     -5.8630183e-12  1.708163e-12  -5.8278503e-12  6.3900842      16.601926      20.858601      2212.841     
        53   0             -146.71566     -4395.3625     -4102.8641     -4102.8641     -4980.3592     -1.0332118e-11  1.2583474e-11  1.2744285e-11  6.3895531      16.600546      20.856504      2212.2508    
        54   0             -146.71727     -4298.0887     -4005.3573     -4005.3573     -4883.5515      4.0967491e-12  4.0213488e-13 -1.3391092e-11  6.3890245      16.599173      20.854407      2211.6625    
        55   0             -146.71885     -4202.8249     -3909.5978     -3909.5978     -4789.2792      2.2676369e-12  6.8381068e-13 -1.0880635e-11  6.3884983      16.597805      20.85231       2211.0758    
        56   0             -146.72038     -4106.7608     -3813.1767     -3813.1767     -4693.9292      7.026002e-12   3.922893e-12   2.0399044e-11  6.3879745      16.596445      20.850213      2210.491     
        57   0             -146.72187     -4010.8087     -3717.2323     -3717.2323     -4597.9616      1.2144054e-11 -1.0302826e-11 -3.3504307e-12  6.3874533      16.595091      20.848117      2209.908     
        58   0             -146.72332     -3915.4112     -3621.7194     -3621.7194     -4502.7949      1.831648e-12   8.0109439e-12  1.1342128e-11  6.3869346      16.593743      20.84602       2209.3269    
        59   0             -146.72474     -3821.4142     -3527.4731     -3527.4731     -4409.2963      7.5751458e-12  4.1071887e-12  4.0759821e-11  6.3864186      16.592402      20.843923      2208.7477    
        60   0             -146.72611     -3727.2365     -3433.3401     -3433.3401     -4315.0293     -5.4776829e-12 -4.7526955e-12 -1.1076197e-12  6.3859053      16.591069      20.841826      2208.1705    
        61   0             -146.72745     -3632.5188     -3339.157      -3339.157      -4219.2425     -3.7114927e-12 -1.8935159e-12  8.117946e-12   6.3853949      16.589742      20.83973       2207.5954    
        62   0             -146.72875     -3538.7272     -3245.7118     -3245.7118     -4124.7582      1.5464371e-12  7.4349875e-12 -1.3560289e-11  6.3848871      16.588423      20.837633      2207.0223    
        63   0             -146.73001     -3446.399      -3153.616      -3153.616      -4031.965      -5.4517198e-12 -2.4789706e-12 -2.085963e-11   6.3843823      16.587112      20.835536      2206.4513    
        64   0             -146.73124     -3353.4649     -3061.2917     -3061.2917     -3937.8114      1.7488305e-12  5.9470316e-12  2.3445416e-11  6.3838806      16.585808      20.833439      2205.8824    
        65   0             -146.73242     -3260.7499     -2969.3762     -2969.3762     -3843.4972     -9.7092591e-12  2.8633744e-12 -1.8763168e-11  6.3833819      16.584513      20.831343      2205.3158    
        66   0             -146.73358     -3168.9129     -2878.4568     -2878.4568     -3749.8252     -5.4710502e-12 -4.8004053e-12  1.3513746e-11  6.3828863      16.583225      20.829246      2204.7515    
        67   0             -146.73469     -3077.0407     -2787.1701     -2787.1701     -3656.7819      1.2009117e-11 -5.0033786e-12  1.1963724e-11  6.3823938      16.581946      20.827149      2204.1894    
        68   0             -146.73577     -2984.4975     -2695.4973     -2695.4973     -3562.4978      4.0259173e-12 -8.293995e-12  -1.2138292e-11  6.3819049      16.580675      20.825052      2203.6299    
        69   0             -146.73681     -2894.3912     -2606.4731     -2606.4731     -3470.2273     -4.8948961e-13 -1.5946259e-12  5.4499874e-12  6.3814196      16.579414      20.822956      2203.0729    
        70   0             -146.73782     -2805.0553     -2518.5169     -2518.5169     -3378.1322      9.2218828e-12 -5.1283158e-12  2.7822123e-11  6.3809378      16.578163      20.820859      2202.5184    
        71   0             -146.73879     -2714.7801     -2430.0155     -2430.0155     -3284.3092     -8.3356018e-12 -5.9778029e-12 -1.4177087e-11  6.3804596      16.57692       20.818762      2201.9666    
        72   0             -146.73972     -2625.2723     -2341.7622     -2341.7622     -3192.2924     -6.8984089e-12  2.4644389e-12  5.6257888e-12  6.3799851      16.575687      20.816665      2201.4173    
        73   0             -146.74062     -2536.2575     -2254.4775     -2254.4775     -3099.8176     -4.2481714e-12 -2.8287467e-13  3.8390134e-12  6.3795146      16.574465      20.814568      2200.8709    
        74   0             -146.74149     -2447.6978     -2167.7359     -2167.7359     -3007.6215     -1.3288288e-12  6.2652007e-13 -1.5945946e-11  6.3790481      16.573253      20.812472      2200.3274    
        75   0             -146.74232     -2360.1022     -2082.036      -2082.036      -2916.2344      1.5313083e-12 -7.4392269e-12 -1.5767927e-12  6.3785859      16.572052      20.810375      2199.7869    
        76   0             -146.74312     -2272.0819     -1996.6047     -1996.6047     -2823.0363      5.2572599e-13  6.5917951e-12 -3.1907524e-11  6.378128       16.570863      20.808278      2199.2495    
        77   0             -146.74389     -2184.9845     -1911.6905     -1911.6905     -2731.5724     -1.1513164e-11 -2.2854413e-12  1.0415949e-11  6.3776745      16.569684      20.806181      2198.7151    
        78   0             -146.74462     -2099.306      -1828.4857     -1828.4857     -2640.9465     -1.0256625e-11  9.8115646e-12  2.8099512e-11  6.3772257      16.568518      20.804085      2198.1841    
        79   0             -146.74532     -2013.5276     -1745.7404     -1745.7404     -2549.1018      6.3891654e-12 -3.7232191e-12 -7.233972e-12   6.3767817      16.567365      20.801988      2197.6565    
        80   0             -146.74599     -1928.6665     -1663.5011     -1663.5011     -2458.9973     -4.5792353e-12  9.5430252e-12 -6.1731128e-13  6.3763425      16.566224      20.799891      2197.1324    
        81   0             -146.74662     -1844.3897     -1582.2553     -1582.2553     -2368.6587     -6.4276316e-13 -3.6946229e-12  3.1601678e-11  6.3759087      16.565097      20.797794      2196.612     
        82   0             -146.74723     -1760.5943     -1501.9595     -1501.9595     -2277.864       7.8010315e-12  8.9096791e-13 -7.6744736e-12  6.3754804      16.563984      20.795698      2196.0954    
        83   0             -146.7478      -1676.8053     -1421.9737     -1421.9737     -2186.4686     -2.5722578e-12  1.1544779e-12  8.7801084e-12  6.3750576      16.562886      20.793601      2195.5828    
        84   0             -146.74835     -1594.7032     -1343.2583     -1343.2583     -2097.5929     -1.2383125e-11 -5.2672597e-13 -4.1712645e-11  6.3746406      16.561802      20.791504      2195.0742    
        85   0             -146.74886     -1513.2909     -1265.6929     -1265.6929     -2008.4867     -1.3490322e-11  9.7162738e-12 -8.287708e-12   6.3742301      16.560736      20.789407      2194.5701    
        86   0             -146.74935     -1432.2316     -1188.8796     -1188.8796     -1918.9355     -1.7633123e-12  1.1299386e-11  7.0431153e-12  6.3738261      16.559686      20.787311      2194.0706    
        87   0             -146.7498      -1351.5915     -1112.7737     -1112.7737     -1829.2271      3.3094903e-12 -7.6528796e-12 -1.3937364e-11  6.3734289      16.558654      20.785214      2193.5759    
        88   0             -146.75023     -1272.2644     -1037.8558     -1037.8558     -1741.0816      5.0692639e-13 -2.919896e-12   2.0074285e-12  6.3730389      16.557641      20.783117      2193.0862    
        89   0             -146.75063     -1193.6151     -963.99438     -963.99438     -1652.8564     -8.1785283e-12 -3.8940544e-12  3.5695499e-12  6.3726568      16.556648      20.78102       2192.602     
        90   0             -146.751       -1116.3145     -892.01965     -892.01965     -1564.9043      3.0479655e-12  2.8400344e-13 -2.2253698e-11  6.3722829      16.555677      20.778924      2192.1236    
        91   0             -146.75134     -1040.5963     -822.08268     -822.08268     -1477.6236     -2.0036705e-12  3.6319698e-12  1.2884362e-12  6.3719175      16.554727      20.776827      2191.651     
        92   0             -146.75166     -965.40865     -752.81968     -752.81968     -1390.5866     -3.6276693e-12 -5.7230923e-12  3.0888462e-11  6.3715609      16.553801      20.77473       2191.1846    
        93   0             -146.75195     -890.43872     -684.17465     -684.17465     -1302.9669      1.1468886e-12  2.8925951e-12 -4.1003804e-12  6.371214       16.552899      20.772633      2190.7248    
        94   0             -146.75222     -816.80927     -617.40777     -617.40777     -1215.6123     -1.5486195e-11 -1.0121099e-11  2.2932359e-11  6.3708774      16.552025      20.770536      2190.2722    
        95   0             -146.75246     -745.76228     -553.12718     -553.12718     -1131.0325      9.1230237e-12  2.193181e-12  -2.2287186e-11  6.3705519      16.551179      20.76844       2189.8274    
        96   0             -146.75269     -675.71114     -490.41582     -490.41582     -1046.3018      7.3222165e-12 -6.7027225e-13 -7.647197e-12   6.3702385      16.550365      20.766343      2189.3908    
        97   0             -146.75288     -606.83068     -429.2916      -429.2916      -961.90884     -1.4850445e-11  1.4169885e-11  2.4408769e-11  6.3699382      16.549585      20.764246      2188.9634    
        98   0             -146.75306     -539.71267     -370.38405     -370.38405     -878.36991     -6.5732363e-12 -6.0957369e-14 -3.1636874e-11  6.3696522      16.548842      20.762149      2188.5458    
        99   0             -146.75321     -474.0867      -313.88249     -313.88249     -794.49512      4.1966787e-12  5.0705633e-12 -1.4632487e-12  6.369382       16.54814       20.760053      2188.1391    
       100   0             -146.75335     -410.6318      -260.11286     -260.11286     -711.66969     -1.4889211e-12 -5.3662138e-12  2.2664123e-11  6.3691289      16.547482      20.757956      2187.7442    
Loop time of 0.024276 on 1 procs for 100 steps with 96 atoms

128.7% CPU use with 1 MPI tasks x 1 OpenMP threads

Minimization stats:
  Stopping criterion = max iterations
  Energy initial, next-to-last, final = 
     -146.568450621862  -146.753213887664  -146.753348893176
  Force two-norm initial, final = 23.952655 1.1044762
  Force max component initial, final = 14.358205 0.98158851
  Final line search alpha, max atom move = 9.1247978e-05 8.9567967e-05
  Iterations, force evaluations = 100 100

MPI task timing breakdown:
Section |  min time  |  avg time  |  max time  |%varavg| %total
---------------------------------------------------------------
Pair    | 0.018937   | 0.018937   | 0.018937   |   0.0 | 78.01
Neigh   | 0          | 0          | 0          |   0.0 |  0.00
Comm    | 0.000401   | 0.000401   | 0.000401   |   0.0 |  1.65
Output  | 0.000973   | 0.000973   | 0.000973   |   0.0 |  4.01
Modify  | 0          | 0          | 0          |   0.0 |  0.00
Other   |            | 0.003965   |            |       | 16.33

Nlocal:             96 ave          96 max          96 min
Histogram: 1 0 0 0 0 0 0 0 0 0
Nghost:           1310 ave        1310 max        1310 min
Histogram: 1 0 0 0 0 0 0 0 0 0
Neighs:           6144 ave        6144 max        6144 min
Histogram: 1 0 0 0 0 0 0 0 0 0

Total # of neighbors = 6144
Ave neighs/atom = 64
Neighbor list builds = 0
Dangerous builds = 0
Displacing atoms ...
System init for write_restart ...
OMP_NUM_THREADS environment is not set. Defaulting to 1 thread. (src/comm.cpp:98)
  using 1 OpenMP thread(s) per MPI task
Loaded 1 plugins from F:\Lammps\LAMMPS 64-bit 2Aug2023\plugins

The 'box' command has been removed and will be ignored

Reading restart file ...
  restart file = 2 Aug 2023, LAMMPS = 2 Aug 2023
  restoring atom style atomic from restart
  triclinic box = (0.025435542 0.066083476 0.10483816) to (6.3945645 16.613566 20.862794) with tilt (0 0 0)
  1 by 1 by 1 MPI processor grid
  pair style eam/alloy stores no restart info
  96 atoms
  read_restart CPU = 0.000 seconds
Changing box ...
  triclinic box = (0.025435542 0.066083476 0.10483816) to (6.3939275 16.613566 20.862794) with tilt (0 0 0)
  triclinic box = (0.025435542 0.066083476 0.10483816) to (6.3939275 16.613566 20.862794) with tilt (0 0 0)
  triclinic box = (0.025435542 0.066083476 0.10483816) to (6.3939275 16.613566 20.862794) with tilt (0 0 0)
Neighbor list info ...
  update: every = 1 steps, delay = 0 steps, check = yes
  max neighbors/atom: 2000, page size: 100000
  master list distance cutoff = 8.5
  ghost atom cutoff = 8.5
  1 neighbor lists, perpetual/occasional/extra = 1 0 0
  (1) pair eam/alloy, perpetual
      attributes: half, newton on
      pair build: half/nsq/newton
      stencil: none
      bin: none
Setting up cg style minimization ...
  Unit style    : metal
  Current step  : 100
Per MPI rank memory allocation (min/avg/max) = 4.467 | 4.467 | 4.467 Mbytes
   Step          Temp          PotEng         Press           Pxx            Pyy            Pzz            Pxy            Pxz            Pyz             Lx             Ly             Lz           Volume    
       100   0             -146.75338     -373.56825     -190.12947     -234.75666     -695.81863      0.017546882    7.728816e-06   0.0001217665   6.368492       16.547482      20.757956      2187.5255    
       101   0             -146.75338     -373.56061     -190.37825     -234.4881      -695.81547      0.011446495    3.08403e-06   -0.00012971298  6.368492       16.547482      20.757956      2187.5255    
       102   0             -146.75338     -373.54882     -190.75064     -234.08531     -695.81051      0.0023297928   2.82245e-07    7.8501293e-05  6.368492       16.547482      20.757956      2187.5255    
       103   0             -146.75338     -373.54631     -190.82803     -234.00149     -695.80939      0.0004440919   4.2192081e-07 -3.0407197e-05  6.368492       16.547482      20.757956      2187.5255    
       104   0             -146.75338     -373.54577     -190.84442     -233.98374     -695.80915      5.1879585e-05 -5.13612e-09    1.224888e-05   6.368492       16.547482      20.757956      2187.5255    
       105   0             -146.75338     -373.54567     -190.84748     -233.98043     -695.80911     -1.6167277e-05 -1.3890788e-08 -5.8944562e-06  6.368492       16.547482      20.757956      2187.5255    
       106   0             -146.75338     -373.54565     -190.84811     -233.97975     -695.8091      -2.4793553e-05  3.7426745e-09  6.6650611e-06  6.368492       16.547482      20.757956      2187.5255    
       107   0             -146.75338     -373.54566     -190.84796     -233.97991     -695.8091      -1.4127769e-05  7.6166526e-09 -9.6537136e-06  6.368492       16.547482      20.757956      2187.5255    
       108   0             -146.75338     -373.54567     -190.84746     -233.98045     -695.80911      6.3975177e-07  1.4768405e-08  7.9896324e-06  6.368492       16.547482      20.757956      2187.5255    
       109   0             -146.75338     -373.54568     -190.84716     -233.98078     -695.80911      6.2491254e-06  1.3652915e-08 -3.5292731e-06  6.368492       16.547482      20.757956      2187.5255    
       110   0             -146.75338     -373.54568     -190.84708     -233.98086     -695.80911      5.2600086e-06  1.0546446e-08  1.7109414e-06  6.368492       16.547482      20.757956      2187.5255    
       111   0             -146.75338     -373.54568     -190.84712     -233.98082     -695.80911      7.5550064e-07  3.6285395e-09 -1.3474711e-06  6.368492       16.547482      20.757956      2187.5255    
       112   0             -146.75338     -373.54568     -190.84719     -233.98074     -695.80911     -2.0478458e-06 -2.9838574e-11  1.2858732e-06  6.368492       16.547482      20.757956      2187.5255    
       113   0             -146.75338     -373.54568     -190.84725     -233.98068     -695.80911     -2.5908763e-06 -1.4953706e-09 -1.0636542e-06  6.368492       16.547482      20.757956      2187.5255    
       114   0             -146.75338     -373.54568     -190.84726     -233.98067     -695.80911     -1.4577567e-06 -1.3871157e-09  9.4095799e-07  6.368492       16.547482      20.757956      2187.5255    
       115   0             -146.75338     -373.54568     -190.84724     -233.98069     -695.80911      3.1758947e-07 -7.8643477e-10 -8.101741e-07   6.368492       16.547482      20.757956      2187.5255    
       116   0             -146.75338     -373.54568     -190.84721     -233.98073     -695.80911      1.5766813e-06 -1.1722106e-10  3.5943756e-07  6.368492       16.547482      20.757956      2187.5255    
       117   0             -146.75338     -373.54568     -190.84719     -233.98075     -695.80911      1.4181913e-06  1.1445764e-10 -1.8105654e-07  6.368492       16.547482      20.757956      2187.5255    
       118   0             -146.75338     -373.54568     -190.84719     -233.98074     -695.80911      4.9563495e-07  7.3942743e-11  1.3620861e-07  6.368492       16.547482      20.757956      2187.5255    
       119   0             -146.75338     -373.54568     -190.84721     -233.98072     -695.80911     -3.4589353e-07  3.7338557e-11 -9.3522014e-08  6.368492       16.547482      20.757956      2187.5255    
       120   0             -146.75338     -373.54568     -190.84721     -233.98072     -695.80911     -4.810816e-07   1.642805e-12   4.4056617e-08  6.368492       16.547482      20.757956      2187.5255    
       121   0             -146.75338     -373.54568     -190.84721     -233.98071     -695.80911     -2.9975287e-07 -9.2622185e-13 -2.5008189e-08  6.368492       16.547482      20.757956      2187.5255    
       122   0             -146.75338     -373.54568     -190.84721     -233.98072     -695.80911     -5.7741478e-08 -5.6106937e-12  8.0124378e-09  6.368492       16.547482      20.757956      2187.5255    
       123   0             -146.75338     -373.54568     -190.84721     -233.98072     -695.80911      7.8853825e-08 -7.4542436e-12 -3.9149981e-09  6.368492       16.547482      20.757956      2187.5255    
       124   0             -146.75338     -373.54568     -190.84721     -233.98072     -695.80911      8.9640681e-08  8.9318788e-13  1.0328193e-09  6.368492       16.547482      20.757956      2187.5255    
       125   0             -146.75338     -373.54568     -190.84721     -233.98072     -695.80911      3.548253e-08   8.8937626e-15 -6.7230429e-10  6.368492       16.547482      20.757956      2187.5255    
       126   0             -146.75338     -373.54568     -190.84721     -233.98072     -695.80911     -2.5359418e-08  4.4900796e-12  7.9979257e-10  6.368492       16.547482      20.757956      2187.5255    
       127   0             -146.75338     -373.54568     -190.84721     -233.98072     -695.80911     -6.6096691e-08 -9.277465e-12  -5.4025098e-10  6.368492       16.547482      20.757956      2187.5255    
       128   0             -146.75338     -373.54568     -190.84721     -233.98072     -695.80911     -5.2173985e-08  6.296784e-12   2.5683344e-10  6.368492       16.547482      20.757956      2187.5255    
       129   0             -146.75338     -373.54568     -190.84721     -233.98072     -695.80911     -2.3964404e-08 -1.8727723e-12 -9.0514364e-11  6.368492       16.547482      20.757956      2187.5255    
       130   0             -146.75338     -373.54568     -190.84721     -233.98072     -695.80911     -7.3569992e-09  8.480838e-12   4.7709954e-11  6.368492       16.547482      20.757956      2187.5255    
       131   0             -146.75338     -373.54568     -190.84721     -233.98072     -695.80911      3.887024e-09   1.8016222e-12 -2.8686196e-11  6.368492       16.547482      20.757956      2187.5255    
       132   0             -146.75338     -373.54568     -190.84721     -233.98072     -695.80911      5.2669244e-09 -8.0056569e-12  2.7125976e-12  6.368492       16.547482      20.757956      2187.5255    
       133   0             -146.75338     -373.54568     -190.84721     -233.98072     -695.80911      3.006013e-09  -2.0154537e-11 -7.6810346e-12  6.368492       16.547482      20.757956      2187.5255    
       134   0             -146.75338     -373.54568     -190.84721     -233.98072     -695.80911      7.4619685e-10 -8.7387571e-12  1.4411707e-11  6.368492       16.547482      20.757956      2187.5255    
       135   0             -146.75338     -373.54568     -190.84721     -233.98072     -695.80911     -3.9087833e-10 -2.420374e-12  -2.2788361e-11  6.368492       16.547482      20.757956      2187.5255    
Loop time of 0.014308 on 1 procs for 35 steps with 96 atoms

109.2% CPU use with 1 MPI tasks x 1 OpenMP threads

Minimization stats:
  Stopping criterion = force tolerance
  Energy initial, next-to-last, final = 
     -146.753379627713  -146.753379698625  -146.753379698625
  Force two-norm initial, final = 0.00060563617 9.813224e-11
  Force max component initial, final = 9.8256103e-05 1.6983151e-11
  Final line search alpha, max atom move = 1 1.6983151e-11
  Iterations, force evaluations = 35 70

MPI task timing breakdown:
Section |  min time  |  avg time  |  max time  |%varavg| %total
---------------------------------------------------------------
Pair    | 0.013451   | 0.013451   | 0.013451   |   0.0 | 94.01
Neigh   | 0          | 0          | 0          |   0.0 |  0.00
Comm    | 0.000275   | 0.000275   | 0.000275   |   0.0 |  1.92
Output  | 0.000416   | 0.000416   | 0.000416   |   0.0 |  2.91
Modify  | 0          | 0          | 0          |   0.0 |  0.00
Other   |            | 0.000166   |            |       |  1.16

Nlocal:             96 ave          96 max          96 min
Histogram: 1 0 0 0 0 0 0 0 0 0
Nghost:           1310 ave        1310 max        1310 min
Histogram: 1 0 0 0 0 0 0 0 0 0
Neighs:           6144 ave        6144 max        6144 min
Histogram: 1 0 0 0 0 0 0 0 0 0

Total # of neighbors = 6144
Ave neighs/atom = 64
Neighbor list builds = 0
Dangerous builds = 0
OMP_NUM_THREADS environment is not set. Defaulting to 1 thread. (src/comm.cpp:98)
  using 1 OpenMP thread(s) per MPI task
Loaded 1 plugins from F:\Lammps\LAMMPS 64-bit 2Aug2023\plugins

The 'box' command has been removed and will be ignored

Reading restart file ...
  restart file = 2 Aug 2023, LAMMPS = 2 Aug 2023
  restoring atom style atomic from restart
  triclinic box = (0.025435542 0.066083476 0.10483816) to (6.3945645 16.613566 20.862794) with tilt (0 0 0)
  1 by 1 by 1 MPI processor grid
  pair style eam/alloy stores no restart info
  96 atoms
  read_restart CPU = 0.000 seconds
Changing box ...
  triclinic box = (0.025435542 0.066083476 0.10483816) to (6.3952014 16.613566 20.862794) with tilt (0 0 0)
  triclinic box = (0.025435542 0.066083476 0.10483816) to (6.3952014 16.613566 20.862794) with tilt (0 0 0)
  triclinic box = (0.025435542 0.066083476 0.10483816) to (6.3952014 16.613566 20.862794) with tilt (0 0 0)
Neighbor list info ...
  update: every = 1 steps, delay = 0 steps, check = yes
  max neighbors/atom: 2000, page size: 100000
  master list distance cutoff = 8.5
  ghost atom cutoff = 8.5
  1 neighbor lists, perpetual/occasional/extra = 1 0 0
  (1) pair eam/alloy, perpetual
      attributes: half, newton on
      pair build: half/nsq/newton
      stencil: none
      bin: none
Setting up cg style minimization ...
  Unit style    : metal
  Current step  : 100
Per MPI rank memory allocation (min/avg/max) = 4.467 | 4.467 | 4.467 Mbytes
   Step          Temp          PotEng         Press           Pxx            Pyy            Pzz            Pxy            Pxz            Pyz             Lx             Ly             Lz           Volume    
       100   0             -146.75331     -447.50898     -329.68098     -285.32184     -727.52411      0.017909125   -3.1837901e-06  0.00015434856  6.3697658      16.547482      20.757956      2187.963     
       101   0             -146.75331     -447.51462     -329.42446     -285.59193     -727.52746      0.011697301   -2.7478013e-06 -0.00011971951  6.3697658      16.547482      20.757956      2187.963     
       102   0             -146.75331     -447.52173     -329.04064     -285.99331     -727.53122      0.0024106146   3.3890628e-07  4.2906492e-05  6.3697658      16.547482      20.757956      2187.963     
       103   0             -146.75331     -447.52301     -328.96136     -286.07587     -727.53181      0.00048613044  3.3949488e-07 -1.5715581e-05  6.3697658      16.547482      20.757956      2187.963     
       104   0             -146.75331     -447.52328     -328.94454     -286.09337     -727.53193      7.5659581e-05  1.5578491e-07  6.3723133e-06  6.3697658      16.547482      20.757956      2187.963     
       105   0             -146.75331     -447.52333     -328.9414      -286.09663     -727.53195     -2.5201234e-06  6.2635964e-08 -2.9244298e-06  6.3697658      16.547482      20.757956      2187.963     
       106   0             -146.75331     -447.52334     -328.94073     -286.09733     -727.53196     -2.0917242e-05  4.4420595e-08  3.3882725e-06  6.3697658      16.547482      20.757956      2187.963     
       107   0             -146.75331     -447.52334     -328.94086     -286.0972      -727.53196     -1.9981657e-05  5.6999192e-08 -4.8848165e-06  6.3697658      16.547482      20.757956      2187.963     
       108   0             -146.75331     -447.52333     -328.94135     -286.09668     -727.53195     -8.7069485e-06  3.2129921e-08  3.9961097e-06  6.3697658      16.547482      20.757956      2187.963     
       109   0             -146.75331     -447.52332     -328.94167     -286.09635     -727.53195     -5.1889802e-07  2.7656691e-08 -1.799223e-06   6.3697658      16.547482      20.757956      2187.963     
       110   0             -146.75331     -447.52332     -328.94176     -286.09626     -727.53195      2.5423531e-06  1.7863761e-08  8.6657618e-07  6.3697658      16.547482      20.757956      2187.963     
       111   0             -146.75331     -447.52332     -328.94173     -286.09629     -727.53195      2.9277939e-06  4.1172058e-09 -6.8641554e-07  6.3697658      16.547482      20.757956      2187.963     
       112   0             -146.75331     -447.52332     -328.94166     -286.09637     -727.53195      1.4784422e-06 -2.2111138e-09  6.6154627e-07  6.3697658      16.547482      20.757956      2187.963     
       113   0             -146.75331     -447.52332     -328.9416      -286.09643     -727.53195     -1.7100948e-07 -3.4025355e-09 -5.4000563e-07  6.3697658      16.547482      20.757956      2187.963     
       114   0             -146.75331     -447.52332     -328.94158     -286.09644     -727.53195     -9.3168782e-07 -2.4796085e-09  4.8523569e-07  6.3697658      16.547482      20.757956      2187.963     
       115   0             -146.75331     -447.52332     -328.9416      -286.09642     -727.53195     -9.3419317e-07 -6.9600989e-10 -4.115785e-07   6.3697658      16.547482      20.757956      2187.963     
       116   0             -146.75331     -447.52332     -328.94163     -286.09639     -727.53195     -4.0500256e-07  2.6325989e-10  1.8329266e-07  6.3697658      16.547482      20.757956      2187.963     
       117   0             -146.75331     -447.52332     -328.94165     -286.09637     -727.53195      3.1561948e-07  3.4075226e-10 -9.4602393e-08  6.3697658      16.547482      20.757956      2187.963     
       118   0             -146.75331     -447.52332     -328.94165     -286.09637     -727.53195      5.0894263e-07  1.9092868e-10  7.2586862e-08  6.3697658      16.547482      20.757956      2187.963     
       119   0             -146.75331     -447.52332     -328.94163     -286.09639     -727.53195      3.4362465e-07  4.817931e-11  -5.1833766e-08  6.3697658      16.547482      20.757956      2187.963     
       120   0             -146.75331     -447.52332     -328.94163     -286.0964      -727.53195      1.4835757e-07  2.5062692e-11  2.4281246e-08  6.3697658      16.547482      20.757956      2187.963     
       121   0             -146.75331     -447.52332     -328.94162     -286.0964      -727.53195      1.0411284e-08  9.8345344e-12 -1.343061e-08   6.3697658      16.547482      20.757956      2187.963     
       122   0             -146.75331     -447.52332     -328.94162     -286.0964      -727.53195     -6.3541572e-08  2.0718323e-12  4.1374459e-09  6.3697658      16.547482      20.757956      2187.963     
       123   0             -146.75331     -447.52332     -328.94163     -286.0964      -727.53195     -5.756548e-08   2.2509423e-12 -1.9081036e-09  6.3697658      16.547482      20.757956      2187.963     
       124   0             -146.75331     -447.52332     -328.94163     -286.0964      -727.53195     -3.3355407e-08 -6.6816909e-12  5.1664523e-10  6.3697658      16.547482      20.757956      2187.963     
       125   0             -146.75331     -447.52332     -328.94163     -286.0964      -727.53195     -2.5085786e-09 -3.845148e-12  -2.5768589e-10  6.3697658      16.547482      20.757956      2187.963     
       126   0             -146.75331     -447.52332     -328.94163     -286.09639     -727.53195      1.8646051e-08 -7.4425907e-12  2.8580425e-10  6.3697658      16.547482      20.757956      2187.963     
       127   0             -146.75331     -447.52332     -328.94163     -286.09639     -727.53195      2.7217428e-08  2.6104325e-12 -1.6368872e-10  6.3697658      16.547482      20.757956      2187.963     
       128   0             -146.75331     -447.52332     -328.94163     -286.0964      -727.53195      1.8674759e-08 -1.1432551e-12  6.2478256e-11  6.3697658      16.547482      20.757956      2187.963     
       129   0             -146.75331     -447.52332     -328.94163     -286.0964      -727.53195      6.9056266e-09  7.2723727e-12 -1.4673044e-11  6.3697658      16.547482      20.757956      2187.963     
       130   0             -146.75331     -447.52332     -328.94163     -286.0964      -727.53195      1.1734396e-09  3.1503029e-13 -1.5256739e-11  6.3697658      16.547482      20.757956      2187.963     
       131   0             -146.75331     -447.52332     -328.94163     -286.0964      -727.53195     -1.9790152e-09  6.1989832e-12  2.0172101e-11  6.3697658      16.547482      20.757956      2187.963     
       132   0             -146.75331     -447.52332     -328.94163     -286.0964      -727.53195     -2.0005897e-09 -3.6228484e-12  5.8877637e-13  6.3697658      16.547482      20.757956      2187.963     
       133   0             -146.75331     -447.52332     -328.94163     -286.0964      -727.53195     -9.6559071e-10 -3.970906e-12   2.1032083e-11  6.3697658      16.547482      20.757956      2187.963     
       134   0             -146.75331     -447.52332     -328.94163     -286.0964      -727.53195     -9.7697499e-11 -1.416366e-12  -1.8074863e-11  6.3697658      16.547482      20.757956      2187.963     
       135   0             -146.75331     -447.52332     -328.94163     -286.0964      -727.53195      2.6605833e-10  1.0726273e-11  1.6568942e-11  6.3697658      16.547482      20.757956      2187.963     
       136   0             -146.75331     -447.52332     -328.94163     -286.0964      -727.53195      2.6095179e-10  2.6142433e-12  2.7082443e-12  6.3697658      16.547482      20.757956      2187.963     
Loop time of 0.014036 on 1 procs for 36 steps with 96 atoms

111.3% CPU use with 1 MPI tasks x 1 OpenMP threads

Minimization stats:
  Stopping criterion = force tolerance
  Energy initial, next-to-last, final = 
       -146.7533086121  -146.753308683662  -146.753308683662
  Force two-norm initial, final = 0.00060641413 7.6565061e-11
  Force max component initial, final = 9.9439242e-05 1.2802728e-11
  Final line search alpha, max atom move = 1 1.2802728e-11
  Iterations, force evaluations = 36 72

MPI task timing breakdown:
Section |  min time  |  avg time  |  max time  |%varavg| %total
---------------------------------------------------------------
Pair    | 0.013232   | 0.013232   | 0.013232   |   0.0 | 94.27
Neigh   | 0          | 0          | 0          |   0.0 |  0.00
Comm    | 0.000266   | 0.000266   | 0.000266   |   0.0 |  1.90
Output  | 0.000351   | 0.000351   | 0.000351   |   0.0 |  2.50
Modify  | 0          | 0          | 0          |   0.0 |  0.00
Other   |            | 0.000187   |            |       |  1.33

Nlocal:             96 ave          96 max          96 min
Histogram: 1 0 0 0 0 0 0 0 0 0
Nghost:           1310 ave        1310 max        1310 min
Histogram: 1 0 0 0 0 0 0 0 0 0
Neighs:           6144 ave        6144 max        6144 min
Histogram: 1 0 0 0 0 0 0 0 0 0

Total # of neighbors = 6144
Ave neighs/atom = 64
Neighbor list builds = 0
Dangerous builds = 0
OMP_NUM_THREADS environment is not set. Defaulting to 1 thread. (src/comm.cpp:98)
  using 1 OpenMP thread(s) per MPI task
Loaded 1 plugins from F:\Lammps\LAMMPS 64-bit 2Aug2023\plugins

The 'box' command has been removed and will be ignored

Reading restart file ...
  restart file = 2 Aug 2023, LAMMPS = 2 Aug 2023
  restoring atom style atomic from restart
  triclinic box = (0.025435542 0.066083476 0.10483816) to (6.3945645 16.613566 20.862794) with tilt (0 0 0)
  1 by 1 by 1 MPI processor grid
  pair style eam/alloy stores no restart info
  96 atoms
  read_restart CPU = 0.000 seconds
Changing box ...
  triclinic box = (0.025435542 0.066083476 0.10483816) to (6.3945645 16.611911 20.862794) with tilt (0 0 0)
  triclinic box = (0.025435542 0.066083476 0.10483816) to (6.3945645 16.611911 20.862794) with tilt (0 0 0)
Neighbor list info ...
  update: every = 1 steps, delay = 0 steps, check = yes
  max neighbors/atom: 2000, page size: 100000
  master list distance cutoff = 8.5
  ghost atom cutoff = 8.5
  1 neighbor lists, perpetual/occasional/extra = 1 0 0
  (1) pair eam/alloy, perpetual
      attributes: half, newton on
      pair build: half/nsq/newton
      stencil: none
      bin: none
Setting up cg style minimization ...
  Unit style    : metal
  Current step  : 100
Per MPI rank memory allocation (min/avg/max) = 4.467 | 4.467 | 4.467 Mbytes
   Step          Temp          PotEng         Press           Pxx            Pyy            Pzz            Pxy            Pxz            Pyz             Lx             Ly             Lz           Volume    
       100   0             -146.75338     -373.5952      -234.76926     -190.1978      -695.81855      0.018260455    4.5950103e-06 -0.00013196513  6.3691289      16.545828      20.757956      2187.5255    
       101   0             -146.75338     -373.58791     -234.52154     -190.42666     -695.81553      0.012015999    2.7945424e-06  0.00012099018  6.3691289      16.545828      20.757956      2187.5255    
       102   0             -146.75338     -373.5765      -234.1463      -190.77247     -695.81073      0.0025831488   2.4823422e-07 -7.8284431e-05  6.3691289      16.545828      20.757956      2187.5255    
       103   0             -146.75338     -373.57399     -234.06553     -190.84682     -695.80962      0.0005414069   4.1451411e-07  3.0125526e-05  6.3691289      16.545828      20.757956      2187.5255    
       104   0             -146.75338     -373.57344     -234.04815     -190.8628      -695.80937      9.3702742e-05 -6.0102473e-09 -1.2367113e-05  6.3691289      16.545828      20.757956      2187.5255    
       105   0             -146.75338     -373.57334     -234.04488     -190.86581     -695.80933      4.0117039e-06 -1.4713955e-08  5.7114346e-06  6.3691289      16.545828      20.757956      2187.5255    
       106   0             -146.75338     -373.57332     -234.04419     -190.86645     -695.80932     -2.0879246e-05  3.0913512e-09 -6.6698768e-06  6.3691289      16.545828      20.757956      2187.5255    
       107   0             -146.75338     -373.57332     -234.04433     -190.86632     -695.80932     -2.4739878e-05  7.3973147e-09  9.2817897e-06  6.3691289      16.545828      20.757956      2187.5255    
       108   0             -146.75338     -373.57334     -234.04487     -190.86583     -695.80933     -1.4233255e-05  1.4866992e-08 -7.330139e-06   6.3691289      16.545828      20.757956      2187.5255    
       109   0             -146.75338     -373.57335     -234.0452      -190.86553     -695.80933     -4.0519444e-06  1.386903e-08   3.2311037e-06  6.3691289      16.545828      20.757956      2187.5255    
       110   0             -146.75338     -373.57335     -234.04529     -190.86545     -695.80933      1.3483922e-06  1.0709917e-08 -1.5736071e-06  6.3691289      16.545828      20.757956      2187.5255    
       111   0             -146.75338     -373.57335     -234.04525     -190.86548     -695.80933      4.2642497e-06  3.670128e-09   1.3030563e-06  6.3691289      16.545828      20.757956      2187.5255    
       112   0             -146.75338     -373.57335     -234.04517     -190.86555     -695.80933      3.3992345e-06 -4.6271706e-11 -1.2783712e-06  6.3691289      16.545828      20.757956      2187.5255    
       113   0             -146.75338     -373.57335     -234.04511     -190.8656      -695.80933      1.0441393e-06 -1.4949551e-09  1.0863552e-06  6.3691289      16.545828      20.757956      2187.5255    
       114   0             -146.75338     -373.57335     -234.0451      -190.86562     -695.80933     -7.6124827e-07 -1.4170534e-09 -1.0023416e-06  6.3691289      16.545828      20.757956      2187.5255    
       115   0             -146.75338     -373.57335     -234.04512     -190.8656      -695.80933     -1.6745949e-06 -8.0207128e-10  8.5817832e-07  6.3691289      16.545828      20.757956      2187.5255    
       116   0             -146.75338     -373.57335     -234.04515     -190.86557     -695.80933     -1.4536381e-06 -1.4715366e-10 -3.8388123e-07  6.3691289      16.545828      20.757956      2187.5255    
       117   0             -146.75338     -373.57335     -234.04517     -190.86555     -695.80933     -2.1623527e-07  1.0388677e-10  2.0864779e-07  6.3691289      16.545828      20.757956      2187.5255    
       118   0             -146.75338     -373.57335     -234.04517     -190.86555     -695.80933      5.6634528e-07  7.6255121e-11 -1.6612585e-07  6.3691289      16.545828      20.757956      2187.5255    
       119   0             -146.75338     -373.57335     -234.04515     -190.86557     -695.80933      7.3254978e-07  4.4264257e-11  1.2014807e-07  6.3691289      16.545828      20.757956      2187.5255    
       120   0             -146.75338     -373.57335     -234.04515     -190.86557     -695.80933      4.9306608e-07  2.2208996e-12 -5.4793265e-08  6.3691289      16.545828      20.757956      2187.5255    
       121   0             -146.75338     -373.57335     -234.04514     -190.86558     -695.80933      1.7629702e-07 -6.0159952e-12  2.9372242e-08  6.3691289      16.545828      20.757956      2187.5255    
       122   0             -146.75338     -373.57335     -234.04514     -190.86558     -695.80933     -7.4893839e-08 -4.6412736e-12 -9.1070116e-09  6.3691289      16.545828      20.757956      2187.5255    
       123   0             -146.75338     -373.57335     -234.04515     -190.86557     -695.80933     -1.3592213e-07  2.2666389e-12  4.4474543e-09  6.3691289      16.545828      20.757956      2187.5255    
       124   0             -146.75338     -373.57335     -234.04515     -190.86557     -695.80933     -1.0058766e-07  1.1128638e-11 -1.3247361e-09  6.3691289      16.545828      20.757956      2187.5255    
       125   0             -146.75338     -373.57335     -234.04515     -190.86557     -695.80933     -1.9912916e-08  1.3975913e-12  9.6726593e-10  6.3691289      16.545828      20.757956      2187.5255    
       126   0             -146.75338     -373.57335     -234.04515     -190.86557     -695.80933      4.7198591e-08 -2.065894e-12  -1.0726723e-09  6.3691289      16.545828      20.757956      2187.5255    
       127   0             -146.75338     -373.57335     -234.04515     -190.86557     -695.80933      8.2356572e-08 -3.1178991e-12  6.4439948e-10  6.3691289      16.545828      20.757956      2187.5255    
       128   0             -146.75338     -373.57335     -234.04515     -190.86557     -695.80933      6.0161121e-08  1.3569341e-12 -2.7835825e-10  6.3691289      16.545828      20.757956      2187.5255    
       129   0             -146.75338     -373.57335     -234.04515     -190.86557     -695.80933      2.436772e-08   9.8441247e-12  9.4183676e-11  6.3691289      16.545828      20.757956      2187.5255    
       130   0             -146.75338     -373.57335     -234.04515     -190.86557     -695.80933      5.9473404e-09 -1.8371973e-12 -1.0862461e-11  6.3691289      16.545828      20.757956      2187.5255    
       131   0             -146.75338     -373.57335     -234.04515     -190.86557     -695.80933     -5.1969e-09    -1.2563075e-11  1.1923995e-12  6.3691289      16.545828      20.757956      2187.5255    
       132   0             -146.75338     -373.57335     -234.04515     -190.86557     -695.80933     -5.9261529e-09  2.4521374e-13  6.8723375e-12  6.3691289      16.545828      20.757956      2187.5255    
       133   0             -146.75338     -373.57335     -234.04515     -190.86557     -695.80933     -3.0611111e-09  1.7266605e-12  6.864079e-12   6.3691289      16.545828      20.757956      2187.5255    
       134   0             -146.75338     -373.57335     -234.04515     -190.86557     -695.80933     -5.1202916e-10 -9.1338942e-12  1.0238627e-11  6.3691289      16.545828      20.757956      2187.5255    
       135   0             -146.75338     -373.57335     -234.04515     -190.86557     -695.80933      6.2132588e-10  7.7502789e-13  8.4160405e-12  6.3691289      16.545828      20.757956      2187.5255    
Loop time of 0.014044 on 1 procs for 35 steps with 96 atoms

0.0% CPU use with 1 MPI tasks x 1 OpenMP threads

Minimization stats:
  Stopping criterion = force tolerance
  Energy initial, next-to-last, final = 
     -146.753379629561  -146.753379697589   -146.75337969759
  Force two-norm initial, final = 0.00059878495 9.9537293e-11
  Force max component initial, final = 9.828965e-05 1.9325229e-11
  Final line search alpha, max atom move = 1 1.9325229e-11
  Iterations, force evaluations = 35 70

MPI task timing breakdown:
Section |  min time  |  avg time  |  max time  |%varavg| %total
---------------------------------------------------------------
Pair    | 0.013239   | 0.013239   | 0.013239   |   0.0 | 94.27
Neigh   | 0          | 0          | 0          |   0.0 |  0.00
Comm    | 0.000258   | 0.000258   | 0.000258   |   0.0 |  1.84
Output  | 0.000367   | 0.000367   | 0.000367   |   0.0 |  2.61
Modify  | 0          | 0          | 0          |   0.0 |  0.00
Other   |            | 0.00018    |            |       |  1.28

Nlocal:             96 ave          96 max          96 min
Histogram: 1 0 0 0 0 0 0 0 0 0
Nghost:           1310 ave        1310 max        1310 min
Histogram: 1 0 0 0 0 0 0 0 0 0
Neighs:           6144 ave        6144 max        6144 min
Histogram: 1 0 0 0 0 0 0 0 0 0

Total # of neighbors = 6144
Ave neighs/atom = 64
Neighbor list builds = 0
Dangerous builds = 0
OMP_NUM_THREADS environment is not set. Defaulting to 1 thread. (src/comm.cpp:98)
  using 1 OpenMP thread(s) per MPI task
Loaded 1 plugins from F:\Lammps\LAMMPS 64-bit 2Aug2023\plugins

The 'box' command has been removed and will be ignored

Reading restart file ...
  restart file = 2 Aug 2023, LAMMPS = 2 Aug 2023
  restoring atom style atomic from restart
  triclinic box = (0.025435542 0.066083476 0.10483816) to (6.3945645 16.613566 20.862794) with tilt (0 0 0)
  1 by 1 by 1 MPI processor grid
  pair style eam/alloy stores no restart info
  96 atoms
  read_restart CPU = 0.000 seconds
Changing box ...
  triclinic box = (0.025435542 0.066083476 0.10483816) to (6.3945645 16.615221 20.862794) with tilt (0 0 0)
  triclinic box = (0.025435542 0.066083476 0.10483816) to (6.3945645 16.615221 20.862794) with tilt (0 0 0)
Neighbor list info ...
  update: every = 1 steps, delay = 0 steps, check = yes
  max neighbors/atom: 2000, page size: 100000
  master list distance cutoff = 8.5
  ghost atom cutoff = 8.5
  1 neighbor lists, perpetual/occasional/extra = 1 0 0
  (1) pair eam/alloy, perpetual
      attributes: half, newton on
      pair build: half/nsq/newton
      stencil: none
      bin: none
Setting up cg style minimization ...
  Unit style    : metal
  Current step  : 100
Per MPI rank memory allocation (min/avg/max) = 4.467 | 4.467 | 4.467 Mbytes
   Step          Temp          PotEng         Press           Pxx            Pyy            Pzz            Pxy            Pxz            Pyz             Lx             Ly             Lz           Volume    
       100   0             -146.75331     -447.52447     -285.40834     -329.64087     -727.52419      0.01844571    -1.5254294e-06 -0.00018941867  6.3691289      16.549137      20.757956      2187.963     
       101   0             -146.75331     -447.53137     -285.66957     -329.39626     -727.52827      0.012063435   -8.9982391e-07  0.00016325989  6.3691289      16.549137      20.757956      2187.963     
       102   0             -146.75331     -447.54176     -286.06122     -329.02995     -727.5341       0.002500466   -6.370631e-07  -8.3670105e-05  6.3691289      16.549137      20.757956      2187.963     
       103   0             -146.75331     -447.54391     -286.1428      -328.95369     -727.53523      0.00050696114 -1.1202012e-08  3.1340651e-05  6.3691289      16.549137      20.757956      2187.963     
       104   0             -146.75331     -447.54437     -286.16022     -328.93742     -727.53547      7.9542587e-05 -4.4056097e-10 -1.2287844e-05  6.3691289      16.549137      20.757956      2187.963     
       105   0             -146.75331     -447.54446     -286.16348     -328.93437     -727.53551     -2.1230897e-06 -1.1588483e-08  5.8709122e-06  6.3691289      16.549137      20.757956      2187.963     
       106   0             -146.75331     -447.54447     -286.1642      -328.93371     -727.53552     -2.1591793e-05 -5.8051953e-09 -6.5812921e-06  6.3691289      16.549137      20.757956      2187.963     
       107   0             -146.75331     -447.54447     -286.16408     -328.93381     -727.53552     -2.099437e-05   1.1732222e-08  9.4216065e-06  6.3691289      16.549137      20.757956      2187.963     
       108   0             -146.75331     -447.54446     -286.16358     -328.93429     -727.53551     -9.4286731e-06  1.2729687e-08 -7.6355512e-06  6.3691289      16.549137      20.757956      2187.963     
       109   0             -146.75331     -447.54445     -286.16324     -328.93459     -727.53551     -8.255843e-07   1.3580871e-08  3.3750541e-06  6.3691289      16.549137      20.757956      2187.963     
       110   0             -146.75331     -447.54445     -286.16314     -328.93469     -727.53551      2.5073322e-06  9.4796083e-09 -1.6507356e-06  6.3691289      16.549137      20.757956      2187.963     
       111   0             -146.75331     -447.54445     -286.16317     -328.93467     -727.53551      3.1102477e-06  2.4065355e-09  1.3221454e-06  6.3691289      16.549137      20.757956      2187.963     
       112   0             -146.75331     -447.54445     -286.16324     -328.9346      -727.53551      1.6672357e-06 -9.6416927e-10 -1.2867834e-06  6.3691289      16.549137      20.757956      2187.963     
       113   0             -146.75331     -447.54445     -286.1633      -328.93454     -727.53551     -7.8793835e-08 -1.8746957e-09  1.0839197e-06  6.3691289      16.549137      20.757956      2187.963     
       114   0             -146.75331     -447.54445     -286.16332     -328.93452     -727.53551     -9.4573362e-07 -1.3614161e-09 -9.8673137e-07  6.3691289      16.549137      20.757956      2187.963     
       115   0             -146.75331     -447.54445     -286.16331     -328.93454     -727.53551     -1.0222742e-06 -5.3376548e-10  8.5237223e-07  6.3691289      16.549137      20.757956      2187.963     
       116   0             -146.75331     -447.54445     -286.16328     -328.93456     -727.53551     -5.0254717e-07  4.6868378e-11 -3.8389578e-07  6.3691289      16.549137      20.757956      2187.963     
       117   0             -146.75331     -447.54445     -286.16325     -328.93459     -727.53551      2.7837135e-07  1.4209264e-10  1.98028e-07    6.3691289      16.549137      20.757956      2187.963     
       118   0             -146.75331     -447.54445     -286.16325     -328.93459     -727.53551      5.2340584e-07  8.5586617e-11 -1.562282e-07   6.3691289      16.549137      20.757956      2187.963     
       119   0             -146.75331     -447.54445     -286.16327     -328.93457     -727.53551      3.8285968e-07  2.043505e-11   1.1276649e-07  6.3691289      16.549137      20.757956      2187.963     
       120   0             -146.75331     -447.54445     -286.16327     -328.93457     -727.53551      1.8144428e-07  7.8097026e-12 -5.2269047e-08  6.3691289      16.549137      20.757956      2187.963     
       121   0             -146.75331     -447.54445     -286.16328     -328.93456     -727.53551      2.55717e-08   -3.8210126e-12  2.873686e-08   6.3691289      16.549137      20.757956      2187.963     
       122   0             -146.75331     -447.54445     -286.16328     -328.93456     -727.53551     -6.445207e-08   4.6746431e-12 -8.8089272e-09  6.3691289      16.549137      20.757956      2187.963     
       123   0             -146.75331     -447.54445     -286.16328     -328.93456     -727.53551     -6.4744586e-08  7.6026464e-12  4.2118254e-09  6.3691289      16.549137      20.757956      2187.963     
       124   0             -146.75331     -447.54445     -286.16328     -328.93457     -727.53551     -3.9637299e-08 -4.1373132e-12 -1.1653155e-09  6.3691289      16.549137      20.757956      2187.963     
       125   0             -146.75331     -447.54445     -286.16327     -328.93457     -727.53551     -3.825926e-09   2.5951891e-12  6.8200883e-10  6.3691289      16.549137      20.757956      2187.963     
       126   0             -146.75331     -447.54445     -286.16327     -328.93457     -727.53551      2.1430383e-08 -1.2004178e-12 -8.0262669e-10  6.3691289      16.549137      20.757956      2187.963     
       127   0             -146.75331     -447.54445     -286.16327     -328.93457     -727.53551      3.2420156e-08  2.9318142e-12  4.4521466e-10  6.3691289      16.549137      20.757956      2187.963     
       128   0             -146.75331     -447.54445     -286.16327     -328.93457     -727.53551      2.2532963e-08  9.6808301e-12 -1.993875e-10   6.3691289      16.549137      20.757956      2187.963     
       129   0             -146.75331     -447.54445     -286.16327     -328.93457     -727.53551      8.6233598e-09 -1.3337976e-13  4.6512063e-11  6.3691289      16.549137      20.757956      2187.963     
       130   0             -146.75331     -447.54445     -286.16327     -328.93457     -727.53551      1.7099844e-09 -7.5340511e-12  1.4441852e-11  6.3691289      16.549137      20.757956      2187.963     
       131   0             -146.75331     -447.54445     -286.16327     -328.93457     -727.53551     -2.1728274e-09 -1.2602482e-11 -2.9838323e-11  6.3691289      16.549137      20.757956      2187.963     
       132   0             -146.75331     -447.54445     -286.16327     -328.93457     -727.53551     -2.3073505e-09 -8.6760359e-13  3.2474161e-11  6.3691289      16.549137      20.757956      2187.963     
       133   0             -146.75331     -447.54445     -286.16327     -328.93457     -727.53551     -1.1358316e-09  5.1065394e-13 -5.2230244e-11  6.3691289      16.549137      20.757956      2187.963     
       134   0             -146.75331     -447.54445     -286.16327     -328.93457     -727.53551     -9.1620463e-11  3.7320927e-12  4.920951e-11   6.3691289      16.549137      20.757956      2187.963     
       135   0             -146.75331     -447.54445     -286.16327     -328.93457     -727.53551      3.5491719e-10 -6.2447134e-12 -4.6359629e-11  6.3691289      16.549137      20.757956      2187.963     
       136   0             -146.75331     -447.54445     -286.16327     -328.93457     -727.53551      3.5077099e-10  3.7981475e-13  4.752829e-11   6.3691289      16.549137      20.757956      2187.963     
       137   0             -146.75331     -447.54445     -286.16327     -328.93457     -727.53551      1.4684477e-10  8.4550066e-12 -2.5215761e-11  6.3691289      16.549137      20.757956      2187.963     
Loop time of 0.01392 on 1 procs for 37 steps with 96 atoms

112.2% CPU use with 1 MPI tasks x 1 OpenMP threads

Minimization stats:
  Stopping criterion = force tolerance
  Energy initial, next-to-last, final = 
     -146.753308614832  -146.753308685689  -146.753308685688
  Force two-norm initial, final = 0.00060482735 7.6835635e-11
  Force max component initial, final = 9.814208e-05 1.2829876e-11
  Final line search alpha, max atom move = 1 1.2829876e-11
  Iterations, force evaluations = 37 74

MPI task timing breakdown:
Section |  min time  |  avg time  |  max time  |%varavg| %total
---------------------------------------------------------------
Pair    | 0.013152   | 0.013152   | 0.013152   |   0.0 | 94.48
Neigh   | 0          | 0          | 0          |   0.0 |  0.00
Comm    | 0.000275   | 0.000275   | 0.000275   |   0.0 |  1.98
Output  | 0.000332   | 0.000332   | 0.000332   |   0.0 |  2.39
Modify  | 0          | 0          | 0          |   0.0 |  0.00
Other   |            | 0.000161   |            |       |  1.16

Nlocal:             96 ave          96 max          96 min
Histogram: 1 0 0 0 0 0 0 0 0 0
Nghost:           1310 ave        1310 max        1310 min
Histogram: 1 0 0 0 0 0 0 0 0 0
Neighs:           6144 ave        6144 max        6144 min
Histogram: 1 0 0 0 0 0 0 0 0 0

Total # of neighbors = 6144
Ave neighs/atom = 64
Neighbor list builds = 0
Dangerous builds = 0
OMP_NUM_THREADS environment is not set. Defaulting to 1 thread. (src/comm.cpp:98)
  using 1 OpenMP thread(s) per MPI task
Loaded 1 plugins from F:\Lammps\LAMMPS 64-bit 2Aug2023\plugins

The 'box' command has been removed and will be ignored

Reading restart file ...
  restart file = 2 Aug 2023, LAMMPS = 2 Aug 2023
  restoring atom style atomic from restart
  triclinic box = (0.025435542 0.066083476 0.10483816) to (6.3945645 16.613566 20.862794) with tilt (0 0 0)
  1 by 1 by 1 MPI processor grid
  pair style eam/alloy stores no restart info
  96 atoms
  read_restart CPU = 0.000 seconds
Changing box ...
  triclinic box = (0.025435542 0.066083476 0.10483816) to (6.3945645 16.613566 20.860718) with tilt (0 0 0)
Neighbor list info ...
  update: every = 1 steps, delay = 0 steps, check = yes
  max neighbors/atom: 2000, page size: 100000
  master list distance cutoff = 8.5
  ghost atom cutoff = 8.5
  1 neighbor lists, perpetual/occasional/extra = 1 0 0
  (1) pair eam/alloy, perpetual
      attributes: half, newton on
      pair build: half/nsq/newton
      stencil: none
      bin: none
Setting up cg style minimization ...
  Unit style    : metal
  Current step  : 100
Per MPI rank memory allocation (min/avg/max) = 4.467 | 4.467 | 4.467 Mbytes
   Step          Temp          PotEng         Press           Pxx            Pyy            Pzz            Pxy            Pxz            Pyz             Lx             Ly             Lz           Volume    
       100   0             -146.75344     -377.19339     -244.24282     -244.24927     -643.08808      0.018332679   -3.9031357e-06  2.98149e-06    6.3691289      16.547482      20.75588       2187.5255    
       101   0             -146.75344     -377.19348     -244.24365     -244.24853     -643.08826      0.013965184   -1.0922557e-06 -9.6962908e-07  6.3691289      16.547482      20.75588       2187.5255    
       102   0             -146.75344     -377.1935      -244.24467     -244.24754     -643.0883       0.0082261596  -8.0798596e-08 -4.327051e-07   6.3691289      16.547482      20.75588       2187.5255    
       103   0             -146.75344     -377.19351     -244.24533     -244.24688     -643.0883       0.004433484    1.1826082e-07 -3.502918e-07   6.3691289      16.547482      20.75588       2187.5255    
       104   0             -146.75344     -377.19351     -244.24583     -244.24639     -643.08831      0.0016067675  -4.7254673e-08 -1.1907531e-07  6.3691289      16.547482      20.75588       2187.5255    
       105   0             -146.75344     -377.19351     -244.24615     -244.24607     -643.08831     -0.00024015557 -4.2649974e-08 -1.5537784e-08  6.3691289      16.547482      20.75588       2187.5255    
       106   0             -146.75344     -377.19351     -244.24628     -244.24594     -643.08831     -0.00097182829 -4.4891121e-08  3.3080405e-08  6.3691289      16.547482      20.75588       2187.5255    
       107   0             -146.75344     -377.19351     -244.24625     -244.24597     -643.08831     -0.00082576053 -5.6345471e-08  3.07519e-08    6.3691289      16.547482      20.75588       2187.5255    
       108   0             -146.75344     -377.19351     -244.24617     -244.24605     -643.08831     -0.00033814346 -3.7527345e-08  1.5901424e-08  6.3691289      16.547482      20.75588       2187.5255    
       109   0             -146.75344     -377.19351     -244.2461      -244.24612     -643.08831      8.25002e-05   -2.1901937e-08  1.9707295e-09  6.3691289      16.547482      20.75588       2187.5255    
       110   0             -146.75344     -377.19351     -244.24607     -244.24615     -643.08831      0.00022560165 -1.0733418e-08 -3.6619788e-09  6.3691289      16.547482      20.75588       2187.5255    
       111   0             -146.75344     -377.19351     -244.24608     -244.24614     -643.08831      0.00016654683 -1.4531747e-09 -4.1487376e-09  6.3691289      16.547482      20.75588       2187.5255    
       112   0             -146.75344     -377.19351     -244.2461      -244.24612     -643.08831      4.5353704e-05  1.9638025e-09 -2.8961229e-09  6.3691289      16.547482      20.75588       2187.5255    
       113   0             -146.75344     -377.19351     -244.24612     -244.2461      -643.08831     -6.9673379e-05  2.4571891e-09 -8.2998308e-10  6.3691289      16.547482      20.75588       2187.5255    
       114   0             -146.75344     -377.19351     -244.24613     -244.24609     -643.08831     -9.6142088e-05  1.6995066e-09  3.7794553e-10  6.3691289      16.547482      20.75588       2187.5255    
       115   0             -146.75344     -377.19351     -244.24612     -244.2461      -643.08831     -5.8270564e-05  5.9764814e-10  6.5446341e-10  6.3691289      16.547482      20.75588       2187.5255    
       116   0             -146.75344     -377.19351     -244.24611     -244.24611     -643.08831      1.0447761e-05 -1.7584493e-10  4.2532514e-10  6.3691289      16.547482      20.75588       2187.5255    
       117   0             -146.75344     -377.19351     -244.2461      -244.24612     -643.08831      6.9740475e-05 -2.3446372e-10  7.6313566e-11  6.3691289      16.547482      20.75588       2187.5255    
       118   0             -146.75344     -377.19351     -244.2461      -244.24612     -643.08831      5.9080565e-05 -1.1657182e-10  1.642678e-11   6.3691289      16.547482      20.75588       2187.5255    
       119   0             -146.75344     -377.19351     -244.24611     -244.24611     -643.08831      2.2162413e-05 -2.7626568e-11  1.4288465e-11  6.3691289      16.547482      20.75588       2187.5255    
       120   0             -146.75344     -377.19351     -244.24611     -244.24611     -643.08831     -2.5417507e-06 -1.6773636e-11 -2.1059159e-12  6.3691289      16.547482      20.75588       2187.5255    
       121   0             -146.75344     -377.19351     -244.24611     -244.24611     -643.08831     -1.150935e-05   6.6182299e-12 -1.3010939e-11  6.3691289      16.547482      20.75588       2187.5255    
       122   0             -146.75344     -377.19351     -244.24611     -244.24611     -643.08831     -1.0368691e-05  2.5664858e-12  2.1421263e-11  6.3691289      16.547482      20.75588       2187.5255    
       123   0             -146.75344     -377.19351     -244.24611     -244.24611     -643.08831     -4.3266026e-06  6.8469267e-12 -2.4457847e-12  6.3691289      16.547482      20.75588       2187.5255    
       124   0             -146.75344     -377.19351     -244.24611     -244.24611     -643.08831     -5.849374e-07   7.2547692e-12  8.5646934e-12  6.3691289      16.547482      20.75588       2187.5255    
       125   0             -146.75344     -377.19351     -244.24611     -244.24611     -643.08831      1.6441566e-06 -3.8903859e-12  1.2054225e-11  6.3691289      16.547482      20.75588       2187.5255    
       126   0             -146.75344     -377.19351     -244.24611     -244.24611     -643.08831      1.9781089e-06  3.5308238e-12  8.424299e-12   6.3691289      16.547482      20.75588       2187.5255    
       127   0             -146.75344     -377.19351     -244.24611     -244.24611     -643.08831      1.0939457e-06 -1.2184455e-11 -3.7614263e-12  6.3691289      16.547482      20.75588       2187.5255    
       128   0             -146.75344     -377.19351     -244.24611     -244.24611     -643.08831      2.9478761e-07 -2.4648428e-13  7.8487455e-12  6.3691289      16.547482      20.75588       2187.5255    
       129   0             -146.75344     -377.19351     -244.24611     -244.24611     -643.08831     -1.817031e-07  -6.9879564e-14 -2.4009983e-11  6.3691289      16.547482      20.75588       2187.5255    
       130   0             -146.75344     -377.19351     -244.24611     -244.24611     -643.08831     -2.1975836e-07  1.0025812e-11  7.5380991e-12  6.3691289      16.547482      20.75588       2187.5255    
       131   0             -146.75344     -377.19351     -244.24611     -244.24611     -643.08831     -1.1951963e-07 -7.8531924e-12 -7.5285701e-12  6.3691289      16.547482      20.75588       2187.5255    
       132   0             -146.75344     -377.19351     -244.24611     -244.24611     -643.08831     -3.5795824e-08  5.450606e-12   1.5787699e-11  6.3691289      16.547482      20.75588       2187.5255    
       133   0             -146.75344     -377.19351     -244.24611     -244.24611     -643.08831      1.4668376e-08  2.928589e-12  -2.0533792e-11  6.3691289      16.547482      20.75588       2187.5255    
       134   0             -146.75344     -377.19351     -244.24611     -244.24611     -643.08831      2.5559553e-08  6.5267512e-12 -8.2648466e-13  6.3691289      16.547482      20.75588       2187.5255    
       135   0             -146.75344     -377.19351     -244.24611     -244.24611     -643.08831      1.7677255e-08 -3.1217107e-12  1.846091e-11   6.3691289      16.547482      20.75588       2187.5255    
Loop time of 0.013345 on 1 procs for 35 steps with 96 atoms

117.1% CPU use with 1 MPI tasks x 1 OpenMP threads

Minimization stats:
  Stopping criterion = force tolerance
  Energy initial, next-to-last, final = 
     -146.753441370234  -146.753441390449  -146.753441390448
  Force two-norm initial, final = 0.00046503684 8.7935913e-11
  Force max component initial, final = 7.1639398e-05 1.9077455e-11
  Final line search alpha, max atom move = 1 1.9077455e-11
  Iterations, force evaluations = 35 70

MPI task timing breakdown:
Section |  min time  |  avg time  |  max time  |%varavg| %total
---------------------------------------------------------------
Pair    | 0.012609   | 0.012609   | 0.012609   |   0.0 | 94.48
Neigh   | 0          | 0          | 0          |   0.0 |  0.00
Comm    | 0.000246   | 0.000246   | 0.000246   |   0.0 |  1.84
Output  | 0.00032    | 0.00032    | 0.00032    |   0.0 |  2.40
Modify  | 0          | 0          | 0          |   0.0 |  0.00
Other   |            | 0.00017    |            |       |  1.27

Nlocal:             96 ave          96 max          96 min
Histogram: 1 0 0 0 0 0 0 0 0 0
Nghost:           1310 ave        1310 max        1310 min
Histogram: 1 0 0 0 0 0 0 0 0 0
Neighs:           6144 ave        6144 max        6144 min
Histogram: 1 0 0 0 0 0 0 0 0 0

Total # of neighbors = 6144
Ave neighs/atom = 64
Neighbor list builds = 0
Dangerous builds = 0
OMP_NUM_THREADS environment is not set. Defaulting to 1 thread. (src/comm.cpp:98)
  using 1 OpenMP thread(s) per MPI task
Loaded 1 plugins from F:\Lammps\LAMMPS 64-bit 2Aug2023\plugins

The 'box' command has been removed and will be ignored

Reading restart file ...
  restart file = 2 Aug 2023, LAMMPS = 2 Aug 2023
  restoring atom style atomic from restart
  triclinic box = (0.025435542 0.066083476 0.10483816) to (6.3945645 16.613566 20.862794) with tilt (0 0 0)
  1 by 1 by 1 MPI processor grid
  pair style eam/alloy stores no restart info
  96 atoms
  read_restart CPU = 0.000 seconds
Changing box ...
  triclinic box = (0.025435542 0.066083476 0.10483816) to (6.3945645 16.613566 20.86487) with tilt (0 0 0)
Neighbor list info ...
  update: every = 1 steps, delay = 0 steps, check = yes
  max neighbors/atom: 2000, page size: 100000
  master list distance cutoff = 8.5
  ghost atom cutoff = 8.5
  1 neighbor lists, perpetual/occasional/extra = 1 0 0
  (1) pair eam/alloy, perpetual
      attributes: half, newton on
      pair build: half/nsq/newton
      stencil: none
      bin: none
Setting up cg style minimization ...
  Unit style    : metal
  Current step  : 100
Per MPI rank memory allocation (min/avg/max) = 4.467 | 4.467 | 4.467 Mbytes
   Step          Temp          PotEng         Press           Pxx            Pyy            Pzz            Pxy            Pxz            Pyz             Lx             Ly             Lz           Volume    
       100   0             -146.75325     -444.40648     -276.08763     -276.09416     -781.03764      0.018475508   -1.1178109e-06 -1.9971506e-06  6.3691289      16.547482      20.760032      2187.963     
       101   0             -146.75325     -444.40647     -276.08839     -276.09333     -781.03769      0.014094864   -8.529272e-08   3.6558988e-07  6.3691289      16.547482      20.760032      2187.963     
       102   0             -146.75325     -444.40646     -276.08941     -276.09232     -781.03765      0.0083419343  -2.968065e-08   4.7867894e-07  6.3691289      16.547482      20.760032      2187.963     
       103   0             -146.75325     -444.40646     -276.09007     -276.09166     -781.03765      0.0045304516  -1.2188344e-07  3.5945763e-07  6.3691289      16.547482      20.760032      2187.963     
       104   0             -146.75325     -444.40646     -276.09057     -276.09116     -781.03765      0.0016659847   1.8457823e-08  1.5032412e-07  6.3691289      16.547482      20.760032      2187.963     
       105   0             -146.75325     -444.40646     -276.0909      -276.09083     -781.03765     -0.00021798489  3.2909469e-08  3.5488711e-08  6.3691289      16.547482      20.760032      2187.963     
       106   0             -146.75325     -444.40646     -276.09104     -276.09069     -781.03765     -0.0009824182   3.8985845e-08 -2.3880276e-08  6.3691289      16.547482      20.760032      2187.963     
       107   0             -146.75325     -444.40646     -276.09101     -276.09072     -781.03765     -0.0008471135   4.5607254e-08 -3.0692581e-08  6.3691289      16.547482      20.760032      2187.963     
       108   0             -146.75325     -444.40646     -276.09093     -276.0908      -781.03765     -0.00035464697  3.0677514e-08 -1.6904179e-08  6.3691289      16.547482      20.760032      2187.963     
[...]
       106   0             -146.75335     -410.59248     -260.0046      -260.10882     -711.66401      21.36561       1.3127345e-06  1.8123042e-06  6.3691289      16.547482      20.757956      2187.7442    
       107   0             -146.75335     -410.59248     -260.00443     -260.109       -711.66401      21.365717     -1.8889815e-06 -2.5856011e-06  6.3691289      16.547482      20.757956      2187.7442    
       108   0             -146.75335     -410.59248     -260.00437     -260.10906     -711.66401      21.3662        1.5960938e-06  2.0946382e-06  6.3691289      16.547482      20.757956      2187.7442    
       109   0             -146.75335     -410.59249     -260.00442     -260.10902     -711.66401      21.366515     -6.4292399e-07 -9.1798403e-07  6.3691289      16.547482      20.757956      2187.7442    
       110   0             -146.75335     -410.59249     -260.0045      -260.10895     -711.66401      21.36661       3.5771916e-07  4.5425727e-07  6.3691289      16.547482      20.757956      2187.7442    
       111   0             -146.75335     -410.59249     -260.00458     -260.10886     -711.66401      21.366592     -2.6730135e-07 -3.6221246e-07  6.3691289      16.547482      20.757956      2187.7442    
       112   0             -146.75335     -410.59248     -260.00461     -260.10884     -711.66401      21.366523      2.5268724e-07  3.5081735e-07  6.3691289      16.547482      20.757956      2187.7442    
       113   0             -146.75335     -410.59248     -260.00459     -260.10885     -711.66401      21.366464     -2.2337579e-07 -2.9240166e-07  6.3691289      16.547482      20.757956      2187.7442    
       114   0             -146.75335     -410.59248     -260.00455     -260.10889     -711.66401      21.366446      1.8854779e-07  2.5965304e-07  6.3691289      16.547482      20.757956      2187.7442    
       115   0             -146.75335     -410.59248     -260.00452     -260.10892     -711.66401      21.366458     -1.6218364e-07 -2.1843275e-07  6.3691289      16.547482      20.757956      2187.7442    
       116   0             -146.75335     -410.59249     -260.00451     -260.10893     -711.66401      21.366485      7.24311e-08    9.6339109e-08  6.3691289      16.547482      20.757956      2187.7442    
       117   0             -146.75335     -410.59249     -260.00452     -260.10892     -711.66401      21.366508     -3.5950676e-08 -4.9677215e-08  6.3691289      16.547482      20.757956      2187.7442    
       118   0             -146.75335     -410.59248     -260.00454     -260.1089      -711.66401      21.366508      2.8794861e-08  3.8473819e-08  6.3691289      16.547482      20.757956      2187.7442    
       119   0             -146.75335     -410.59248     -260.00456     -260.10889     -711.66401      21.366497     -2.005238e-08  -2.7146411e-08  6.3691289      16.547482      20.757956      2187.7442    
       120   0             -146.75335     -410.59248     -260.00455     -260.10889     -711.66401      21.366489      9.3310963e-09  1.2601986e-08  6.3691289      16.547482      20.757956      2187.7442    
       121   0             -146.75335     -410.59248     -260.00455     -260.10889     -711.66401      21.366486     -5.1133894e-09 -6.919255e-09   6.3691289      16.547482      20.757956      2187.7442    
       122   0             -146.75335     -410.59248     -260.00454     -260.1089      -711.66401      21.366485      1.5758298e-09  2.1283396e-09  6.3691289      16.547482      20.757956      2187.7442    
       123   0             -146.75335     -410.59248     -260.00454     -260.1089      -711.66401      21.366486     -7.3534915e-10 -1.0399472e-09  6.3691289      16.547482      20.757956      2187.7442    
       124   0             -146.75335     -410.59248     -260.00454     -260.1089      -711.66401      21.366487      2.0351722e-10  2.8847973e-10  6.3691289      16.547482      20.757956      2187.7442    
       125   0             -146.75335     -410.59248     -260.00454     -260.1089      -711.66401      21.366488     -1.1243641e-10 -1.6451561e-10  6.3691289      16.547482      20.757956      2187.7442    
       126   0             -146.75335     -410.59248     -260.00454     -260.1089      -711.66401      21.366488      1.0434643e-10  1.5327883e-10  6.3691289      16.547482      20.757956      2187.7442    
       127   0             -146.75335     -410.59248     -260.00454     -260.1089      -711.66401      21.366488     -5.1399537e-11 -9.1947228e-11  6.3691289      16.547482      20.757956      2187.7442    
       128   0             -146.75335     -410.59248     -260.00454     -260.1089      -711.66401      21.366488      1.906505e-11   2.358263e-11   6.3691289      16.547482      20.757956      2187.7442    
       129   0             -146.75335     -410.59248     -260.00454     -260.1089      -711.66401      21.366488     -1.0811193e-12 -6.7598541e-12  6.3691289      16.547482      20.757956      2187.7442    
       130   0             -146.75335     -410.59248     -260.00454     -260.1089      -711.66401      21.366488     -7.2286356e-13 -7.5163835e-12  6.3691289      16.547482      20.757956      2187.7442    
       131   0             -146.75335     -410.59248     -260.00454     -260.1089      -711.66401      21.366488      1.0332248e-11  2.1957139e-11  6.3691289      16.547482      20.757956      2187.7442    
       132   0             -146.75335     -410.59248     -260.00454     -260.1089      -711.66401      21.366488     -4.7754729e-12 -3.5754432e-11  6.3691289      16.547482      20.757956      2187.7442    
       133   0             -146.75335     -410.59248     -260.00454     -260.1089      -711.66401      21.366488      1.7337292e-11 -3.7966217e-12  6.3691289      16.547482      20.757956      2187.7442    
       134   0             -146.75335     -410.59248     -260.00454     -260.1089      -711.66401      21.366488     -1.1564546e-11 -2.6778982e-11  6.3691289      16.547482      20.757956      2187.7442    
       135   0             -146.75335     -410.59248     -260.00454     -260.1089      -711.66401      21.366488      1.4055821e-11  6.6455172e-12  6.3691289      16.547482      20.757956      2187.7442    
       136   0             -146.75335     -410.59248     -260.00454     -260.1089      -711.66401      21.366488     -1.3420616e-11 -9.1850677e-13  6.3691289      16.547482      20.757956      2187.7442    
Loop time of 0.0143 on 1 procs for 36 steps with 96 atoms

109.3% CPU use with 1 MPI tasks x 1 OpenMP threads

Minimization stats:
  Stopping criterion = force tolerance
  Energy initial, next-to-last, final = 
     -146.753347361753  -146.753347436589  -146.753347436591
  Force two-norm initial, final = 0.00061484561 7.5959091e-11
  Force max component initial, final = 0.00010085366 1.1932871e-11
  Final line search alpha, max atom move = 1 1.1932871e-11
  Iterations, force evaluations = 36 72

MPI task timing breakdown:
Section |  min time  |  avg time  |  max time  |%varavg| %total
---------------------------------------------------------------
Pair    | 0.013424   | 0.013424   | 0.013424   |   0.0 | 93.87
Neigh   | 0          | 0          | 0          |   0.0 |  0.00
Comm    | 0.000283   | 0.000283   | 0.000283   |   0.0 |  1.98
Output  | 0.000416   | 0.000416   | 0.000416   |   0.0 |  2.91
Modify  | 0          | 0          | 0          |   0.0 |  0.00
Other   |            | 0.000177   |            |       |  1.24

Nlocal:             96 ave          96 max          96 min
Histogram: 1 0 0 0 0 0 0 0 0 0
Nghost:           1310 ave        1310 max        1310 min
Histogram: 1 0 0 0 0 0 0 0 0 0
Neighs:           6144 ave        6144 max        6144 min
Histogram: 1 0 0 0 0 0 0 0 0 0

Total # of neighbors = 6144
Ave neighs/atom = 64
Neighbor list builds = 0
Dangerous builds = 0
OMP_NUM_THREADS environment is not set. Defaulting to 1 thread. (src/comm.cpp:98)
  using 1 OpenMP thread(s) per MPI task
Loaded 1 plugins from F:\Lammps\LAMMPS 64-bit 2Aug2023\plugins

The 'box' command has been removed and will be ignored

Reading restart file ...
  restart file = 2 Aug 2023, LAMMPS = 2 Aug 2023
  restoring atom style atomic from restart
  triclinic box = (0.025435542 0.066083476 0.10483816) to (6.3945645 16.613566 20.862794) with tilt (0 0 0)
  1 by 1 by 1 MPI processor grid
  pair style eam/alloy stores no restart info
  96 atoms
  read_restart CPU = 0.000 seconds
Changing box ...
  triclinic box = (0.025435542 0.066083476 0.10483816) to (6.3945645 16.613566 20.862794) with tilt (0.0016547482 0 0)
Neighbor list info ...
  update: every = 1 steps, delay = 0 steps, check = yes
  max neighbors/atom: 2000, page size: 100000
  master list distance cutoff = 8.5
  ghost atom cutoff = 8.5
  1 neighbor lists, perpetual/occasional/extra = 1 0 0
  (1) pair eam/alloy, perpetual
      attributes: half, newton on
      pair build: half/nsq/newton
      stencil: none
      bin: none
Setting up cg style minimization ...
  Unit style    : metal
  Current step  : 100
Per MPI rank memory allocation (min/avg/max) = 4.467 | 4.467 | 4.467 Mbytes
   Step          Temp          PotEng         Press           Pxx            Pyy            Pzz            Pxy            Pxz            Pyz             Lx             Ly             Lz           Volume    
       100   0             -146.75335     -410.59736     -260.01552     -260.11165     -711.66491     -22.100716      1.6044229e-05  4.5408764e-05  6.3691289      16.547482      20.757956      2187.7442    
       101   0             -146.75335     -410.59582     -260.01225     -260.11039     -711.66482     -21.847436      9.6031019e-06 -4.4573309e-05  6.3691289      16.547482      20.757956      2187.7442    
       102   0             -146.75335     -410.59323     -260.00684     -260.10855     -711.66428     -21.466816     -1.3230639e-05  2.0690847e-05  6.3691289      16.547482      20.757956      2187.7442    
       103   0             -146.75335     -410.59263     -260.00545     -260.10837     -711.66407     -21.386674      6.6677065e-06 -8.1028122e-06  6.3691289      16.547482      20.757956      2187.7442    
       104   0             -146.75335     -410.5925      -260.00498     -260.10851     -711.66402     -21.369497     -2.2601508e-06  3.3958916e-06  6.3691289      16.547482      20.757956      2187.7442    
       105   0             -146.75335     -410.59248     -260.00477     -260.10866     -711.66401     -21.366266      1.2848126e-06 -1.6028379e-06  6.3691289      16.547482      20.757956      2187.7442    
       106   0             -146.75335     -410.59248     -260.0046      -260.10882     -711.66401     -21.365565     -1.284951e-06   1.7952186e-06  6.3691289      16.547482      20.757956      2187.7442    
       107   0             -146.75335     -410.59248     -260.00444     -260.10899     -711.66401     -21.365685      1.9282412e-06 -2.5842716e-06  6.3691289      16.547482      20.757956      2187.7442    
       108   0             -146.75335     -410.59248     -260.00438     -260.10906     -711.66401     -21.366194     -1.5607755e-06  2.0944504e-06  6.3691289      16.547482      20.757956      2187.7442    
       109   0             -146.75335     -410.59249     -260.00443     -260.10902     -711.66401     -21.366522      6.7749129e-07 -9.1898021e-07  6.3691289      16.547482      20.757956      2187.7442    
       110   0             -146.75335     -410.59249     -260.0045      -260.10895     -711.66401     -21.366619     -3.3395593e-07  4.5450023e-07  6.3691289      16.547482      20.757956      2187.7442    
       111   0             -146.75335     -410.59249     -260.00458     -260.10886     -711.66401     -21.366594      2.7421718e-07 -3.6274223e-07  6.3691289      16.547482      20.757956      2187.7442    
       112   0             -146.75335     -410.59248     -260.0046      -260.10884     -711.66401     -21.366522     -2.5425278e-07  3.5040522e-07  6.3691289      16.547482      20.757956      2187.7442    
       113   0             -146.75335     -410.59248     -260.00458     -260.10886     -711.66401     -21.36646       2.1910754e-07 -2.9232263e-07  6.3691289      16.547482      20.757956      2187.7442    
       114   0             -146.75335     -410.59248     -260.00455     -260.10889     -711.66401     -21.366444     -1.9180551e-07  2.5960909e-07  6.3691289      16.547482      20.757956      2187.7442    
       115   0             -146.75335     -410.59248     -260.00452     -260.10892     -711.66401     -21.366458      1.6131588e-07 -2.1909947e-07  6.3691289      16.547482      20.757956      2187.7442    
       116   0             -146.75335     -410.59249     -260.00451     -260.10893     -711.66401     -21.366487     -7.2769181e-08  9.687375e-08   6.3691289      16.547482      20.757956      2187.7442    
       117   0             -146.75335     -410.59249     -260.00452     -260.10892     -711.66401     -21.36651       3.6419159e-08 -4.9801964e-08  6.3691289      16.547482      20.757956      2187.7442    
       118   0             -146.75335     -410.59248     -260.00454     -260.1089      -711.66401     -21.366509     -2.8615334e-08  3.8546573e-08  6.3691289      16.547482      20.757956      2187.7442    
       119   0             -146.75335     -410.59248     -260.00455     -260.10889     -711.66401     -21.366497      2.0119661e-08 -2.7142811e-08  6.3691289      16.547482      20.757956      2187.7442    
       120   0             -146.75335     -410.59248     -260.00455     -260.10889     -711.66401     -21.366489     -9.321262e-09   1.2590764e-08  6.3691289      16.547482      20.757956      2187.7442    
       121   0             -146.75335     -410.59248     -260.00455     -260.10889     -711.66401     -21.366486      5.15217e-09   -6.9321065e-09  6.3691289      16.547482      20.757956      2187.7442    
       122   0             -146.75335     -410.59248     -260.00454     -260.1089      -711.66401     -21.366485     -1.5927377e-09  2.149572e-09   6.3691289      16.547482      20.757956      2187.7442    
       123   0             -146.75335     -410.59248     -260.00454     -260.1089      -711.66401     -21.366486      7.5361638e-10 -9.9616251e-10  6.3691289      16.547482      20.757956      2187.7442    
       124   0             -146.75335     -410.59248     -260.00454     -260.1089      -711.66401     -21.366487     -2.0294045e-10  2.6057961e-10  6.3691289      16.547482      20.757956      2187.7442    
       125   0             -146.75335     -410.59248     -260.00454     -260.1089      -711.66401     -21.366488      1.1152552e-10 -1.3084974e-10  6.3691289      16.547482      20.757956      2187.7442    
       126   0             -146.75335     -410.59248     -260.00454     -260.1089      -711.66401     -21.366488     -1.2719731e-10  1.5343001e-10  6.3691289      16.547482      20.757956      2187.7442    
       127   0             -146.75335     -410.59248     -260.00454     -260.1089      -711.66401     -21.366488      6.8943906e-11 -8.4860243e-11  6.3691289      16.547482      20.757956      2187.7442    
       128   0             -146.75335     -410.59248     -260.00454     -260.1089      -711.66401     -21.366488     -2.8776067e-11  5.2935463e-11  6.3691289      16.547482      20.757956      2187.7442    
       129   0             -146.75335     -410.59248     -260.00454     -260.1089      -711.66401     -21.366488      2.0720395e-12 -1.1967267e-12  6.3691289      16.547482      20.757956      2187.7442    
       130   0             -146.75335     -410.59248     -260.00454     -260.1089      -711.66401     -21.366488      7.236258e-12  -9.2111111e-12  6.3691289      16.547482      20.757956      2187.7442    
       131   0             -146.75335     -410.59248     -260.00454     -260.1089      -711.66401     -21.366488     -4.4451662e-12  1.3391397e-11  6.3691289      16.547482      20.757956      2187.7442    
       132   0             -146.75335     -410.59248     -260.00454     -260.1089      -711.66401     -21.366488      1.0007023e-11 -9.2034886e-12  6.3691289      16.547482      20.757956      2187.7442    
       133   0             -146.75335     -410.59248     -260.00454     -260.1089      -711.66401     -21.366488     -9.7135584e-12 -8.0201013e-12  6.3691289      16.547482      20.757956      2187.7442    
       134   0             -146.75335     -410.59248     -260.00454     -260.1089      -711.66401     -21.366488      1.6608076e-11 -6.6582213e-12  6.3691289      16.547482      20.757956      2187.7442    
       135   0             -146.75335     -410.59248     -260.00454     -260.1089      -711.66401     -21.366488     -1.2066359e-11 -8.0455095e-12  6.3691289      16.547482      20.757956      2187.7442    
       136   0             -146.75335     -410.59248     -260.00454     -260.1089      -711.66401     -21.366488      1.067907e-11  -1.6007807e-11  6.3691289      16.547482      20.757956      2187.7442    
Loop time of 0.014556 on 1 procs for 36 steps with 96 atoms

107.3% CPU use with 1 MPI tasks x 1 OpenMP threads

Minimization stats:
  Stopping criterion = force tolerance
  Energy initial, next-to-last, final = 
     -146.753347366779  -146.753347436589  -146.753347436591
  Force two-norm initial, final = 0.00060259798 7.7275234e-11
  Force max component initial, final = 0.000111735 1.2309112e-11
  Final line search alpha, max atom move = 1 1.2309112e-11
  Iterations, force evaluations = 36 72

MPI task timing breakdown:
Section |  min time  |  avg time  |  max time  |%varavg| %total
---------------------------------------------------------------
Pair    | 0.013696   | 0.013696   | 0.013696   |   0.0 | 94.09
Neigh   | 0          | 0          | 0          |   0.0 |  0.00
Comm    | 0.000324   | 0.000324   | 0.000324   |   0.0 |  2.23
Output  | 0.00035    | 0.00035    | 0.00035    |   0.0 |  2.40
Modify  | 0          | 0          | 0          |   0.0 |  0.00
Other   |            | 0.000186   |            |       |  1.28

Nlocal:             96 ave          96 max          96 min
Histogram: 1 0 0 0 0 0 0 0 0 0
Nghost:           1310 ave        1310 max        1310 min
Histogram: 1 0 0 0 0 0 0 0 0 0
Neighs:           6144 ave        6144 max        6144 min
Histogram: 1 0 0 0 0 0 0 0 0 0

Total # of neighbors = 6144
Ave neighs/atom = 64
Neighbor list builds = 0
Dangerous builds = 0
=========================================
Components of the Elastic Constant Tensor
=========================================
Elastic Constant C11all = 69.0472075945125 GPa
Elastic Constant C22all = 69.0344962048036 GPa
Elastic Constant C33all = 68.9746692615265 GPa
Elastic Constant C12all = 26.0584513542023 GPa
Elastic Constant C13all = 15.8918985344307 GPa
Elastic Constant C23all = 15.8927329268303 GPa
Elastic Constant C44all = 12.7537873616796 GPa
Elastic Constant C55all = 12.7570338818507 GPa
Elastic Constant C66all = 21.3664877961398 GPa
Elastic Constant C14all = -1.78707262769471e-11 GPa
Elastic Constant C15all = -8.10431301621503e-15 GPa
Elastic Constant C16all = -2.02207777283157e-10 GPa
Elastic Constant C24all = 1.59112757044708e-11 GPa
Elastic Constant C25all = -2.9289644879405e-12 GPa
Elastic Constant C26all = 1.4262241159018e-10 GPa
Elastic Constant C34all = 1.4893679548462e-11 GPa
Elastic Constant C35all = 3.01203015132317e-12 GPa
Elastic Constant C36all = -7.74040770657337e-10 GPa
Elastic Constant C45all = -7.70646869619258e-12 GPa
Elastic Constant C46all = -5.43203695638429e-11 GPa
Elastic Constant C56all = -6.52863939165986e-12 GPa
=========================================
Average properties for a cubic crystal
=========================================
Bulk Modulus = 35.8602820768632 GPa
Shear Modulus 1 = 15.62576967989 GPa
Shear Modulus 2 = 24.8688817075633 GPa
Poisson Ratio = 0.218358632048202
Total wall time: 0:00:00
