LAMMPS (2 Aug 2023 - Update 3)
OMP_NUM_THREADS environment is not set. Defaulting to 1 thread. (src/comm.cpp:98)
  using 1 OpenMP thread(s) per MPI task
Loaded 1 plugins from F:\Lammps\LAMMPS 64-bit 2Aug2023\plugins
Lattice spacing in x,y,z = 3.21 5.5598831 5.241908
Created triclinic box = (0 0 0) to (6.42 16.679649 20.967632) with tilt (0 0 0)
  1 by 1 by 1 MPI processor grid
Created 96 atoms
  using lattice units in triclinic box = (0 0 0) to (6.42 16.679649 20.967632) with tilt (0 0 0)
  create_atoms CPU = 0.000 seconds
Neighbor list info ...
  update: every = 1 steps, delay = 0 steps, check = yes
  max neighbors/atom: 2000, page size: 100000
  master list distance cutoff = 8.5
  ghost atom cutoff = 8.5
  1 neighbor lists, perpetual/occasional/extra = 1 0 0
  (1) pair eam/alloy, perpetual
      attributes: half, newton on
      pair build: half/nsq/newton
      stencil: none
      bin: none
Setting up cg style minimization ...
  Unit style    : metal
  Current step  : 0
WARNING: Energy due to 3 extra global DOFs will be included in minimizer energies
 (src/min.cpp:228)
Per MPI rank memory allocation (min/avg/max) = 4.472 | 4.472 | 4.472 Mbytes
   Step          Temp          PotEng         Press           Pxx            Pyy            Pzz            Pxy            Pxz            Pyz             Lx             Ly             Lz           Volume    
         0   0             -146.56845     -9864.3832     -9673.7539     -9673.7539     -10245.642     -2.4955128e-12  2.5747355e-12 -2.9708486e-13  6.42           16.679649      20.967632      2245.2843    
         1   0             -146.57242     -9756.6247     -9563.4759     -9563.4759     -10142.922     -3.1500093e-12 -9.7670099e-12  2.1029779e-11  6.4193938      16.678074      20.965535      2244.6358    
         2   0             -146.57635     -9647.857      -9452.1746     -9452.1746     -10039.222      1.7562903e-11  7.2530578e-12  1.2881114e-12  6.4187885      16.676502      20.963439      2243.9881    
         3   0             -146.58023     -9538.7815     -9340.2259     -9340.2259     -9935.8925     -6.5910854e-13 -5.0349946e-12  4.2817277e-12  6.4181841      16.674931      20.961342      2243.3411    
         4   0             -146.58406     -9431.1326     -9229.8164     -9229.8164     -9833.765       1.5233264e-11  3.0535929e-12  3.3272265e-11  6.4175806      16.673363      20.959245      2242.6948    
         5   0             -146.58784     -9323.2119     -9119.4704     -9119.4704     -9730.695       7.5469258e-12  2.5586161e-12 -1.8842522e-12  6.416978       16.671798      20.957148      2242.0494    
         6   0             -146.59157     -9216.6124     -9010.1468     -9010.1468     -9629.5435     -9.0222119e-12  1.9046341e-12  2.1754492e-11  6.4163763      16.670235      20.955052      2241.4047    
         7   0             -146.59526     -9109.3171     -8900.4154     -8900.4154     -9527.1203     -1.3395806e-13 -7.3230409e-12 -1.5370448e-11  6.4157757      16.668674      20.952955      2240.7608    
         8   0             -146.5989      -9001.3603     -8789.6154     -8789.6154     -9424.8501      5.6973336e-12  4.5459561e-12 -1.5106867e-11  6.4151759      16.667116      20.950858      2240.1177    
         9   0             -146.60249     -8895.2656     -8681.1149     -8681.1149     -9323.5672      5.7783956e-12  5.1429707e-12  5.8379667e-12  6.4145772      16.66556       20.948761      2239.4755    
        10   0             -146.60603     -8787.8035     -8571.2943     -8571.2943     -9220.8219      2.0458601e-12  2.1451736e-12 -4.0420633e-12  6.4139795      16.664008      20.946665      2238.834     
        11   0             -146.60953     -8680.4544     -8460.9889     -8460.9889     -9119.3854     -1.2040253e-11 -6.8943363e-12  4.4405883e-12  6.4133828      16.662457      20.944568      2238.1934    
        12   0             -146.61298     -8574.1671     -8352.0707     -8352.0707     -9018.36        4.8592137e-12 -4.9883953e-12  8.3968008e-12  6.4127871      16.66091       20.942471      2237.5537    
        13   0             -146.61638     -8469.5129     -8245.1839     -8245.1839     -8918.1711     -1.3518237e-12  7.0175555e-12 -2.7632867e-12  6.4121926      16.659365      20.940374      2236.9148    
        14   0             -146.61974     -8363.3443     -8136.6345     -8136.6345     -8816.7638     -7.6558914e-13 -2.346481e-12   9.7935754e-12  6.4115991      16.657823      20.938278      2236.2768    
        15   0             -146.62304     -8255.4003     -8026.2591     -8026.2591     -8713.6827     -2.2476942e-11  5.6490722e-12  1.7156073e-11  6.4110067      16.656284      20.936181      2235.6397    
        16   0             -146.62631     -8148.9875     -7917.1021     -7917.1021     -8612.7581      1.2495166e-11 -1.750915e-12   4.7752228e-13  6.4104154      16.654748      20.934084      2235.0034    
        17   0             -146.62952     -8044.6833     -7810.2014     -7810.2014     -8513.6471      1.6384666e-11  5.3736531e-12  1.0538331e-11  6.4098253      16.653215      20.931987      2234.3682    
        18   0             -146.63269     -7940.75       -7704.2691     -7704.2691     -8413.7118     -6.9628476e-12  1.6722779e-12 -2.2187544e-11  6.4092364      16.651685      20.92989       2233.7339    
        19   0             -146.63582     -7834.6993     -7595.8697     -7595.8697     -8312.3584      2.2696659e-11 -1.4138739e-12 -1.3640896e-12  6.4086486      16.650158      20.927794      2233.1004    
        20   0             -146.63889     -7728.1906     -7487.3524     -7487.3524     -8209.867      -8.4806671e-12 -5.6969367e-12  2.0616537e-11  6.4080621      16.648634      20.925697      2232.468     
        21   0             -146.64193     -7623.4722     -7379.9272     -7379.9272     -8110.5624     -6.6698923e-12 -3.6064242e-12 -2.4298532e-11  6.4074766      16.647113      20.9236        2231.8364    
        22   0             -146.64491     -7519.5298     -7273.2329     -7273.2329     -8012.1235      4.5342174e-13 -1.6343113e-12 -5.1819627e-13  6.4068926      16.645595      20.921503      2231.2059    
        23   0             -146.64785     -7415.7555     -7167.5484     -7167.5484     -7912.1697     -6.6786437e-12  2.8508837e-12  9.4298461e-12  6.4063099      16.644081      20.919407      2230.5765    
        24   0             -146.65075     -7311.5991     -7061.7158     -7061.7158     -7811.3658      2.8467017e-12  2.2135474e-12 -9.0934919e-12  6.4057284      16.642571      20.91731       2229.9481    
        25   0             -146.6536      -7207.8811     -6955.773      -6955.773      -7712.0974     -1.0622034e-11  1.5160086e-12  9.2057626e-12  6.4051481      16.641063      20.915213      2229.3206    
        26   0             -146.6564      -7103.4914     -6849.0107     -6849.0107     -7612.4527     -6.7092258e-12 -1.085448e-11   3.5915558e-13  6.4045692      16.639559      20.913116      2228.6942    
        27   0             -146.65916     -6999.8613     -6743.1869     -6743.1869     -7513.2102     -8.3078038e-12 -2.2952491e-12 -1.8621456e-11  6.4039917      16.638058      20.91102       2228.0689    
        28   0             -146.66188     -6897.2087     -6638.4493     -6638.4493     -7414.7275      8.3650337e-12  7.7860696e-13  9.8124441e-12  6.4034156      16.636562      20.908923      2227.4447    
        29   0             -146.66455     -6794.1538     -6533.3766     -6533.3766     -7315.7083     -1.2705828e-11 -6.9894536e-13 -1.503731e-11   6.4028409      16.635069      20.906826      2226.8215    
        30   0             -146.66717     -6690.7955     -6428.5986     -6428.5986     -7215.1893      1.1985268e-13  1.0986496e-12 -3.3458873e-12  6.4022677      16.633579      20.904729      2226.1996    
        31   0             -146.66975     -6588.1525     -6323.4725     -6323.4725     -7117.5124     -1.0150358e-11 -4.2159952e-12 -4.4957295e-12  6.4016958      16.632094      20.902633      2225.5786    
        32   0             -146.67229     -6485.7587     -6219.2797     -6219.2797     -7018.7168     -9.2437955e-12  2.2584841e-12 -1.7718108e-11  6.4011256      16.630612      20.900536      2224.9589    
        33   0             -146.67478     -6383.9516     -6115.7681     -6115.7681     -6920.3186      1.3094853e-12 -3.07879e-12    5.5977999e-12  6.4005569      16.629135      20.898439      2224.3404    
        34   0             -146.67723     -6281.9599     -6011.8996     -6011.8996     -6822.0804     -9.3739185e-12  1.0598777e-12  2.0477637e-11  6.3999897      16.627661      20.896342      2223.7231    
        35   0             -146.67964     -6180.3081     -5908.8162     -5908.8162     -6723.2919      4.9908071e-12 -1.8603009e-12 -1.6212622e-11  6.3994241      16.626191      20.894245      2223.107     
        36   0             -146.682       -6078.8898     -5805.5072     -5805.5072     -6625.655       8.4136876e-12  1.4606402e-12 -6.9030255e-13  6.39886        16.624726      20.892149      2222.492     
        37   0             -146.68432     -5977.0717     -5702.0362     -5702.0362     -6527.1429      4.8284488e-12 -1.0287348e-11  1.9794138e-11  6.3982976      16.623265      20.890052      2221.8784    
        38   0             -146.68659     -5875.7368     -5598.8877     -5598.8877     -6429.4351      1.0630521e-11 -1.2412284e-11 -9.6795796e-12  6.397737       16.621808      20.887955      2221.266     
        39   0             -146.68882     -5776.0056     -5497.7079     -5497.7079     -6332.6011     -8.1803438e-12 -1.2876282e-11  1.5990219e-11  6.3971781      16.620356      20.885858      2220.655     
        40   0             -146.69101     -5675.4591     -5396.4061     -5396.4061     -6233.565      -4.6271197e-12 -3.2049314e-13 -1.4151775e-11  6.3966209      16.618909      20.883762      2220.0453    
        41   0             -146.69316     -5575.2197     -5294.5302     -5294.5302     -6136.5988      1.5878778e-12  2.0036313e-14  6.8223645e-12  6.3960654      16.617465      20.881665      2219.4369    
        42   0             -146.69526     -5475.1206     -5192.6784     -5192.6784     -6040.0051     -4.1586724e-12 -4.9703651e-12  1.8498576e-11  6.3955117      16.616027      20.879568      2218.8298    
        43   0             -146.69732     -5375.8019     -5092.0425     -5092.0425     -5943.3205      0             -6.7158342e-12 -1.249947e-11   6.3949599      16.614593      20.877471      2218.2242    
        44   0             -146.69934     -5276.1471     -4991.4893     -4991.4893     -5845.4626     -1.7596269e-12  4.0105456e-13 -5.6949747e-12  6.3944101      16.613165      20.875375      2217.62      
        45   0             -146.70132     -5177.2752     -4891.2519     -4891.2519     -5749.3219     -9.7282172e-13 -9.14653e-12    7.471672e-12   6.3938621      16.611741      20.873278      2217.0173    
        46   0             -146.70326     -5078.4368     -4791.4962     -4791.4962     -5652.318      -4.4440921e-12 -3.1098613e-12 -2.7386843e-11  6.3933162      16.610323      20.871181      2216.416     
        47   0             -146.70515     -4979.7729     -4691.8304     -4691.8304     -5555.6579     -6.3267686e-12 -3.7127746e-12  1.7911629e-11  6.3927722      16.608909      20.869084      2215.8162    
        48   0             -146.70701     -4881.362      -4592.1502     -4592.1502     -5459.7856      2.7050351e-12  5.9219692e-12  1.797669e-11   6.3922303      16.607501      20.866988      2215.218     
        49   0             -146.70882     -4784.1106     -4494.0227     -4494.0227     -5364.2863      6.8773589e-13  1.7670294e-12  4.3171742e-13  6.3916905      16.606099      20.864891      2214.6214    
        50   0             -146.71059     -4685.9172     -4395.3247     -4395.3247     -5267.1021     -6.8089087e-12 -1.4059694e-13  9.6007622e-12  6.391153       16.604702      20.862794      2214.0263    
        51   0             -146.71232     -4588.6275     -4297.6776     -4297.6776     -5170.5274     -1.2933363e-11  0             -1.4555684e-11  6.3906175      16.603311      20.860697      2213.4329    
        52   0             -146.71401     -4491.9531     -4200.2557     -4200.2557     -5075.3477     -5.8630183e-12  1.708163e-12  -5.8278503e-12  6.3900842      16.601926      20.858601      2212.841     
        53   0             -146.71566     -4395.3625     -4102.8641     -4102.8641     -4980.3592     -1.0332118e-11  1.2583474e-11  1.2744285e-11  6.3895531      16.600546      20.856504      2212.2508    
        54   0             -146.71727     -4298.0887     -4005.3573     -4005.3573     -4883.5515      4.0967491e-12  4.0213488e-13 -1.3391092e-11  6.3890245      16.599173      20.854407      2211.6625    
        55   0             -146.71885     -4202.8249     -3909.5978     -3909.5978     -4789.2792      2.2676369e-12  6.8381068e-13 -1.0880635e-11  6.3884983      16.597805      20.85231       2211.0758    
        56   0             -146.72038     -4106.7608     -3813.1767     -3813.1767     -4693.9292      7.026002e-12   3.922893e-12   2.0399044e-11  6.3879745      16.596445      20.850213      2210.491     
        57   0             -146.72187     -4010.8087     -3717.2323     -3717.2323     -4597.9616      1.2144054e-11 -1.0302826e-11 -3.3504307e-12  6.3874533      16.595091      20.848117      2209.908     
        58   0             -146.72332     -3915.4112     -3621.7194     -3621.7194     -4502.7949      1.831648e-12   8.0109439e-12  1.1342128e-11  6.3869346      16.593743      20.84602       2209.3269    
        59   0             -146.72474     -3821.4142     -3527.4731     -3527.4731     -4409.2963      7.5751458e-12  4.1071887e-12  4.0759821e-11  6.3864186      16.592402      20.843923      2208.7477    
        60   0             -146.72611     -3727.2365     -3433.3401     -3433.3401     -4315.0293     -5.4776829e-12 -4.7526955e-12 -1.1076197e-12  6.3859053      16.591069      20.841826      2208.1705    
        61   0             -146.72745     -3632.5188     -3339.157      -3339.157      -4219.2425     -3.7114927e-12 -1.8935159e-12  8.117946e-12   6.3853949      16.589742      20.83973       2207.5954    
        62   0             -146.72875     -3538.7272     -3245.7118     -3245.7118     -4124.7582      1.5464371e-12  7.4349875e-12 -1.3560289e-11  6.3848871      16.588423      20.837633      2207.0223    
        63   0             -146.73001     -3446.399      -3153.616      -3153.616      -4031.965      -5.4517198e-12 -2.4789706e-12 -2.085963e-11   6.3843823      16.587112      20.835536      2206.4513    
        64   0             -146.73124     -3353.4649     -3061.2917     -3061.2917     -3937.8114      1.7488305e-12  5.9470316e-12  2.3445416e-11  6.3838806      16.585808      20.833439      2205.8824    
        65   0             -146.73242     -3260.7499     -2969.3762     -2969.3762     -3843.4972     -9.7092591e-12  2.8633744e-12 -1.8763168e-11  6.3833819      16.584513      20.831343      2205.3158    
        66   0             -146.73358     -3168.9129     -2878.4568     -2878.4568     -3749.8252     -5.4710502e-12 -4.8004053e-12  1.3513746e-11  6.3828863      16.583225      20.829246      2204.7515    
        67   0             -146.73469     -3077.0407     -2787.1701     -2787.1701     -3656.7819      1.2009117e-11 -5.0033786e-12  1.1963724e-11  6.3823938      16.581946      20.827149      2204.1894    
        68   0             -146.73577     -2984.4975     -2695.4973     -2695.4973     -3562.4978      4.0259173e-12 -8.293995e-12  -1.2138292e-11  6.3819049      16.580675      20.825052      2203.6299    
        69   0             -146.73681     -2894.3912     -2606.4731     -2606.4731     -3470.2273     -4.8948961e-13 -1.5946259e-12  5.4499874e-12  6.3814196      16.579414      20.822956      2203.0729    
        70   0             -146.73782     -2805.0553     -2518.5169     -2518.5169     -3378.1322      9.2218828e-12 -5.1283158e-12  2.7822123e-11  6.3809378      16.578163      20.820859      2202.5184    
        71   0             -146.73879     -2714.7801     -2430.0155     -2430.0155     -3284.3092     -8.3356018e-12 -5.9778029e-12 -1.4177087e-11  6.3804596      16.57692       20.818762      2201.9666    
        72   0             -146.73972     -2625.2723     -2341.7622     -2341.7622     -3192.2924     -6.8984089e-12  2.4644389e-12  5.6257888e-12  6.3799851      16.575687      20.816665      2201.4173    
        73   0             -146.74062     -2536.2575     -2254.4775     -2254.4775     -3099.8176     -4.2481714e-12 -2.8287467e-13  3.8390134e-12  6.3795146      16.574465      20.814568      2200.8709    
        74   0             -146.74149     -2447.6978     -2167.7359     -2167.7359     -3007.6215     -1.3288288e-12  6.2652007e-13 -1.5945946e-11  6.3790481      16.573253      20.812472      2200.3274    
        75   0             -146.74232     -2360.1022     -2082.036      -2082.036      -2916.2344      1.5313083e-12 -7.4392269e-12 -1.5767927e-12  6.3785859      16.572052      20.810375      2199.7869    
        76   0             -146.74312     -2272.0819     -1996.6047     -1996.6047     -2823.0363      5.2572599e-13  6.5917951e-12 -3.1907524e-11  6.378128       16.570863      20.808278      2199.2495    
        77   0             -146.74389     -2184.9845     -1911.6905     -1911.6905     -2731.5724     -1.1513164e-11 -2.2854413e-12  1.0415949e-11  6.3776745      16.569684      20.806181      2198.7151    
        78   0             -146.74462     -2099.306      -1828.4857     -1828.4857     -2640.9465     -1.0256625e-11  9.8115646e-12  2.8099512e-11  6.3772257      16.568518      20.804085      2198.1841    
        79   0             -146.74532     -2013.5276     -1745.7404     -1745.7404     -2549.1018      6.3891654e-12 -3.7232191e-12 -7.233972e-12   6.3767817      16.567365      20.801988      2197.6565    
        80   0             -146.74599     -1928.6665     -1663.5011     -1663.5011     -2458.9973     -4.5792353e-12  9.5430252e-12 -6.1731128e-13  6.3763425      16.566224      20.799891      2197.1324    
        81   0             -146.74662     -1844.3897     -1582.2553     -1582.2553     -2368.6587     -6.4276316e-13 -3.6946229e-12  3.1601678e-11  6.3759087      16.565097      20.797794      2196.612     
        82   0             -146.74723     -1760.5943     -1501.9595     -1501.9595     -2277.864       7.8010315e-12  8.9096791e-13 -7.6744736e-12  6.3754804      16.563984      20.795698      2196.0954    
        83   0             -146.7478      -1676.8053     -1421.9737     -1421.9737     -2186.4686     -2.5722578e-12  1.1544779e-12  8.7801084e-12  6.3750576      16.562886      20.793601      2195.5828    
        84   0             -146.74835     -1594.7032     -1343.2583     -1343.2583     -2097.5929     -1.2383125e-11 -5.2672597e-13 -4.1712645e-11  6.3746406      16.561802      20.791504      2195.0742    
        85   0             -146.74886     -1513.2909     -1265.6929     -1265.6929     -2008.4867     -1.3490322e-11  9.7162738e-12 -8.287708e-12   6.3742301      16.560736      20.789407      2194.5701    
        86   0             -146.74935     -1432.2316     -1188.8796     -1188.8796     -1918.9355     -1.7633123e-12  1.1299386e-11  7.0431153e-12  6.3738261      16.559686      20.787311      2194.0706    
        87   0             -146.7498      -1351.5915     -1112.7737     -1112.7737     -1829.2271      3.3094903e-12 -7.6528796e-12 -1.3937364e-11  6.3734289      16.558654      20.785214      2193.5759    
        88   0             -146.75023     -1272.2644     -1037.8558     -1037.8558     -1741.0816      5.0692639e-13 -2.919896e-12   2.0074285e-12  6.3730389      16.557641      20.783117      2193.0862    
        89   0             -146.75063     -1193.6151     -963.99438     -963.99438     -1652.8564     -8.1785283e-12 -3.8940544e-12  3.5695499e-12  6.3726568      16.556648      20.78102       2192.602     
        90   0             -146.751       -1116.3145     -892.01965     -892.01965     -1564.9043      3.0479655e-12  2.8400344e-13 -2.2253698e-11  6.3722829      16.555677      20.778924      2192.1236    
        91   0             -146.75134     -1040.5963     -822.08268     -822.08268     -1477.6236     -2.0036705e-12  3.6319698e-12  1.2884362e-12  6.3719175      16.554727      20.776827      2191.651     
        92   0             -146.75166     -965.40865     -752.81968     -752.81968     -1390.5866     -3.6276693e-12 -5.7230923e-12  3.0888462e-11  6.3715609      16.553801      20.77473       2191.1846    
        93   0             -146.75195     -890.43872     -684.17465     -684.17465     -1302.9669      1.1468886e-12  2.8925951e-12 -4.1003804e-12  6.371214       16.552899      20.772633      2190.7248    
        94   0             -146.75222     -816.80927     -617.40777     -617.40777     -1215.6123     -1.5486195e-11 -1.0121099e-11  2.2932359e-11  6.3708774      16.552025      20.770536      2190.2722    
        95   0             -146.75246     -745.76228     -553.12718     -553.12718     -1131.0325      9.1230237e-12  2.193181e-12  -2.2287186e-11  6.3705519      16.551179      20.76844       2189.8274    
        96   0             -146.75269     -675.71114     -490.41582     -490.41582     -1046.3018      7.3222165e-12 -6.7027225e-13 -7.647197e-12   6.3702385      16.550365      20.766343      2189.3908    
        97   0             -146.75288     -606.83068     -429.2916      -429.2916      -961.90884     -1.4850445e-11  1.4169885e-11  2.4408769e-11  6.3699382      16.549585      20.764246      2188.9634    
        98   0             -146.75306     -539.71267     -370.38405     -370.38405     -878.36991     -6.5732363e-12 -6.0957369e-14 -3.1636874e-11  6.3696522      16.548842      20.762149      2188.5458    
        99   0             -146.75321     -474.0867      -313.88249     -313.88249     -794.49512      4.1966787e-12  5.0705633e-12 -1.4632487e-12  6.369382       16.54814       20.760053      2188.1391    
       100   0             -146.75335     -410.6318      -260.11286     -260.11286     -711.66969     -1.4889211e-12 -5.3662138e-12  2.2664123e-11  6.3691289      16.547482      20.757956      2187.7442    
Loop time of 0.025032 on 1 procs for 100 steps with 96 atoms

62.4% CPU use with 1 MPI tasks x 1 OpenMP threads

Minimization stats:
  Stopping criterion = max iterations
  Energy initial, next-to-last, final = 
     -146.568450621862  -146.753213887664  -146.753348893176
  Force two-norm initial, final = 23.952655 1.1044762
  Force max component initial, final = 14.358205 0.98158851
  Final line search alpha, max atom move = 9.1247978e-05 8.9567967e-05
  Iterations, force evaluations = 100 100

MPI task timing breakdown:
Section |  min time  |  avg time  |  max time  |%varavg| %total
---------------------------------------------------------------
Pair    | 0.01932    | 0.01932    | 0.01932    |   0.0 | 77.18
Neigh   | 0          | 0          | 0          |   0.0 |  0.00
Comm    | 0.00062    | 0.00062    | 0.00062    |   0.0 |  2.48
Output  | 0.000993   | 0.000993   | 0.000993   |   0.0 |  3.97
Modify  | 0          | 0          | 0          |   0.0 |  0.00
Other   |            | 0.004099   |            |       | 16.38

Nlocal:             96 ave          96 max          96 min
Histogram: 1 0 0 0 0 0 0 0 0 0
Nghost:           1310 ave        1310 max        1310 min
Histogram: 1 0 0 0 0 0 0 0 0 0
Neighs:           6144 ave        6144 max        6144 min
Histogram: 1 0 0 0 0 0 0 0 0 0

Total # of neighbors = 6144
Ave neighs/atom = 64
Neighbor list builds = 0
Dangerous builds = 0
Displacing atoms ...
System init for write_restart ...
OMP_NUM_THREADS environment is not set. Defaulting to 1 thread. (src/comm.cpp:98)
  using 1 OpenMP thread(s) per MPI task
Loaded 1 plugins from F:\Lammps\LAMMPS 64-bit 2Aug2023\plugins

The 'box' command has been removed and will be ignored

Reading restart file ...
  restart file = 2 Aug 2023, LAMMPS = 2 Aug 2023
  restoring atom style atomic from restart
  triclinic box = (0.025435542 0.066083476 0.10483816) to (6.3945645 16.613566 20.862794) with tilt (0 0 0)
  1 by 1 by 1 MPI processor grid
  pair style eam/alloy stores no restart info
  96 atoms
  read_restart CPU = 0.000 seconds
Changing box ...
  triclinic box = (0.025435542 0.066083476 0.10483816) to (6.3945008 16.613566 20.862794) with tilt (0 0 0)
  triclinic box = (0.025435542 0.066083476 0.10483816) to (6.3945008 16.613566 20.862794) with tilt (0 0 0)
  triclinic box = (0.025435542 0.066083476 0.10483816) to (6.3945008 16.613566 20.862794) with tilt (0 0 0)
Neighbor list info ...
  update: every = 1 steps, delay = 0 steps, check = yes
  max neighbors/atom: 2000, page size: 100000
  master list distance cutoff = 8.5
  ghost atom cutoff = 8.5
  1 neighbor lists, perpetual/occasional/extra = 1 0 0
  (1) pair eam/alloy, perpetual
      attributes: half, newton on
      pair build: half/nsq/newton
      stencil: none
      bin: none
Setting up cg style minimization ...
  Unit style    : metal
  Current step  : 100
Per MPI rank memory allocation (min/avg/max) = 4.467 | 4.467 | 4.467 Mbytes
   Step          Temp          PotEng         Press           Pxx            Pyy            Pzz            Pxy            Pxz            Pyz             Lx             Ly             Lz           Volume    
       100   0             -146.75335     -406.94599     -253.16457     -257.58944     -710.08395      0.018481712    6.5862424e-06  2.1479904e-06  6.3690652      16.547482      20.757956      2187.7224    
       101   0             -146.75335     -406.94595     -253.18392     -257.57007     -710.08387      0.014049521    2.0664397e-06 -5.6841813e-06  6.3690652      16.547482      20.757956      2187.7224    
       102   0             -146.75335     -406.9459      -253.20994     -257.54392     -710.08383      0.0080800709  -5.7919303e-08  1.1927749e-06  6.3690652      16.547482      20.757956      2187.7224    
       103   0             -146.75335     -406.94585     -253.22729     -257.52646     -710.08381      0.0040982075   4.1249902e-08 -1.344318e-06   6.3690652      16.547482      20.757956      2187.7224    
       104   0             -146.75335     -406.94582     -253.23947     -257.51421     -710.0838       0.0013047196  -3.5690557e-08  5.4237372e-07  6.3690652      16.547482      20.757956      2187.7224    
       105   0             -146.75335     -406.94581     -253.2459      -257.50773     -710.08379     -0.00017104677 -2.4733988e-08 -5.5378144e-07  6.3690652      16.547482      20.757956      2187.7224    
       106   0             -146.75335     -406.9458      -253.24806     -257.50555     -710.08379     -0.00066541959  9.1460623e-09  6.0716353e-07  6.3690652      16.547482      20.757956      2187.7224    
       107   0             -146.75335     -406.9458      -253.24763     -257.50599     -710.08379     -0.00056359535  9.4142194e-09 -6.8833722e-07  6.3690652      16.547482      20.757956      2187.7224    
       108   0             -146.75335     -406.94581     -253.24611     -257.50752     -710.08379     -0.00021587849  1.7333466e-08  6.1671245e-07  6.3690652      16.547482      20.757956      2187.7224    
       109   0             -146.75335     -406.94581     -253.24496     -257.50868     -710.08379      4.8938241e-05  1.4641613e-08 -2.7192469e-07  6.3690652      16.547482      20.757956      2187.7224    
       110   0             -146.75335     -406.94581     -253.2446      -257.50904     -710.08379      0.00013052689  8.6548773e-09  1.4330635e-07  6.3690652      16.547482      20.757956      2187.7224    
       111   0             -146.75335     -406.94581     -253.24475     -257.50889     -710.08379      9.5624139e-05  3.1505872e-09 -1.0748158e-07  6.3690652      16.547482      20.757956      2187.7224    
       112   0             -146.75335     -406.94581     -253.24506     -257.50858     -710.08379      2.4496969e-05  1.799745e-10   1.0104349e-07  6.3690652      16.547482      20.757956      2187.7224    
       113   0             -146.75335     -406.94581     -253.24532     -257.50831     -710.08379     -3.6299231e-05 -1.310378e-09  -9.3871002e-08  6.3690652      16.547482      20.757956      2187.7224    
       114   0             -146.75335     -406.94581     -253.24538     -257.50825     -710.08379     -4.9376614e-05 -1.3144065e-09  7.4853002e-08  6.3690652      16.547482      20.757956      2187.7224    
       115   0             -146.75335     -406.94581     -253.2453      -257.50834     -710.08379     -2.9133618e-05 -8.3945498e-10 -5.9894711e-08  6.3690652      16.547482      20.757956      2187.7224    
       116   0             -146.75335     -406.94581     -253.24515     -257.50849     -710.08379      5.0898485e-06 -1.8454167e-10  2.8052591e-08  6.3690652      16.547482      20.757956      2187.7224    
       117   0             -146.75335     -406.94581     -253.24503     -257.50861     -710.08379      3.1308259e-05  8.2797289e-11 -1.3950864e-08  6.3690652      16.547482      20.757956      2187.7224    
       118   0             -146.75335     -406.94581     -253.24505     -257.50859     -710.08379      2.6402357e-05  5.9324951e-11  1.0191177e-08  6.3690652      16.547482      20.757956      2187.7224    
       119   0             -146.75335     -406.94581     -253.24513     -257.50851     -710.08379      9.0705964e-06  2.3795026e-11 -7.1924373e-09  6.3690652      16.547482      20.757956      2187.7224    
       120   0             -146.75335     -406.94581     -253.24517     -257.50847     -710.08379     -9.9612067e-07  3.3920299e-12  3.5276933e-09  6.3690652      16.547482      20.757956      2187.7224    
       121   0             -146.75335     -406.94581     -253.24519     -257.50845     -710.08379     -4.252277e-06  -4.662453e-13  -1.949808e-09   6.3690652      16.547482      20.757956      2187.7224    
       122   0             -146.75335     -406.94581     -253.24518     -257.50845     -710.08379     -3.8151643e-06  6.8552034e-12  5.9246248e-10  6.3690652      16.547482      20.757956      2187.7224    
       123   0             -146.75335     -406.94581     -253.24517     -257.50846     -710.08379     -1.4734189e-06  1.0785893e-12 -2.545223e-10   6.3690652      16.547482      20.757956      2187.7224    
       124   0             -146.75335     -406.94581     -253.24517     -257.50847     -710.08379     -1.734187e-07   8.6249029e-12  9.4067849e-11  6.3690652      16.547482      20.757956      2187.7224    
       125   0             -146.75335     -406.94581     -253.24517     -257.50847     -710.08379      5.0274319e-07  6.1526594e-12 -5.0567924e-11  6.3690652      16.547482      20.757956      2187.7224    
       126   0             -146.75335     -406.94581     -253.24516     -257.50847     -710.08379      5.9508709e-07 -9.0581172e-13  4.5172437e-11  6.3690652      16.547482      20.757956      2187.7224    
       127   0             -146.75335     -406.94581     -253.24517     -257.50847     -710.08379      3.1790192e-07 -2.8165282e-12 -3.8956256e-11  6.3690652      16.547482      20.757956      2187.7224    
       128   0             -146.75335     -406.94581     -253.24517     -257.50847     -710.08379      8.0093504e-08 -5.7816959e-12  1.1870199e-11  6.3690652      16.547482      20.757956      2187.7224    
       129   0             -146.75335     -406.94581     -253.24517     -257.50847     -710.08379     -5.1803992e-08 -2.5471985e-12  1.6236008e-12  6.3690652      16.547482      20.757956      2187.7224    
       130   0             -146.75335     -406.94581     -253.24517     -257.50847     -710.08379     -6.0727884e-08  1.3682458e-12 -1.4886184e-11  6.3690652      16.547482      20.757956      2187.7224    
       131   0             -146.75335     -406.94581     -253.24517     -257.50847     -710.08379     -3.1965948e-08  6.2631862e-13  1.1154315e-12  6.3690652      16.547482      20.757956      2187.7224    
       132   0             -146.75335     -406.94581     -253.24517     -257.50847     -710.08379     -9.0361211e-09 -2.4481055e-12 -5.8172677e-12  6.3690652      16.547482      20.757956      2187.7224    
       133   0             -146.75335     -406.94581     -253.24517     -257.50847     -710.08379      3.900344e-09  -1.3136176e-12 -1.3885725e-12  6.3690652      16.547482      20.757956      2187.7224    
       134   0             -146.75335     -406.94581     -253.24517     -257.50847     -710.08379      6.5516993e-09  8.2958633e-12  1.8612335e-11  6.3690652      16.547482      20.757956      2187.7224    
       135   0             -146.75335     -406.94581     -253.24517     -257.50847     -710.08379      4.6112474e-09  5.6724395e-12  3.5154515e-11  6.3690652      16.547482      20.757956      2187.7224    
Loop time of 0.013952 on 1 procs for 35 steps with 96 atoms

112.0% CPU use with 1 MPI tasks x 1 OpenMP threads

Minimization stats:
  Stopping criterion = force tolerance
  Energy initial, next-to-last, final = 
     -146.753352377303   -146.75335239808  -146.753352398081
  Force two-norm initial, final = 0.000466597 9.7293076e-11
  Force max component initial, final = 7.1625066e-05 1.9717068e-11
  Final line search alpha, max atom move = 1 1.9717068e-11
  Iterations, force evaluations = 35 70

MPI task timing breakdown:
Section |  min time  |  avg time  |  max time  |%varavg| %total
---------------------------------------------------------------
Pair    | 0.013157   | 0.013157   | 0.013157   |   0.0 | 94.30
Neigh   | 0          | 0          | 0          |   0.0 |  0.00
Comm    | 0.000259   | 0.000259   | 0.000259   |   0.0 |  1.86
Output  | 0.000347   | 0.000347   | 0.000347   |   0.0 |  2.49
Modify  | 0          | 0          | 0          |   0.0 |  0.00
Other   |            | 0.000189   |            |       |  1.35

Nlocal:             96 ave          96 max          96 min
Histogram: 1 0 0 0 0 0 0 0 0 0
Nghost:           1310 ave        1310 max        1310 min
Histogram: 1 0 0 0 0 0 0 0 0 0
Neighs:           6144 ave        6144 max        6144 min
Histogram: 1 0 0 0 0 0 0 0 0 0

Total # of neighbors = 6144
Ave neighs/atom = 64
Neighbor list builds = 0
Dangerous builds = 0
OMP_NUM_THREADS environment is not set. Defaulting to 1 thread. (src/comm.cpp:98)
  using 1 OpenMP thread(s) per MPI task
Loaded 1 plugins from F:\Lammps\LAMMPS 64-bit 2Aug2023\plugins

The 'box' command has been removed and will be ignored

Reading restart file ...
  restart file = 2 Aug 2023, LAMMPS = 2 Aug 2023
  restoring atom style atomic from restart
  triclinic box = (0.025435542 0.066083476 0.10483816) to (6.3945645 16.613566 20.862794) with tilt (0 0 0)
  1 by 1 by 1 MPI processor grid
  pair style eam/alloy stores no restart info
  96 atoms
  read_restart CPU = 0.000 seconds
Changing box ...
  triclinic box = (0.025435542 0.066083476 0.10483816) to (6.3946281 16.613566 20.862794) with tilt (0 0 0)
  triclinic box = (0.025435542 0.066083476 0.10483816) to (6.3946281 16.613566 20.862794) with tilt (0 0 0)
  triclinic box = (0.025435542 0.066083476 0.10483816) to (6.3946281 16.613566 20.862794) with tilt (0 0 0)
Neighbor list info ...
  update: every = 1 steps, delay = 0 steps, check = yes
  max neighbors/atom: 2000, page size: 100000
  master list distance cutoff = 8.5
  ghost atom cutoff = 8.5
  1 neighbor lists, perpetual/occasional/extra = 1 0 0
  (1) pair eam/alloy, perpetual
      attributes: half, newton on
      pair build: half/nsq/newton
      stencil: none
      bin: none
Setting up cg style minimization ...
  Unit style    : metal
  Current step  : 100
Per MPI rank memory allocation (min/avg/max) = 4.467 | 4.467 | 4.467 Mbytes
   Step          Temp          PotEng         Press           Pxx            Pyy            Pzz            Pxy            Pxz            Pyz             Lx             Ly             Lz           Volume    
       100   0             -146.75335     -414.31365     -267.04749     -262.63953     -713.25395      0.018616407   -1.8183491e-06 -5.2488821e-06  6.3691926      16.547482      20.757956      2187.7661    
       101   0             -146.75335     -414.31372     -267.02973     -262.65751     -713.25393      0.014161229   -1.7690584e-06 -2.0142558e-06  6.3691926      16.547482      20.757956      2187.7661    
       102   0             -146.75335     -414.31371     -267.0057      -262.68152     -713.25392      0.0081875711  -6.1230901e-07 -1.2070372e-06  6.3691926      16.547482      20.757956      2187.7661    
       103   0             -146.75335     -414.31369     -266.98964     -262.69751     -713.25391      0.0041995195  -2.8435908e-07  5.1051882e-07  6.3691926      16.547482      20.757956      2187.7661    
       104   0             -146.75335     -414.31367     -266.97826     -262.70884     -713.25391      0.0013685457  -2.3623411e-07 -3.6972896e-07  6.3691926      16.547482      20.757956      2187.7661    
       105   0             -146.75335     -414.31366     -266.97208     -262.71499     -713.2539      -0.00017171411 -1.4467939e-07  3.6485841e-07  6.3691926      16.547482      20.757956      2187.7661    
       106   0             -146.75335     -414.31365     -266.96996     -262.7171      -713.2539      -0.0007026915  -8.2356963e-08 -3.671008e-07   6.3691926      16.547482      20.757956      2187.7661    
       107   0             -146.75335     -414.31365     -266.97038     -262.71668     -713.2539      -0.00060072112 -3.8350379e-08  4.6650218e-07  6.3691926      16.547482      20.757956      2187.7661    
       108   0             -146.75335     -414.31366     -266.97186     -262.71521     -713.2539      -0.0002353133  -6.1622168e-09 -3.6142062e-07  6.3691926      16.547482      20.757956      2187.7661    
       109   0             -146.75335     -414.31366     -266.973       -262.71408     -713.2539       4.9518856e-05  2.7654069e-09  1.8569263e-07  6.3691926      16.547482      20.757956      2187.7661    
       110   0             -146.75335     -414.31366     -266.97336     -262.71372     -713.2539       0.00013995467  3.2193048e-09 -8.3561145e-08  6.3691926      16.547482      20.757956      2187.7661    
       111   0             -146.75335     -414.31366     -266.97321     -262.71387     -713.2539       0.00010468306  1.1882272e-09  6.6680408e-08  6.3691926      16.547482      20.757956      2187.7661    
       112   0             -146.75335     -414.31366     -266.9729      -262.71418     -713.2539       2.8500847e-05 -4.7681839e-10 -6.4886798e-08  6.3691926      16.547482      20.757956      2187.7661    
       113   0             -146.75335     -414.31366     -266.97263     -262.71444     -713.2539      -3.840483e-05  -1.1336026e-09  5.7593464e-08  6.3691926      16.547482      20.757956      2187.7661    
       114   0             -146.75335     -414.31366     -266.97257     -262.7145      -713.2539      -5.3727161e-05 -8.5373652e-10 -4.8083011e-08  6.3691926      16.547482      20.757956      2187.7661    
       115   0             -146.75335     -414.31366     -266.97266     -262.71441     -713.2539      -3.2568698e-05 -5.7716203e-10  3.7458008e-08  6.3691926      16.547482      20.757956      2187.7661    
       116   0             -146.75335     -414.31366     -266.97281     -262.71427     -713.2539       4.4254835e-06 -1.9089505e-10 -1.7500499e-08  6.3691926      16.547482      20.757956      2187.7661    
       117   0             -146.75335     -414.31366     -266.97293     -262.71415     -713.2539       3.39507e-05    5.1476517e-12  9.1294582e-09  6.3691926      16.547482      20.757956      2187.7661    
       118   0             -146.75335     -414.31366     -266.97291     -262.71417     -713.2539       2.9251516e-05  1.5423899e-11 -6.3915973e-09  6.3691926      16.547482      20.757956      2187.7661    
       119   0             -146.75335     -414.31366     -266.97283     -262.71424     -713.2539       1.0483133e-05 -2.8228238e-12  4.6523446e-09  6.3691926      16.547482      20.757956      2187.7661    
       120   0             -146.75335     -414.31366     -266.97279     -262.71429     -713.2539      -7.912216e-07  -3.8937691e-12 -2.2768882e-09  6.3691926      16.547482      20.757956      2187.7661    
       121   0             -146.75335     -414.31366     -266.97277     -262.7143      -713.2539      -4.6256283e-06 -5.0472903e-12  1.278144e-09   6.3691926      16.547482      20.757956      2187.7661    
       122   0             -146.75335     -414.31366     -266.97277     -262.7143      -713.2539      -4.2931505e-06 -8.7454182e-12 -3.9287432e-10  6.3691926      16.547482      20.757956      2187.7661    
       123   0             -146.75335     -414.31366     -266.97278     -262.71429     -713.2539      -1.7336152e-06  4.8237003e-12  1.6393467e-10  6.3691926      16.547482      20.757956      2187.7661    
       124   0             -146.75335     -414.31366     -266.97279     -262.71429     -713.2539      -2.6686025e-07  3.8378716e-12 -4.567334e-11   6.3691926      16.547482      20.757956      2187.7661    
       125   0             -146.75335     -414.31366     -266.97279     -262.71428     -713.2539       5.3519457e-07 -9.2739037e-12  1.876441e-11   6.3691926      16.547482      20.757956      2187.7661    
       126   0             -146.75335     -414.31366     -266.97279     -262.71428     -713.2539       6.8192921e-07 -2.858395e-12  -5.1766168e-11  6.3691926      16.547482      20.757956      2187.7661    
       127   0             -146.75335     -414.31366     -266.97279     -262.71428     -713.2539       4.0101426e-07  2.7936047e-12  9.5190904e-12  6.3691926      16.547482      20.757956      2187.7661    
       128   0             -146.75335     -414.31366     -266.97279     -262.71429     -713.2539       1.2288467e-07 -3.2827078e-12 -9.2885132e-12  6.3691926      16.547482      20.757956      2187.7661    
       129   0             -146.75335     -414.31366     -266.97279     -262.71429     -713.2539      -4.6721015e-08  7.5804635e-12  3.2655575e-12  6.3691926      16.547482      20.757956      2187.7661    
       130   0             -146.75335     -414.31366     -266.97279     -262.71429     -713.2539      -6.7066389e-08 -7.6668505e-12 -1.3288996e-11  6.3691926      16.547482      20.757956      2187.7661    
       131   0             -146.75335     -414.31366     -266.97279     -262.71429     -713.2539      -3.9906593e-08 -1.4763292e-11  8.2696542e-12  6.3691926      16.547482      20.757956      2187.7661    
       132   0             -146.75335     -414.31366     -266.97279     -262.71429     -713.2539      -1.3726714e-08  9.1710015e-12  5.020612e-12   6.3691926      16.547482      20.757956      2187.7661    
       133   0             -146.75335     -414.31366     -266.97279     -262.71429     -713.2539       2.9119067e-09  3.8238973e-13  4.5086417e-12  6.3691926      16.547482      20.757956      2187.7661    
       134   0             -146.75335     -414.31366     -266.97279     -262.71429     -713.2539       7.4545391e-09 -5.3521858e-12  2.6913377e-12  6.3691926      16.547482      20.757956      2187.7661    
       135   0             -146.75335     -414.31366     -266.97279     -262.71429     -713.2539       5.7679311e-09 -2.8253646e-12 -5.8647913e-12  6.3691926      16.547482      20.757956      2187.7661    
       136   0             -146.75335     -414.31366     -266.97279     -262.71429     -713.2539       2.6877526e-09  2.3248279e-12 -3.4402371e-12  6.3691926      16.547482      20.757956      2187.7661    
Loop time of 0.014547 on 1 procs for 36 steps with 96 atoms

107.4% CPU use with 1 MPI tasks x 1 OpenMP threads

Minimization stats:
  Stopping criterion = force tolerance
  Energy initial, next-to-last, final = 
     -146.753345273838  -146.753345294524  -146.753345294524
  Force two-norm initial, final = 0.00046623699 6.802486e-11
  Force max component initial, final = 7.1605621e-05 1.2456022e-11
  Final line search alpha, max atom move = 1 1.2456022e-11
  Iterations, force evaluations = 36 72

MPI task timing breakdown:
Section |  min time  |  avg time  |  max time  |%varavg| %total
---------------------------------------------------------------
Pair    | 0.013713   | 0.013713   | 0.013713   |   0.0 | 94.27
Neigh   | 0          | 0          | 0          |   0.0 |  0.00
Comm    | 0.000311   | 0.000311   | 0.000311   |   0.0 |  2.14
Output  | 0.000341   | 0.000341   | 0.000341   |   0.0 |  2.34
Modify  | 0          | 0          | 0          |   0.0 |  0.00
Other   |            | 0.000182   |            |       |  1.25

Nlocal:             96 ave          96 max          96 min
Histogram: 1 0 0 0 0 0 0 0 0 0
Nghost:           1310 ave        1310 max        1310 min
Histogram: 1 0 0 0 0 0 0 0 0 0
Neighs:           6144 ave        6144 max        6144 min
Histogram: 1 0 0 0 0 0 0 0 0 0

Total # of neighbors = 6144
Ave neighs/atom = 64
Neighbor list builds = 0
Dangerous builds = 0
OMP_NUM_THREADS environment is not set. Defaulting to 1 thread. (src/comm.cpp:98)
  using 1 OpenMP thread(s) per MPI task
Loaded 1 plugins from F:\Lammps\LAMMPS 64-bit 2Aug2023\plugins

The 'box' command has been removed and will be ignored

Reading restart file ...
  restart file = 2 Aug 2023, LAMMPS = 2 Aug 2023
  restoring atom style atomic from restart
  triclinic box = (0.025435542 0.066083476 0.10483816) to (6.3945645 16.613566 20.862794) with tilt (0 0 0)
  1 by 1 by 1 MPI processor grid
  pair style eam/alloy stores no restart info
  96 atoms
  read_restart CPU = 0.000 seconds
Changing box ...
  triclinic box = (0.025435542 0.066083476 0.10483816) to (6.3945645 16.6134 20.862794) with tilt (0 0 0)
  triclinic box = (0.025435542 0.066083476 0.10483816) to (6.3945645 16.6134 20.862794) with tilt (0 0 0)
Neighbor list info ...
  update: every = 1 steps, delay = 0 steps, check = yes
  max neighbors/atom: 2000, page size: 100000
  master list distance cutoff = 8.5
  ghost atom cutoff = 8.5
  1 neighbor lists, perpetual/occasional/extra = 1 0 0
  (1) pair eam/alloy, perpetual
      attributes: half, newton on
      pair build: half/nsq/newton
      stencil: none
      bin: none
Setting up cg style minimization ...
  Unit style    : metal
  Current step  : 100
Per MPI rank memory allocation (min/avg/max) = 4.467 | 4.467 | 4.467 Mbytes
   Step          Temp          PotEng         Press           Pxx            Pyy            Pzz            Pxy            Pxz            Pyz             Lx             Ly             Lz           Volume    
       100   0             -146.75335     -406.94592     -257.58413     -253.16972     -710.08391      0.018535111    9.4607265e-07 -1.4495187e-05  6.3691289      16.547317      20.757956      2187.7224    
       101   0             -146.75335     -406.94588     -257.56647     -253.18735     -710.08383      0.01409845     1.540211e-07   3.2235446e-06  6.3691289      16.547317      20.757956      2187.7224    
       102   0             -146.75335     -406.94582     -257.54265     -253.21102     -710.08378      0.0081432137  -1.0090772e-07 -2.2773325e-06  6.3691289      16.547317      20.757956      2187.7224    
       103   0             -146.75335     -406.94577     -257.52677     -253.22679     -710.08376      0.0041716171   8.8331441e-08  1.0914866e-06  6.3691289      16.547317      20.757956      2187.7224    
       104   0             -146.75335     -406.94574     -257.51552     -253.23796     -710.08374      0.0013555018  -2.4931017e-08 -9.0782034e-07  6.3691289      16.547317      20.757956      2187.7224    
       105   0             -146.75335     -406.94572     -257.5094      -253.24404     -710.08374     -0.0001769866  -1.5308957e-08  5.2232804e-07  6.3691289      16.547317      20.757956      2187.7224    
       106   0             -146.75335     -406.94572     -257.5073      -253.24612     -710.08373     -0.00070299633 -9.4527488e-10 -6.8664951e-07  6.3691289      16.547317      20.757956      2187.7224    
       107   0             -146.75335     -406.94572     -257.50773     -253.2457      -710.08373     -0.00059769174  4.1430215e-09  8.0822521e-07  6.3691289      16.547317      20.757956      2187.7224    
       108   0             -146.75335     -406.94572     -257.5092      -253.24424     -710.08373     -0.00023198279  1.2641176e-08 -6.3292414e-07  6.3691289      16.547317      20.757956      2187.7224    
       109   0             -146.75335     -406.94573     -257.51033     -253.24312     -710.08374      5.1452111e-05  1.0363327e-08  3.3082539e-07  6.3691289      16.547317      20.757956      2187.7224    
       110   0             -146.75335     -406.94573     -257.51068     -253.24277     -710.08374      0.00014036768  7.0850725e-09 -1.5141273e-07  6.3691289      16.547317      20.757956      2187.7224    
       111   0             -146.75335     -406.94573     -257.51053     -253.24292     -710.08374      0.00010364822  2.4369702e-09  1.1686618e-07  6.3691289      16.547317      20.757956      2187.7224    
       112   0             -146.75335     -406.94573     -257.51022     -253.24322     -710.08374      2.7280257e-05 -1.7907377e-10 -1.1745643e-07  6.3691289      16.547317      20.757956      2187.7224    
       113   0             -146.75335     -406.94573     -257.50996     -253.24349     -710.08374     -3.9052788e-05 -1.2569681e-09  1.0154526e-07  6.3691289      16.547317      20.757956      2187.7224    
       114   0             -146.75335     -406.94573     -257.5099      -253.24354     -710.08374     -5.3708642e-05 -1.0293108e-09 -8.5299902e-08  6.3691289      16.547317      20.757956      2187.7224    
       115   0             -146.75335     -406.94573     -257.50999     -253.24346     -710.08374     -3.204828e-05  -6.1332474e-10  6.6310037e-08  6.3691289      16.547317      20.757956      2187.7224    
       116   0             -146.75335     -406.94573     -257.51014     -253.24331     -710.08374      5.1629014e-06 -8.685121e-11  -3.0748878e-08  6.3691289      16.547317      20.757956      2187.7224    
       117   0             -146.75335     -406.94573     -257.51025     -253.24319     -710.08374      3.4244594e-05  1.0160209e-10  1.6109205e-08  6.3691289      16.547317      20.757956      2187.7224    
       118   0             -146.75335     -406.94573     -257.51023     -253.24321     -710.08374      2.91127e-05    6.7742775e-11 -1.1289318e-08  6.3691289      16.547317      20.757956      2187.7224    
       119   0             -146.75335     -406.94573     -257.51016     -253.24329     -710.08374      1.0200601e-05  2.5052745e-11  8.1156246e-09  6.3691289      16.547317      20.757956      2187.7224    
       120   0             -146.75335     -406.94573     -257.51011     -253.24333     -710.08374     -9.9347336e-07 -9.4265399e-13 -3.9823504e-09  6.3691289      16.547317      20.757956      2187.7224    
       121   0             -146.75335     -406.94573     -257.5101      -253.24335     -710.08374     -4.7026921e-06 -1.8611699e-12  2.1837602e-09  6.3691289      16.547317      20.757956      2187.7224    
       122   0             -146.75335     -406.94573     -257.5101      -253.24335     -710.08374     -4.2715183e-06 -4.8911292e-13 -6.1889618e-10  6.3691289      16.547317      20.757956      2187.7224    
       123   0             -146.75335     -406.94573     -257.51011     -253.24334     -710.08374     -1.6860052e-06  3.770616e-12   3.1771251e-10  6.3691289      16.547317      20.757956      2187.7224    
       124   0             -146.75335     -406.94573     -257.51012     -253.24333     -710.08374     -2.274706e-07   1.9310432e-13 -9.6758605e-11  6.3691289      16.547317      20.757956      2187.7224    
       125   0             -146.75335     -406.94573     -257.51012     -253.24333     -710.08374      5.5193088e-07 -1.2178277e-11  6.904877e-11   6.3691289      16.547317      20.757956      2187.7224    
       126   0             -146.75335     -406.94573     -257.51012     -253.24333     -710.08374      6.7724273e-07 -1.6922037e-12 -6.0378132e-11  6.3691289      16.547317      20.757956      2187.7224    
       127   0             -146.75335     -406.94573     -257.51012     -253.24333     -710.08374      3.799899e-07  -2.008539e-12   2.3980508e-11  6.3691289      16.547317      20.757956      2187.7224    
       128   0             -146.75335     -406.94573     -257.51012     -253.24333     -710.08374      1.0694963e-07 -1.0099864e-12 -1.7322855e-11  6.3691289      16.547317      20.757956      2187.7224    
       129   0             -146.75335     -406.94573     -257.51012     -253.24333     -710.08374     -5.266194e-08  -2.1749645e-12 -9.648864e-13   6.3691289      16.547317      20.757956      2187.7224    
       130   0             -146.75335     -406.94573     -257.51012     -253.24333     -710.08374     -6.8088216e-08 -6.4601018e-12 -7.685425e-12   6.3691289      16.547317      20.757956      2187.7224    
       131   0             -146.75335     -406.94573     -257.51012     -253.24333     -710.08374     -3.8217706e-08  5.3268844e-12 -8.3974972e-12  6.3691289      16.547317      20.757956      2187.7224    
       132   0             -146.75335     -406.94573     -257.51012     -253.24333     -710.08374     -1.2084669e-08 -2.0352179e-12  3.5565497e-12  6.3691289      16.547317      20.757956      2187.7224    
       133   0             -146.75335     -406.94573     -257.51012     -253.24333     -710.08374      3.7077046e-09 -6.84504e-12    2.0400455e-11  6.3691289      16.547317      20.757956      2187.7224    
       134   0             -146.75335     -406.94573     -257.51012     -253.24333     -710.08374      7.5111305e-09 -9.2613849e-12 -1.295387e-11   6.3691289      16.547317      20.757956      2187.7224    
       135   0             -146.75335     -406.94573     -257.51012     -253.24333     -710.08374      5.5403358e-09 -5.6076479e-12 -7.6663686e-12  6.3691289      16.547317      20.757956      2187.7224    
Loop time of 0.01312 on 1 procs for 35 steps with 96 atoms

119.1% CPU use with 1 MPI tasks x 1 OpenMP threads

Minimization stats:
  Stopping criterion = force tolerance
  Energy initial, next-to-last, final = 
     -146.753352377384  -146.753352398072  -146.753352398071
  Force two-norm initial, final = 0.00046629284 9.8521241e-11
  Force max component initial, final = 7.1618263e-05 2.0106528e-11
  Final line search alpha, max atom move = 1 2.0106528e-11
  Iterations, force evaluations = 35 70

MPI task timing breakdown:
Section |  min time  |  avg time  |  max time  |%varavg| %total
---------------------------------------------------------------
Pair    | 0.012378   | 0.012378   | 0.012378   |   0.0 | 94.34
Neigh   | 0          | 0          | 0          |   0.0 |  0.00
Comm    | 0.000261   | 0.000261   | 0.000261   |   0.0 |  1.99
Output  | 0.000325   | 0.000325   | 0.000325   |   0.0 |  2.48
Modify  | 0          | 0          | 0          |   0.0 |  0.00
Other   |            | 0.000156   |            |       |  1.19

Nlocal:             96 ave          96 max          96 min
Histogram: 1 0 0 0 0 0 0 0 0 0
Nghost:           1310 ave        1310 max        1310 min
Histogram: 1 0 0 0 0 0 0 0 0 0
Neighs:           6144 ave        6144 max        6144 min
Histogram: 1 0 0 0 0 0 0 0 0 0

Total # of neighbors = 6144
Ave neighs/atom = 64
Neighbor list builds = 0
Dangerous builds = 0
OMP_NUM_THREADS environment is not set. Defaulting to 1 thread. (src/comm.cpp:98)
  using 1 OpenMP thread(s) per MPI task
Loaded 1 plugins from F:\Lammps\LAMMPS 64-bit 2Aug2023\plugins

The 'box' command has been removed and will be ignored

Reading restart file ...
  restart file = 2 Aug 2023, LAMMPS = 2 Aug 2023
  restoring atom style atomic from restart
  triclinic box = (0.025435542 0.066083476 0.10483816) to (6.3945645 16.613566 20.862794) with tilt (0 0 0)
  1 by 1 by 1 MPI processor grid
  pair style eam/alloy stores no restart info
  96 atoms
  read_restart CPU = 0.000 seconds
Changing box ...
  triclinic box = (0.025435542 0.066083476 0.10483816) to (6.3945645 16.613731 20.862794) with tilt (0 0 0)
  triclinic box = (0.025435542 0.066083476 0.10483816) to (6.3945645 16.613731 20.862794) with tilt (0 0 0)
Neighbor list info ...
  update: every = 1 steps, delay = 0 steps, check = yes
  max neighbors/atom: 2000, page size: 100000
  master list distance cutoff = 8.5
  ghost atom cutoff = 8.5
  1 neighbor lists, perpetual/occasional/extra = 1 0 0
  (1) pair eam/alloy, perpetual
      attributes: half, newton on
      pair build: half/nsq/newton
      stencil: none
      bin: none
Setting up cg style minimization ...
  Unit style    : metal
  Current step  : 100
Per MPI rank memory allocation (min/avg/max) = 4.467 | 4.467 | 4.467 Mbytes
   Step          Temp          PotEng         Press           Pxx            Pyy            Pzz            Pxy            Pxz            Pyz             Lx             Ly             Lz           Volume    
       100   0             -146.75335     -414.31366     -262.63407     -267.05297     -713.25395      0.018584494   -1.9696856e-06 -6.309714e-06   6.3691289      16.547648      20.757956      2187.7661    
       101   0             -146.75335     -414.31373     -262.65373     -267.03352     -713.25393      0.014124754   -1.767128e-06  -3.0181899e-06  6.3691289      16.547648      20.757956      2187.7661    
       102   0             -146.75335     -414.31372     -262.68004     -267.00719     -713.25392      0.0081264872  -6.107307e-07   3.7279105e-07  6.3691289      16.547648      20.757956      2187.7661    
       103   0             -146.75335     -414.31369     -262.69758     -266.98957     -713.25391      0.004123557   -2.8199968e-07 -5.6596634e-07  6.3691289      16.547648      20.757956      2187.7661    
       104   0             -146.75335     -414.31367     -262.70991     -266.97719     -713.25391      0.0013136882  -2.3496995e-07  4.8396212e-07  6.3691289      16.547648      20.757956      2187.7661    
       105   0             -146.75335     -414.31366     -262.71642     -266.97065     -713.2539      -0.00016889942 -1.4479018e-07 -2.7450164e-07  6.3691289      16.547648      20.757956      2187.7661    
       106   0             -146.75335     -414.31365     -262.71862     -266.96844     -713.2539      -0.00066550837 -8.364034e-08   4.1406961e-07  6.3691289      16.547648      20.757956      2187.7661    
       107   0             -146.75335     -414.31365     -262.71819     -266.96887     -713.2539      -0.0005649374  -3.8857607e-08 -4.5300373e-07  6.3691289      16.547648      20.757956      2187.7661    
       108   0             -146.75335     -414.31366     -262.71667     -266.9704      -713.2539      -0.00021691558 -6.3997354e-09  3.7565537e-07  6.3691289      16.547648      20.757956      2187.7661    
       109   0             -146.75335     -414.31366     -262.7155      -266.97158     -713.2539       4.8760764e-05  2.7593039e-09 -1.7610267e-07  6.3691289      16.547648      20.757956      2187.7661    
       110   0             -146.75335     -414.31366     -262.71513     -266.97195     -713.2539       0.00013073075  3.2724303e-09  8.997861e-08   6.3691289      16.547648      20.757956      2187.7661    
       111   0             -146.75335     -414.31366     -262.71528     -266.9718      -713.2539       9.6072844e-05  1.1931665e-09 -6.490625e-08   6.3691289      16.547648      20.757956      2187.7661    
       112   0             -146.75335     -414.31366     -262.71559     -266.97149     -713.2539       2.4816203e-05 -4.71578e-10    6.5535292e-08  6.3691289      16.547648      20.757956      2187.7661    
       113   0             -146.75335     -414.31366     -262.71586     -266.97122     -713.2539      -3.6232873e-05 -1.1217422e-09 -5.7890416e-08  6.3691289      16.547648      20.757956      2187.7661    
       114   0             -146.75335     -414.31366     -262.71592     -266.97116     -713.2539      -4.9447469e-05 -8.6063986e-10  4.747972e-08   6.3691289      16.547648      20.757956      2187.7661    
       115   0             -146.75335     -414.31366     -262.71583     -266.97124     -713.2539      -2.9296819e-05 -5.7582938e-10 -3.801685e-08   6.3691289      16.547648      20.757956      2187.7661    
       116   0             -146.75335     -414.31366     -262.71568     -266.97139     -713.2539       4.8744887e-06 -1.6898577e-10  1.7529117e-08  6.3691289      16.547648      20.757956      2187.7661    
       117   0             -146.75335     -414.31366     -262.71557     -266.97151     -713.2539       3.1292785e-05  7.5741115e-12 -8.9243842e-09  6.3691289      16.547648      20.757956      2187.7661    
       118   0             -146.75335     -414.31366     -262.71559     -266.97149     -713.2539       2.6520093e-05  1.0276248e-11  6.5086524e-09  6.3691289      16.547648      20.757956      2187.7661    
       119   0             -146.75335     -414.31366     -262.71566     -266.97141     -713.2539       9.1565056e-06 -5.5516382e-13 -4.6117084e-09  6.3691289      16.547648      20.757956      2187.7661    
       120   0             -146.75335     -414.31366     -262.71571     -266.97137     -713.2539      -9.8537662e-07 -3.976345e-13   2.2597448e-09  6.3691289      16.547648      20.757956      2187.7661    
       121   0             -146.75335     -414.31366     -262.71572     -266.97135     -713.2539      -4.2693957e-06  6.2973617e-12 -1.2524083e-09  6.3691289      16.547648      20.757956      2187.7661    
       122   0             -146.75335     -414.31366     -262.71572     -266.97136     -713.2539      -3.8371967e-06  8.1051377e-13  3.6114931e-10  6.3691289      16.547648      20.757956      2187.7661    
       123   0             -146.75335     -414.31366     -262.71571     -266.97137     -713.2539      -1.4834463e-06  1.5727524e-12 -1.7716078e-10  6.3691289      16.547648      20.757956      2187.7661    
       124   0             -146.75335     -414.31366     -262.7157      -266.97137     -713.2539      -1.7582422e-07  3.4643747e-12  4.2692987e-11  6.3691289      16.547648      20.757956      2187.7661    
       125   0             -146.75335     -414.31366     -262.7157      -266.97137     -713.2539       4.9942087e-07  9.437785e-12  -3.0308515e-11  6.3691289      16.547648      20.757956      2187.7661    
       126   0             -146.75335     -414.31366     -262.7157      -266.97138     -713.2539       5.8974545e-07  9.7693588e-13  2.5448608e-11  6.3691289      16.547648      20.757956      2187.7661    
       127   0             -146.75335     -414.31366     -262.7157      -266.97137     -713.2539       3.1264817e-07  6.2910097e-12 -5.5267384e-11  6.3691289      16.547648      20.757956      2187.7661    
       128   0             -146.75335     -414.31366     -262.7157      -266.97137     -713.2539       7.5116958e-08 -9.7147317e-12 -7.6198458e-12  6.3691289      16.547648      20.757956      2187.7661    
       129   0             -146.75335     -414.31366     -262.7157      -266.97137     -713.2539      -5.4773573e-08  1.8878111e-12 -6.8849207e-12  6.3691289      16.547648      20.757956      2187.7661    
       130   0             -146.75335     -414.31366     -262.7157      -266.97137     -713.2539      -6.1980148e-08  4.4209842e-12 -8.2556799e-12  6.3691289      16.547648      20.757956      2187.7661    
       131   0             -146.75335     -414.31366     -262.7157      -266.97137     -713.2539      -3.1811067e-08  2.1114011e-12  1.8713594e-11  6.3691289      16.547648      20.757956      2187.7661    
       132   0             -146.75335     -414.31366     -262.7157      -266.97137     -713.2539      -8.4728366e-09  1.3617394e-11  7.358779e-12   6.3691289      16.547648      20.757956      2187.7661    
       133   0             -146.75335     -414.31366     -262.7157      -266.97137     -713.2539       4.2952453e-09 -3.1569384e-12  1.4428543e-11  6.3691289      16.547648      20.757956      2187.7661    
       134   0             -146.75335     -414.31366     -262.7157      -266.97137     -713.2539       6.6908115e-09  5.1768709e-12  1.1183312e-11  6.3691289      16.547648      20.757956      2187.7661    
       135   0             -146.75335     -414.31366     -262.7157      -266.97137     -713.2539       4.6046558e-09  2.9155629e-12 -8.0479698e-13  6.3691289      16.547648      20.757956      2187.7661    
Loop time of 0.014207 on 1 procs for 35 steps with 96 atoms

110.0% CPU use with 1 MPI tasks x 1 OpenMP threads

Minimization stats:
  Stopping criterion = force tolerance
  Energy initial, next-to-last, final = 
     -146.753345273751   -146.75334529453  -146.753345294531
  Force two-norm initial, final = 0.00046654106 9.9294543e-11
  Force max component initial, final = 7.1615544e-05 2.0156245e-11
  Final line search alpha, max atom move = 1 2.0156245e-11
  Iterations, force evaluations = 35 70

MPI task timing breakdown:
Section |  min time  |  avg time  |  max time  |%varavg| %total
---------------------------------------------------------------
Pair    | 0.013428   | 0.013428   | 0.013428   |   0.0 | 94.52
Neigh   | 0          | 0          | 0          |   0.0 |  0.00
Comm    | 0.000267   | 0.000267   | 0.000267   |   0.0 |  1.88
Output  | 0.000346   | 0.000346   | 0.000346   |   0.0 |  2.44
Modify  | 0          | 0          | 0          |   0.0 |  0.00
Other   |            | 0.000166   |            |       |  1.17

Nlocal:             96 ave          96 max          96 min
Histogram: 1 0 0 0 0 0 0 0 0 0
Nghost:           1310 ave        1310 max        1310 min
Histogram: 1 0 0 0 0 0 0 0 0 0
Neighs:           6144 ave        6144 max        6144 min
Histogram: 1 0 0 0 0 0 0 0 0 0

Total # of neighbors = 6144
Ave neighs/atom = 64
Neighbor list builds = 0
Dangerous builds = 0
OMP_NUM_THREADS environment is not set. Defaulting to 1 thread. (src/comm.cpp:98)
  using 1 OpenMP thread(s) per MPI task
Loaded 1 plugins from F:\Lammps\LAMMPS 64-bit 2Aug2023\plugins

The 'box' command has been removed and will be ignored

Reading restart file ...
  restart file = 2 Aug 2023, LAMMPS = 2 Aug 2023
  restoring atom style atomic from restart
  triclinic box = (0.025435542 0.066083476 0.10483816) to (6.3945645 16.613566 20.862794) with tilt (0 0 0)
  1 by 1 by 1 MPI processor grid
  pair style eam/alloy stores no restart info
  96 atoms
  read_restart CPU = 0.000 seconds
Changing box ...
  triclinic box = (0.025435542 0.066083476 0.10483816) to (6.3945645 16.613566 20.862586) with tilt (0 0 0)
Neighbor list info ...
  update: every = 1 steps, delay = 0 steps, check = yes
  max neighbors/atom: 2000, page size: 100000
  master list distance cutoff = 8.5
  ghost atom cutoff = 8.5
  1 neighbor lists, perpetual/occasional/extra = 1 0 0
  (1) pair eam/alloy, perpetual
      attributes: half, newton on
      pair build: half/nsq/newton
      stencil: none
      bin: none
Setting up cg style minimization ...
  Unit style    : metal
  Current step  : 100
Per MPI rank memory allocation (min/avg/max) = 4.467 | 4.467 | 4.467 Mbytes
   Step          Temp          PotEng         Press           Pxx            Pyy            Pzz            Pxy            Pxz            Pyz             Lx             Ly             Lz           Volume    
       100   0             -146.75336     -407.28114     -258.52048     -258.52702     -704.79591      0.018559593    2.0135681e-06 -5.476071e-06   6.3691289      16.547482      20.757748      2187.7224    
       101   0             -146.75336     -407.28118     -258.52136     -258.5263      -704.79586      0.014135282   -8.6983291e-07 -2.6347423e-06  6.3691289      16.547482      20.757748      2187.7224    
       102   0             -146.75336     -407.28119     -258.5224      -258.52532     -704.79585      0.0083297979  -7.432253e-07  -2.4184528e-07  6.3691289      16.547482      20.757748      2187.7224    
       103   0             -146.75336     -407.28119     -258.52308     -258.52465     -704.79585      0.0044913237  -3.7385042e-07 -8.0306273e-08  6.3691289      16.547482      20.757748      2187.7224    
       104   0             -146.75336     -407.28119     -258.52358     -258.52415     -704.79585      0.001630711   -2.4618186e-07  4.5468466e-08  6.3691289      16.547482      20.757748      2187.7224    
       105   0             -146.75336     -407.2812      -258.52391     -258.52383     -704.79585     -0.00024125883 -1.4313373e-07  4.4329007e-08  6.3691289      16.547482      20.757748      2187.7224    
       106   0             -146.75336     -407.2812      -258.52404     -258.5237      -704.79585     -0.00098332562 -7.1956646e-08  2.2637592e-08  6.3691289      16.547482      20.757748      2187.7224    
       107   0             -146.75336     -407.2812      -258.52402     -258.52373     -704.79585     -0.00083676816 -3.4055524e-08  7.7496804e-09  6.3691289      16.547482      20.757748      2187.7224    
       108   0             -146.75336     -407.2812      -258.52393     -258.52381     -704.79585     -0.00034209541 -4.414361e-09   5.956224e-09   6.3691289      16.547482      20.757748      2187.7224    
       109   0             -146.75336     -407.2812      -258.52386     -258.52389     -704.79585      8.3119292e-05  2.7319078e-09  4.8233134e-09  6.3691289      16.547482      20.757748      2187.7224    
       110   0             -146.75336     -407.2812      -258.52383     -258.52391     -704.79585      0.00022826187  2.7228256e-09  2.6669498e-09  6.3691289      16.547482      20.757748      2187.7224    
       111   0             -146.75336     -407.2812      -258.52384     -258.5239      -704.79585      0.0001685985   1.0608364e-09  9.4673713e-10  6.3691289      16.547482      20.757748      2187.7224    
       112   0             -146.75336     -407.2812      -258.52386     -258.52388     -704.79585      4.5908506e-05 -5.1595061e-10  1.6191607e-10  6.3691289      16.547482      20.757748      2187.7224    
       113   0             -146.75336     -407.2812      -258.52388     -258.52386     -704.79585     -7.0968556e-05 -1.110233e-09  -2.6380337e-10  6.3691289      16.547482      20.757748      2187.7224    
       114   0             -146.75336     -407.2812      -258.52389     -258.52386     -704.79585     -9.7584207e-05 -7.7160422e-10 -3.0665792e-10  6.3691289      16.547482      20.757748      2187.7224    
       115   0             -146.75336     -407.2812      -258.52388     -258.52386     -704.79585     -5.9004077e-05 -5.8601445e-10 -1.7350233e-10  6.3691289      16.547482      20.757748      2187.7224    
       116   0             -146.75336     -407.2812      -258.52387     -258.52387     -704.79585      1.0659211e-05 -1.8813443e-10  2.9915925e-11  6.3691289      16.547482      20.757748      2187.7224    
       117   0             -146.75336     -407.2812      -258.52386     -258.52388     -704.79585      7.0818152e-05  3.0133167e-11  9.2965121e-11  6.3691289      16.547482      20.757748      2187.7224    
       118   0             -146.75336     -407.2812      -258.52386     -258.52388     -704.79585      6.0168012e-05  1.008589e-11   4.8505392e-11  6.3691289      16.547482      20.757748      2187.7224    
       119   0             -146.75336     -407.2812      -258.52387     -258.52388     -704.79585      2.2561325e-05  1.0684259e-11  1.2355501e-11  6.3691289      16.547482      20.757748      2187.7224    
       120   0             -146.75336     -407.2812      -258.52387     -258.52387     -704.79585     -2.5946304e-06  2.1381222e-12 -9.8896092e-12  6.3691289      16.547482      20.757748      2187.7224    
       121   0             -146.75336     -407.2812      -258.52387     -258.52387     -704.79585     -1.1722245e-05  9.6259964e-12 -7.7902349e-12  6.3691289      16.547482      20.757748      2187.7224    
       122   0             -146.75336     -407.2812      -258.52387     -258.52387     -704.79585     -1.0569024e-05 -2.5116266e-12  9.3503145e-12  6.3691289      16.547482      20.757748      2187.7224    
       123   0             -146.75336     -407.2812      -258.52387     -258.52387     -704.79585     -4.4071545e-06 -2.7695225e-12  1.1884174e-11  6.3691289      16.547482      20.757748      2187.7224    
       124   0             -146.75336     -407.2812      -258.52387     -258.52387     -704.79585     -5.8678322e-07 -2.2994659e-12 -3.2910312e-12  6.3691289      16.547482      20.757748      2187.7224    
       125   0             -146.75336     -407.2812      -258.52387     -258.52387     -704.79585      1.6848765e-06  1.2433632e-11 -7.7101982e-12  6.3691289      16.547482      20.757748      2187.7224    
       126   0             -146.75336     -407.2812      -258.52387     -258.52387     -704.79585      2.0227305e-06 -2.1978321e-13 -3.1055494e-12  6.3691289      16.547482      20.757748      2187.7224    
       127   0             -146.75336     -407.2812      -258.52387     -258.52387     -704.79585      1.1147054e-06 -9.4074836e-12 -9.7562147e-12  6.3691289      16.547482      20.757748      2187.7224    
       128   0             -146.75336     -407.2812      -258.52387     -258.52387     -704.79585      3.012643e-07  -4.2178049e-13  4.9870462e-12  6.3691289      16.547482      20.757748      2187.7224    
       129   0             -146.75336     -407.2812      -258.52387     -258.52387     -704.79585     -1.8331224e-07 -1.3847613e-12 -8.003666e-13   6.3691289      16.547482      20.757748      2187.7224    
       130   0             -146.75336     -407.2812      -258.52387     -258.52387     -704.79585     -2.2158103e-07  4.836501e-12  -7.1988529e-12  6.3691289      16.547482      20.757748      2187.7224    
       131   0             -146.75336     -407.2812      -258.52387     -258.52387     -704.79585     -1.2019261e-07  2.7771451e-12  3.125241e-13   6.3691289      16.547482      20.757748      2187.7224    
       132   0             -146.75336     -407.2812      -258.52387     -258.52387     -704.79585     -3.6352996e-08  2.5256013e-12 -1.0341245e-12  6.3691289      16.547482      20.757748      2187.7224    
       133   0             -146.75336     -407.2812      -258.52387     -258.52387     -704.79585      1.4376589e-08 -1.9767785e-12  9.4856146e-12  6.3691289      16.547482      20.757748      2187.7224    
       134   0             -146.75336     -407.2812      -258.52387     -258.52387     -704.79585      2.5733405e-08  1.4177923e-12  6.796764e-12   6.3691289      16.547482      20.757748      2187.7224    
       135   0             -146.75336     -407.2812      -258.52387     -258.52387     -704.79585      1.8410663e-08 -1.5727839e-12 -2.6097668e-11  6.3691289      16.547482      20.757748      2187.7224    
Loop time of 0.013277 on 1 procs for 35 steps with 96 atoms

0.0% CPU use with 1 MPI tasks x 1 OpenMP threads

Minimization stats:
  Stopping criterion = force tolerance
  Energy initial, next-to-last, final = 
     -146.753358543747  -146.753358563948  -146.753358563949
  Force two-norm initial, final = 0.00046474149 9.4452931e-11
  Force max component initial, final = 7.1621902e-05 2.0467329e-11
  Final line search alpha, max atom move = 1 2.0467329e-11
  Iterations, force evaluations = 35 70

MPI task timing breakdown:
Section |  min time  |  avg time  |  max time  |%varavg| %total
---------------------------------------------------------------
Pair    | 0.012506   | 0.012506   | 0.012506   |   0.0 | 94.19
Neigh   | 0          | 0          | 0          |   0.0 |  0.00
Comm    | 0.000265   | 0.000265   | 0.000265   |   0.0 |  2.00
Output  | 0.000351   | 0.000351   | 0.000351   |   0.0 |  2.64
Modify  | 0          | 0          | 0          |   0.0 |  0.00
Other   |            | 0.000155   |            |       |  1.17

Nlocal:             96 ave          96 max          96 min
Histogram: 1 0 0 0 0 0 0 0 0 0
Nghost:           1310 ave        1310 max        1310 min
Histogram: 1 0 0 0 0 0 0 0 0 0
Neighs:           6144 ave        6144 max        6144 min
Histogram: 1 0 0 0 0 0 0 0 0 0

Total # of neighbors = 6144
Ave neighs/atom = 64
Neighbor list builds = 0
Dangerous builds = 0
OMP_NUM_THREADS environment is not set. Defaulting to 1 thread. (src/comm.cpp:98)
  using 1 OpenMP thread(s) per MPI task
Loaded 1 plugins from F:\Lammps\LAMMPS 64-bit 2Aug2023\plugins

The 'box' command has been removed and will be ignored

Reading restart file ...
  restart file = 2 Aug 2023, LAMMPS = 2 Aug 2023
  restoring atom style atomic from restart
  triclinic box = (0.025435542 0.066083476 0.10483816) to (6.3945645 16.613566 20.862794) with tilt (0 0 0)
  1 by 1 by 1 MPI processor grid
  pair style eam/alloy stores no restart info
  96 atoms
  read_restart CPU = 0.000 seconds
Changing box ...
  triclinic box = (0.025435542 0.066083476 0.10483816) to (6.3945645 16.613566 20.863002) with tilt (0 0 0)
Neighbor list info ...
  update: every = 1 steps, delay = 0 steps, check = yes
  max neighbors/atom: 2000, page size: 100000
  master list distance cutoff = 8.5
  ghost atom cutoff = 8.5
  1 neighbor lists, perpetual/occasional/extra = 1 0 0
  (1) pair eam/alloy, perpetual
      attributes: half, newton on
      pair build: half/nsq/newton
      stencil: none
      bin: none
Setting up cg style minimization ...
  Unit style    : metal
  Current step  : 100
Per MPI rank memory allocation (min/avg/max) = 4.467 | 4.467 | 4.467 Mbytes
   Step          Temp          PotEng         Press           Pxx            Pyy            Pzz            Pxy            Pxz            Pyz             Lx             Ly             Lz           Volume    
       100   0             -146.75334     -413.98715     -261.69994     -261.70649     -718.55502      0.018567983   -1.818374e-06  -5.7648624e-06  6.3691289      16.547482      20.758163      2187.7661    
       101   0             -146.75334     -413.98724     -261.70089     -261.70583     -718.55501      0.014141409   -1.7727777e-06 -2.5313407e-06  6.3691289      16.547482      20.758163      2187.7661    
       102   0             -146.75334     -413.98727     -261.70194     -261.70486     -718.555        0.0083401501  -6.2156936e-07 -4.0346192e-07  6.3691289      16.547482      20.758163      2187.7661    
       103   0             -146.75334     -413.98727     -261.70262     -261.7042      -718.555        0.0045035394  -3.0002317e-07 -4.618422e-08   6.3691289      16.547482      20.758163      2187.7661    
       104   0             -146.75334     -413.98727     -261.70312     -261.7037      -718.555        0.0016395171  -2.4369951e-07  5.0753577e-08  6.3691289      16.547482      20.758163      2187.7661    
       105   0             -146.75334     -413.98727     -261.70345     -261.70337     -718.555       -0.00023674348 -1.4278508e-07  4.4425315e-08  6.3691289      16.547482      20.758163      2187.7661    
       106   0             -146.75334     -413.98728     -261.70358     -261.70324     -718.555       -0.00098399448 -7.1724549e-08  2.2655605e-08  6.3691289      16.547482      20.758163      2187.7661    
       107   0             -146.75334     -413.98728     -261.70356     -261.70327     -718.555       -0.00083965122 -3.3825969e-08  7.7646978e-09  6.3691289      16.547482      20.758163      2187.7661    
       108   0             -146.75334     -413.98728     -261.70347     -261.70335     -718.555       -0.00034500538 -4.3641022e-09  5.9744806e-09  6.3691289      16.547482      20.758163      2187.7661    
       109   0             -146.75334     -413.98728     -261.7034      -261.70343     -718.555        8.1700116e-05  2.7196866e-09  4.8007728e-09  6.3691289      16.547482      20.758163      2187.7661    
       110   0             -146.75334     -413.98728     -261.70337     -261.70345     -718.555        0.0002284072   2.6909362e-09  2.6703386e-09  6.3691289      16.547482      20.758163      2187.7661    
[...]
       106   0             -146.75335     -410.63096     -260.11116     -260.11237     -711.66934      2.1276528      3.7723008e-07  1.1937294e-07  6.3691289      16.547482      20.757956      2187.7442    
       107   0             -146.75335     -410.63096     -260.11114     -260.11239     -711.66934      2.1281208     -5.3374198e-07  7.7308974e-09  6.3691289      16.547482      20.757956      2187.7442    
       108   0             -146.75335     -410.63096     -260.1111      -260.11245     -711.66934      2.1297524      4.2599446e-07  6.4145048e-08  6.3691289      16.547482      20.757956      2187.7442    
       109   0             -146.75335     -410.63097     -260.11106     -260.11249     -711.66934      2.1309699     -1.9372213e-07 -4.9051368e-09  6.3691289      16.547482      20.757956      2187.7442    
       110   0             -146.75335     -410.63097     -260.11106     -260.1125      -711.66935      2.1313403      1.0325198e-07  1.5992453e-08  6.3691289      16.547482      20.757956      2187.7442    
       111   0             -146.75335     -410.63097     -260.11106     -260.11249     -711.66935      2.1311854     -7.3706782e-08 -5.8140767e-09  6.3691289      16.547482      20.757956      2187.7442    
       112   0             -146.75335     -410.63097     -260.11107     -260.11248     -711.66934      2.1308645      7.2596416e-08  6.248881e-09   6.3691289      16.547482      20.757956      2187.7442    
       113   0             -146.75335     -410.63097     -260.11108     -260.11247     -711.66934      2.1305933     -6.6041554e-08 -6.9251281e-09  6.3691289      16.547482      20.757956      2187.7442    
       114   0             -146.75335     -410.63097     -260.11108     -260.11247     -711.66934      2.1305342      5.2482252e-08  4.2267554e-09  6.3691289      16.547482      20.757956      2187.7442    
       115   0             -146.75335     -410.63097     -260.11108     -260.11247     -711.66934      2.1306228     -4.3208468e-08 -4.1269411e-09  6.3691289      16.547482      20.757956      2187.7442    
       116   0             -146.75335     -410.63097     -260.11107     -260.11248     -711.66934      2.1307727      1.9454296e-08  2.0093441e-09  6.3691289      16.547482      20.757956      2187.7442    
       117   0             -146.75335     -410.63097     -260.11107     -260.11248     -711.66934      2.130887      -9.9338946e-09 -7.0709205e-10  6.3691289      16.547482      20.757956      2187.7442    
       118   0             -146.75335     -410.63097     -260.11107     -260.11248     -711.66934      2.1308668      7.3292241e-09  7.7617252e-10  6.3691289      16.547482      20.757956      2187.7442    
       119   0             -146.75335     -410.63097     -260.11107     -260.11248     -711.66934      2.1307917     -5.1921384e-09 -4.4188814e-10  6.3691289      16.547482      20.757956      2187.7442    
       120   0             -146.75335     -410.63097     -260.11108     -260.11248     -711.66934      2.1307485      2.5094685e-09  2.4917259e-10  6.3691289      16.547482      20.757956      2187.7442    
       121   0             -146.75335     -410.63097     -260.11108     -260.11248     -711.66934      2.1307344     -1.3882563e-09 -1.31053e-10    6.3691289      16.547482      20.757956      2187.7442    
       122   0             -146.75335     -410.63097     -260.11108     -260.11248     -711.66934      2.130736       4.1128268e-10  5.0357165e-11  6.3691289      16.547482      20.757956      2187.7442    
       123   0             -146.75335     -410.63097     -260.11108     -260.11248     -711.66934      2.1307459     -1.9451255e-10 -1.0246496e-11  6.3691289      16.547482      20.757956      2187.7442    
       124   0             -146.75335     -410.63097     -260.11108     -260.11248     -711.66934      2.1307514      5.2343452e-11 -1.1309194e-11  6.3691289      16.547482      20.757956      2187.7442    
       125   0             -146.75335     -410.63097     -260.11108     -260.11248     -711.66934      2.1307543     -3.7379287e-11  3.0369162e-12  6.3691289      16.547482      20.757956      2187.7442    
       126   0             -146.75335     -410.63097     -260.11108     -260.11248     -711.66934      2.1307547      3.9330638e-11 -2.28712e-11    6.3691289      16.547482      20.757956      2187.7442    
       127   0             -146.75335     -410.63097     -260.11108     -260.11248     -711.66934      2.1307536     -2.6582069e-11  9.145685e-12   6.3691289      16.547482      20.757956      2187.7442    
       128   0             -146.75335     -410.63097     -260.11108     -260.11248     -711.66934      2.1307526      1.3701377e-11  2.2556138e-11  6.3691289      16.547482      20.757956      2187.7442    
       129   0             -146.75335     -410.63097     -260.11108     -260.11248     -711.66934      2.130752      -9.0783532e-12 -2.4150503e-12  6.3691289      16.547482      20.757956      2187.7442    
       130   0             -146.75335     -410.63097     -260.11108     -260.11248     -711.66934      2.130752       6.6035936e-12 -1.966786e-11   6.3691289      16.547482      20.757956      2187.7442    
       131   0             -146.75335     -410.63097     -260.11108     -260.11248     -711.66934      2.1307521     -4.8720241e-12  5.4672114e-12  6.3691289      16.547482      20.757956      2187.7442    
       132   0             -146.75335     -410.63097     -260.11108     -260.11248     -711.66934      2.1307522     -2.9600564e-12  4.6325518e-12  6.3691289      16.547482      20.757956      2187.7442    
       133   0             -146.75335     -410.63097     -260.11108     -260.11248     -711.66934      2.1307523      5.3738363e-13 -1.4851734e-11  6.3691289      16.547482      20.757956      2187.7442    
       134   0             -146.75335     -410.63097     -260.11108     -260.11248     -711.66934      2.1307523      1.0178529e-11 -1.949953e-11   6.3691289      16.547482      20.757956      2187.7442    
       135   0             -146.75335     -410.63097     -260.11108     -260.11248     -711.66934      2.1307523      5.8565923e-12  6.8252802e-12  6.3691289      16.547482      20.757956      2187.7442    
       136   0             -146.75335     -410.63097     -260.11108     -260.11248     -711.66934      2.1307523     -7.9019531e-13 -5.3801883e-13  6.3691289      16.547482      20.757956      2187.7442    
Loop time of 0.013707 on 1 procs for 36 steps with 96 atoms

114.0% CPU use with 1 MPI tasks x 1 OpenMP threads

Minimization stats:
  Stopping criterion = force tolerance
  Energy initial, next-to-last, final = 
     -146.753348857632  -146.753348878619  -146.753348878617
  Force two-norm initial, final = 0.00046723128 6.9675418e-11
  Force max component initial, final = 6.7569753e-05 1.2713084e-11
  Final line search alpha, max atom move = 1 1.2713084e-11
  Iterations, force evaluations = 36 72

MPI task timing breakdown:
Section |  min time  |  avg time  |  max time  |%varavg| %total
---------------------------------------------------------------
Pair    | 0.012849   | 0.012849   | 0.012849   |   0.0 | 93.74
Neigh   | 0          | 0          | 0          |   0.0 |  0.00
Comm    | 0.000296   | 0.000296   | 0.000296   |   0.0 |  2.16
Output  | 0.000406   | 0.000406   | 0.000406   |   0.0 |  2.96
Modify  | 0          | 0          | 0          |   0.0 |  0.00
Other   |            | 0.000156   |            |       |  1.14

Nlocal:             96 ave          96 max          96 min
Histogram: 1 0 0 0 0 0 0 0 0 0
Nghost:           1310 ave        1310 max        1310 min
Histogram: 1 0 0 0 0 0 0 0 0 0
Neighs:           6144 ave        6144 max        6144 min
Histogram: 1 0 0 0 0 0 0 0 0 0

Total # of neighbors = 6144
Ave neighs/atom = 64
Neighbor list builds = 0
Dangerous builds = 0
OMP_NUM_THREADS environment is not set. Defaulting to 1 thread. (src/comm.cpp:98)
  using 1 OpenMP thread(s) per MPI task
Loaded 1 plugins from F:\Lammps\LAMMPS 64-bit 2Aug2023\plugins

The 'box' command has been removed and will be ignored

Reading restart file ...
  restart file = 2 Aug 2023, LAMMPS = 2 Aug 2023
  restoring atom style atomic from restart
  triclinic box = (0.025435542 0.066083476 0.10483816) to (6.3945645 16.613566 20.862794) with tilt (0 0 0)
  1 by 1 by 1 MPI processor grid
  pair style eam/alloy stores no restart info
  96 atoms
  read_restart CPU = 0.000 seconds
Changing box ...
  triclinic box = (0.025435542 0.066083476 0.10483816) to (6.3945645 16.613566 20.862794) with tilt (0.00016547482 0 0)
Neighbor list info ...
  update: every = 1 steps, delay = 0 steps, check = yes
  max neighbors/atom: 2000, page size: 100000
  master list distance cutoff = 8.5
  ghost atom cutoff = 8.5
  1 neighbor lists, perpetual/occasional/extra = 1 0 0
  (1) pair eam/alloy, perpetual
      attributes: half, newton on
      pair build: half/nsq/newton
      stencil: none
      bin: none
Setting up cg style minimization ...
  Unit style    : metal
  Current step  : 100
Per MPI rank memory allocation (min/avg/max) = 4.467 | 4.467 | 4.467 Mbytes
   Step          Temp          PotEng         Press           Pxx            Pyy            Pzz            Pxy            Pxz            Pyz             Lx             Ly             Lz           Volume    
       100   0             -146.75335     -410.63099     -260.10794     -260.11562     -711.66942     -2.1899507     -2.3523311e-06 -4.364151e-06   6.3691289      16.547482      20.757956      2187.7442    
       101   0             -146.75335     -410.63103     -260.1088      -260.11491     -711.66939     -2.175825      -1.9944773e-07 -3.4387727e-06  6.3691289      16.547482      20.757956      2187.7442    
       102   0             -146.75335     -410.63101     -260.10978     -260.1139      -711.66937     -2.1570118     -1.4156226e-06 -3.5026023e-07  6.3691289      16.547482      20.757956      2187.7442    
       103   0             -146.75335     -410.63099     -260.11041     -260.11322     -711.66936     -2.1444959      5.8059629e-07 -4.3700073e-07  6.3691289      16.547482      20.757956      2187.7442    
       104   0             -146.75335     -410.63097     -260.11085     -260.11272     -711.66935     -2.1354202     -5.2190956e-07 -1.5285989e-07  6.3691289      16.547482      20.757956      2187.7442    
       105   0             -146.75335     -410.63096     -260.11111     -260.11244     -711.66934     -2.1301179      3.2226957e-07 -1.5718331e-07  6.3691289      16.547482      20.757956      2187.7442    
       106   0             -146.75335     -410.63096     -260.1112      -260.11234     -711.66934     -2.1281987     -4.7126789e-07 -3.4045551e-08  6.3691289      16.547482      20.757956      2187.7442    
       107   0             -146.75335     -410.63096     -260.11118     -260.11236     -711.66934     -2.1285795      4.8661677e-07 -7.4696327e-08  6.3691289      16.547482      20.757956      2187.7442    
       108   0             -146.75335     -410.63096     -260.11111     -260.11244     -711.66934     -2.1298935     -4.0548735e-07  2.9139748e-08  6.3691289      16.547482      20.757956      2187.7442    
       109   0             -146.75335     -410.63097     -260.11106     -260.11249     -711.66934     -2.130948       2.0869108e-07 -1.913006e-08   6.3691289      16.547482      20.757956      2187.7442    
       110   0             -146.75335     -410.63097     -260.11105     -260.11251     -711.66935     -2.131288      -9.2784169e-08  9.3068842e-09  6.3691289      16.547482      20.757956      2187.7442    
       111   0             -146.75335     -410.63097     -260.11106     -260.1125      -711.66935     -2.1311483      7.5564941e-08 -7.4308309e-09  6.3691289      16.547482      20.757956      2187.7442    
       112   0             -146.75335     -410.63097     -260.11107     -260.11248     -711.66934     -2.1308576     -7.2193819e-08  6.1721419e-09  6.3691289      16.547482      20.757956      2187.7442    
       113   0             -146.75335     -410.63097     -260.11108     -260.11247     -711.66934     -2.130598       6.4804766e-08 -6.4757084e-09  6.3691289      16.547482      20.757956      2187.7442    
       114   0             -146.75335     -410.63097     -260.11109     -260.11247     -711.66934     -2.1305402     -5.4132251e-08  4.6027238e-09  6.3691289      16.547482      20.757956      2187.7442    
       115   0             -146.75335     -410.63097     -260.11108     -260.11247     -711.66934     -2.1306253      4.0914399e-08 -4.0106134e-09  6.3691289      16.547482      20.757956      2187.7442    
       116   0             -146.75335     -410.63097     -260.11107     -260.11248     -711.66934     -2.1307733     -1.9855099e-08  1.7936322e-09  6.3691289      16.547482      20.757956      2187.7442    
       117   0             -146.75335     -410.63097     -260.11107     -260.11249     -711.66934     -2.1308925      1.0180259e-08 -9.3522728e-10  6.3691289      16.547482      20.757956      2187.7442    
       118   0             -146.75335     -410.63097     -260.11107     -260.11248     -711.66934     -2.1308714     -6.9816093e-09  6.6044067e-10  6.3691289      16.547482      20.757956      2187.7442    
       119   0             -146.75335     -410.63097     -260.11107     -260.11248     -711.66934     -2.1307947      5.0749684e-09 -4.5992734e-10  6.3691289      16.547482      20.757956      2187.7442    
       120   0             -146.75335     -410.63097     -260.11108     -260.11248     -711.66934     -2.1307479     -2.5220798e-09  2.2233454e-10  6.3691289      16.547482      20.757956      2187.7442    
       121   0             -146.75335     -410.63097     -260.11108     -260.11248     -711.66934     -2.1307321      1.4010773e-09 -1.2722399e-10  6.3691289      16.547482      20.757956      2187.7442    
       122   0             -146.75335     -410.63097     -260.11108     -260.11248     -711.66934     -2.130734      -3.8992073e-10  2.0966219e-11  6.3691289      16.547482      20.757956      2187.7442    
       123   0             -146.75335     -410.63097     -260.11108     -260.11248     -711.66934     -2.130745       1.9590238e-10 -2.7595856e-11  6.3691289      16.547482      20.757956      2187.7442    
       124   0             -146.75335     -410.63097     -260.11108     -260.11248     -711.66934     -2.1307513     -6.5475685e-11  3.4104169e-12  6.3691289      16.547482      20.757956      2187.7442    
       125   0             -146.75335     -410.63097     -260.11108     -260.11248     -711.66934     -2.1307547      3.3108167e-11  1.7283934e-12  6.3691289      16.547482      20.757956      2187.7442    
       126   0             -146.75335     -410.63097     -260.11108     -260.11248     -711.66934     -2.1307553     -3.942973e-11   2.1196799e-12  6.3691289      16.547482      20.757956      2187.7442    
       127   0             -146.75335     -410.63097     -260.11108     -260.11248     -711.66934     -2.1307539      2.587318e-11  -6.2986951e-12  6.3691289      16.547482      20.757956      2187.7442    
       128   0             -146.75335     -410.63097     -260.11108     -260.11248     -711.66934     -2.1307527     -8.740424e-12   1.9183198e-12  6.3691289      16.547482      20.757956      2187.7442    
       129   0             -146.75335     -410.63097     -260.11108     -260.11248     -711.66934     -2.130752       1.0024809e-11  3.1163169e-12  6.3691289      16.547482      20.757956      2187.7442    
       130   0             -146.75335     -410.63097     -260.11108     -260.11248     -711.66934     -2.1307519     -9.2612923e-13 -2.0255424e-11  6.3691289      16.547482      20.757956      2187.7442    
       131   0             -146.75335     -410.63097     -260.11108     -260.11248     -711.66934     -2.1307521      1.7545639e-11 -4.2908114e-12  6.3691289      16.547482      20.757956      2187.7442    
       132   0             -146.75335     -410.63097     -260.11108     -260.11248     -711.66934     -2.1307522     -5.3344536e-12  2.0247802e-11  6.3691289      16.547482      20.757956      2187.7442    
       133   0             -146.75335     -410.63097     -260.11108     -260.11248     -711.66934     -2.1307523      2.0377384e-12 -1.3396478e-12  6.3691289      16.547482      20.757956      2187.7442    
       134   0             -146.75335     -410.63097     -260.11108     -260.11248     -711.66934     -2.1307523     -1.7290286e-12 -1.6484211e-11  6.3691289      16.547482      20.757956      2187.7442    
       135   0             -146.75335     -410.63097     -260.11108     -260.11248     -711.66934     -2.1307523     -4.3943498e-12 -1.0016551e-11  6.3691289      16.547482      20.757956      2187.7442    
       136   0             -146.75335     -410.63097     -260.11108     -260.11248     -711.66934     -2.1307523      2.1840897e-11  9.350221e-12   6.3691289      16.547482      20.757956      2187.7442    
Loop time of 0.01387 on 1 procs for 36 steps with 96 atoms

112.7% CPU use with 1 MPI tasks x 1 OpenMP threads

Minimization stats:
  Stopping criterion = force tolerance
  Energy initial, next-to-last, final = 
     -146.753348858138  -146.753348878619   -146.75334887862
  Force two-norm initial, final = 0.0004656198 6.9369783e-11
  Force max component initial, final = 7.5664564e-05 1.247135e-11
  Final line search alpha, max atom move = 1 1.247135e-11
  Iterations, force evaluations = 36 72

MPI task timing breakdown:
Section |  min time  |  avg time  |  max time  |%varavg| %total
---------------------------------------------------------------
Pair    | 0.013133   | 0.013133   | 0.013133   |   0.0 | 94.69
Neigh   | 0          | 0          | 0          |   0.0 |  0.00
Comm    | 0.000268   | 0.000268   | 0.000268   |   0.0 |  1.93
Output  | 0.000311   | 0.000311   | 0.000311   |   0.0 |  2.24
Modify  | 0          | 0          | 0          |   0.0 |  0.00
Other   |            | 0.000158   |            |       |  1.14

Nlocal:             96 ave          96 max          96 min
Histogram: 1 0 0 0 0 0 0 0 0 0
Nghost:           1310 ave        1310 max        1310 min
Histogram: 1 0 0 0 0 0 0 0 0 0
Neighs:           6144 ave        6144 max        6144 min
Histogram: 1 0 0 0 0 0 0 0 0 0

Total # of neighbors = 6144
Ave neighs/atom = 64
Neighbor list builds = 0
Dangerous builds = 0
=========================================
Components of the Elastic Constant Tensor
=========================================
Elastic Constant C11all = 68.638118509725 GPa
Elastic Constant C22all = 68.6402177006599 GPa
Elastic Constant C33all = 68.7957711609249 GPa
Elastic Constant C12all = 26.028507298495 GPa
Elastic Constant C13all = 15.8741388349775 GPa
Elastic Constant C23all = 15.8742754457474 GPa
Elastic Constant C44all = 12.7669159830984 GPa
Elastic Constant C55all = 12.7668801225028 GPa
Elastic Constant C66all = 21.3075225440631 GPa
Elastic Constant C14all = 9.39289249053885e-11 GPa
Elastic Constant C15all = -9.11032111336965e-12 GPa
Elastic Constant C16all = 3.4861326602209e-09 GPa
Elastic Constant C24all = 7.85717605171925e-12 GPa
Elastic Constant C25all = -1.58726991853168e-10 GPa
Elastic Constant C26all = 3.56417565908886e-09 GPa
Elastic Constant C34all = 5.37766269876705e-11 GPa
Elastic Constant C35all = 3.42759343631031e-11 GPa
Elastic Constant C36all = -1.56083643952747e-09 GPa
Elastic Constant C45all = -6.33664860978328e-11 GPa
Elastic Constant C46all = -3.05195470608356e-10 GPa
Elastic Constant C56all = -2.36105785354876e-11 GPa
=========================================
Average properties for a cubic crystal
=========================================
Bulk Modulus = 35.73643894775 GPa
Shear Modulus 1 = 15.6137728832214 GPa
Shear Modulus 2 = 24.716197632015 GPa
Poisson Ratio = 0.218975540133492
Total wall time: 0:00:00
