LAMMPS (2 Aug 2023 - Update 3)
OMP_NUM_THREADS environment is not set. Defaulting to 1 thread. (src/comm.cpp:98)
  using 1 OpenMP thread(s) per MPI task
Loaded 1 plugins from F:\Lammps\LAMMPS 64-bit 2Aug2023\plugins
Lattice spacing in x,y,z = 3.21 5.5598831 5.241908
Created triclinic box = (0 0 0) to (6.42 16.679649 20.967632) with tilt (0 0 0)
  1 by 1 by 1 MPI processor grid
Created 96 atoms
  using lattice units in triclinic box = (0 0 0) to (6.42 16.679649 20.967632) with tilt (0 0 0)
  create_atoms CPU = 0.000 seconds
Neighbor list info ...
  update: every = 1 steps, delay = 0 steps, check = yes
  max neighbors/atom: 2000, page size: 100000
  master list distance cutoff = 8.5
  ghost atom cutoff = 8.5
  1 neighbor lists, perpetual/occasional/extra = 1 0 0
  (1) pair eam/alloy, perpetual
      attributes: half, newton on
      pair build: half/nsq/newton
      stencil: none
      bin: none
Setting up cg style minimization ...
  Unit style    : metal
  Current step  : 0
WARNING: Energy due to 3 extra global DOFs will be included in minimizer energies
 (src/min.cpp:228)
Per MPI rank memory allocation (min/avg/max) = 4.472 | 4.472 | 4.472 Mbytes
   Step          Temp          PotEng         Press           Pxx            Pyy            Pzz            Pxy            Pxz            Pyz             Lx             Ly             Lz           Volume    
         0   0             -146.56845     -9864.3832     -9673.7539     -9673.7539     -10245.642     -2.4955128e-12  2.5747355e-12 -2.9708486e-13  6.42           16.679649      20.967632      2245.2843    
         1   0             -146.57242     -9756.6247     -9563.4759     -9563.4759     -10142.922     -3.1500093e-12 -9.7670099e-12  2.1029779e-11  6.4193938      16.678074      20.965535      2244.6358    
         2   0             -146.57635     -9647.857      -9452.1746     -9452.1746     -10039.222      1.7562903e-11  7.2530578e-12  1.2881114e-12  6.4187885      16.676502      20.963439      2243.9881    
         3   0             -146.58023     -9538.7815     -9340.2259     -9340.2259     -9935.8925     -6.5910854e-13 -5.0349946e-12  4.2817277e-12  6.4181841      16.674931      20.961342      2243.3411    
         4   0             -146.58406     -9431.1326     -9229.8164     -9229.8164     -9833.765       1.5233264e-11  3.0535929e-12  3.3272265e-11  6.4175806      16.673363      20.959245      2242.6948    
         5   0             -146.58784     -9323.2119     -9119.4704     -9119.4704     -9730.695       7.5469258e-12  2.5586161e-12 -1.8842522e-12  6.416978       16.671798      20.957148      2242.0494    
         6   0             -146.59157     -9216.6124     -9010.1468     -9010.1468     -9629.5435     -9.0222119e-12  1.9046341e-12  2.1754492e-11  6.4163763      16.670235      20.955052      2241.4047    
         7   0             -146.59526     -9109.3171     -8900.4154     -8900.4154     -9527.1203     -1.3395806e-13 -7.3230409e-12 -1.5370448e-11  6.4157757      16.668674      20.952955      2240.7608    
         8   0             -146.5989      -9001.3603     -8789.6154     -8789.6154     -9424.8501      5.6973336e-12  4.5459561e-12 -1.5106867e-11  6.4151759      16.667116      20.950858      2240.1177    
         9   0             -146.60249     -8895.2656     -8681.1149     -8681.1149     -9323.5672      5.7783956e-12  5.1429707e-12  5.8379667e-12  6.4145772      16.66556       20.948761      2239.4755    
        10   0             -146.60603     -8787.8035     -8571.2943     -8571.2943     -9220.8219      2.0458601e-12  2.1451736e-12 -4.0420633e-12  6.4139795      16.664008      20.946665      2238.834     
        11   0             -146.60953     -8680.4544     -8460.9889     -8460.9889     -9119.3854     -1.2040253e-11 -6.8943363e-12  4.4405883e-12  6.4133828      16.662457      20.944568      2238.1934    
        12   0             -146.61298     -8574.1671     -8352.0707     -8352.0707     -9018.36        4.8592137e-12 -4.9883953e-12  8.3968008e-12  6.4127871      16.66091       20.942471      2237.5537    
        13   0             -146.61638     -8469.5129     -8245.1839     -8245.1839     -8918.1711     -1.3518237e-12  7.0175555e-12 -2.7632867e-12  6.4121926      16.659365      20.940374      2236.9148    
        14   0             -146.61974     -8363.3443     -8136.6345     -8136.6345     -8816.7638     -7.6558914e-13 -2.346481e-12   9.7935754e-12  6.4115991      16.657823      20.938278      2236.2768    
        15   0             -146.62304     -8255.4003     -8026.2591     -8026.2591     -8713.6827     -2.2476942e-11  5.6490722e-12  1.7156073e-11  6.4110067      16.656284      20.936181      2235.6397    
        16   0             -146.62631     -8148.9875     -7917.1021     -7917.1021     -8612.7581      1.2495166e-11 -1.750915e-12   4.7752228e-13  6.4104154      16.654748      20.934084      2235.0034    
        17   0             -146.62952     -8044.6833     -7810.2014     -7810.2014     -8513.6471      1.6384666e-11  5.3736531e-12  1.0538331e-11  6.4098253      16.653215      20.931987      2234.3682    
        18   0             -146.63269     -7940.75       -7704.2691     -7704.2691     -8413.7118     -6.9628476e-12  1.6722779e-12 -2.2187544e-11  6.4092364      16.651685      20.92989       2233.7339    
        19   0             -146.63582     -7834.6993     -7595.8697     -7595.8697     -8312.3584      2.2696659e-11 -1.4138739e-12 -1.3640896e-12  6.4086486      16.650158      20.927794      2233.1004    
        20   0             -146.63889     -7728.1906     -7487.3524     -7487.3524     -8209.867      -8.4806671e-12 -5.6969367e-12  2.0616537e-11  6.4080621      16.648634      20.925697      2232.468     
        21   0             -146.64193     -7623.4722     -7379.9272     -7379.9272     -8110.5624     -6.6698923e-12 -3.6064242e-12 -2.4298532e-11  6.4074766      16.647113      20.9236        2231.8364    
        22   0             -146.64491     -7519.5298     -7273.2329     -7273.2329     -8012.1235      4.5342174e-13 -1.6343113e-12 -5.1819627e-13  6.4068926      16.645595      20.921503      2231.2059    
        23   0             -146.64785     -7415.7555     -7167.5484     -7167.5484     -7912.1697     -6.6786437e-12  2.8508837e-12  9.4298461e-12  6.4063099      16.644081      20.919407      2230.5765    
        24   0             -146.65075     -7311.5991     -7061.7158     -7061.7158     -7811.3658      2.8467017e-12  2.2135474e-12 -9.0934919e-12  6.4057284      16.642571      20.91731       2229.9481    
        25   0             -146.6536      -7207.8811     -6955.773      -6955.773      -7712.0974     -1.0622034e-11  1.5160086e-12  9.2057626e-12  6.4051481      16.641063      20.915213      2229.3206    
        26   0             -146.6564      -7103.4914     -6849.0107     -6849.0107     -7612.4527     -6.7092258e-12 -1.085448e-11   3.5915558e-13  6.4045692      16.639559      20.913116      2228.6942    
        27   0             -146.65916     -6999.8613     -6743.1869     -6743.1869     -7513.2102     -8.3078038e-12 -2.2952491e-12 -1.8621456e-11  6.4039917      16.638058      20.91102       2228.0689    
        28   0             -146.66188     -6897.2087     -6638.4493     -6638.4493     -7414.7275      8.3650337e-12  7.7860696e-13  9.8124441e-12  6.4034156      16.636562      20.908923      2227.4447    
        29   0             -146.66455     -6794.1538     -6533.3766     -6533.3766     -7315.7083     -1.2705828e-11 -6.9894536e-13 -1.503731e-11   6.4028409      16.635069      20.906826      2226.8215    
        30   0             -146.66717     -6690.7955     -6428.5986     -6428.5986     -7215.1893      1.1985268e-13  1.0986496e-12 -3.3458873e-12  6.4022677      16.633579      20.904729      2226.1996    
        31   0             -146.66975     -6588.1525     -6323.4725     -6323.4725     -7117.5124     -1.0150358e-11 -4.2159952e-12 -4.4957295e-12  6.4016958      16.632094      20.902633      2225.5786    
        32   0             -146.67229     -6485.7587     -6219.2797     -6219.2797     -7018.7168     -9.2437955e-12  2.2584841e-12 -1.7718108e-11  6.4011256      16.630612      20.900536      2224.9589    
        33   0             -146.67478     -6383.9516     -6115.7681     -6115.7681     -6920.3186      1.3094853e-12 -3.07879e-12    5.5977999e-12  6.4005569      16.629135      20.898439      2224.3404    
        34   0             -146.67723     -6281.9599     -6011.8996     -6011.8996     -6822.0804     -9.3739185e-12  1.0598777e-12  2.0477637e-11  6.3999897      16.627661      20.896342      2223.7231    
        35   0             -146.67964     -6180.3081     -5908.8162     -5908.8162     -6723.2919      4.9908071e-12 -1.8603009e-12 -1.6212622e-11  6.3994241      16.626191      20.894245      2223.107     
        36   0             -146.682       -6078.8898     -5805.5072     -5805.5072     -6625.655       8.4136876e-12  1.4606402e-12 -6.9030255e-13  6.39886        16.624726      20.892149      2222.492     
        37   0             -146.68432     -5977.0717     -5702.0362     -5702.0362     -6527.1429      4.8284488e-12 -1.0287348e-11  1.9794138e-11  6.3982976      16.623265      20.890052      2221.8784    
        38   0             -146.68659     -5875.7368     -5598.8877     -5598.8877     -6429.4351      1.0630521e-11 -1.2412284e-11 -9.6795796e-12  6.397737       16.621808      20.887955      2221.266     
        39   0             -146.68882     -5776.0056     -5497.7079     -5497.7079     -6332.6011     -8.1803438e-12 -1.2876282e-11  1.5990219e-11  6.3971781      16.620356      20.885858      2220.655     
        40   0             -146.69101     -5675.4591     -5396.4061     -5396.4061     -6233.565      -4.6271197e-12 -3.2049314e-13 -1.4151775e-11  6.3966209      16.618909      20.883762      2220.0453    
        41   0             -146.69316     -5575.2197     -5294.5302     -5294.5302     -6136.5988      1.5878778e-12  2.0036313e-14  6.8223645e-12  6.3960654      16.617465      20.881665      2219.4369    
        42   0             -146.69526     -5475.1206     -5192.6784     -5192.6784     -6040.0051     -4.1586724e-12 -4.9703651e-12  1.8498576e-11  6.3955117      16.616027      20.879568      2218.8298    
        43   0             -146.69732     -5375.8019     -5092.0425     -5092.0425     -5943.3205      0             -6.7158342e-12 -1.249947e-11   6.3949599      16.614593      20.877471      2218.2242    
        44   0             -146.69934     -5276.1471     -4991.4893     -4991.4893     -5845.4626     -1.7596269e-12  4.0105456e-13 -5.6949747e-12  6.3944101      16.613165      20.875375      2217.62      
        45   0             -146.70132     -5177.2752     -4891.2519     -4891.2519     -5749.3219     -9.7282172e-13 -9.14653e-12    7.471672e-12   6.3938621      16.611741      20.873278      2217.0173    
        46   0             -146.70326     -5078.4368     -4791.4962     -4791.4962     -5652.318      -4.4440921e-12 -3.1098613e-12 -2.7386843e-11  6.3933162      16.610323      20.871181      2216.416     
        47   0             -146.70515     -4979.7729     -4691.8304     -4691.8304     -5555.6579     -6.3267686e-12 -3.7127746e-12  1.7911629e-11  6.3927722      16.608909      20.869084      2215.8162    
        48   0             -146.70701     -4881.362      -4592.1502     -4592.1502     -5459.7856      2.7050351e-12  5.9219692e-12  1.797669e-11   6.3922303      16.607501      20.866988      2215.218     
        49   0             -146.70882     -4784.1106     -4494.0227     -4494.0227     -5364.2863      6.8773589e-13  1.7670294e-12  4.3171742e-13  6.3916905      16.606099      20.864891      2214.6214    
        50   0             -146.71059     -4685.9172     -4395.3247     -4395.3247     -5267.1021     -6.8089087e-12 -1.4059694e-13  9.6007622e-12  6.391153       16.604702      20.862794      2214.0263    
        51   0             -146.71232     -4588.6275     -4297.6776     -4297.6776     -5170.5274     -1.2933363e-11  0             -1.4555684e-11  6.3906175      16.603311      20.860697      2213.4329    
        52   0             -146.71401     -4491.9531     -4200.2557     -4200.2557     -5075.3477     -5.8630183e-12  1.708163e-12  -5.8278503e-12  6.3900842      16.601926      20.858601      2212.841     
        53   0             -146.71566     -4395.3625     -4102.8641     -4102.8641     -4980.3592     -1.0332118e-11  1.2583474e-11  1.2744285e-11  6.3895531      16.600546      20.856504      2212.2508    
        54   0             -146.71727     -4298.0887     -4005.3573     -4005.3573     -4883.5515      4.0967491e-12  4.0213488e-13 -1.3391092e-11  6.3890245      16.599173      20.854407      2211.6625    
        55   0             -146.71885     -4202.8249     -3909.5978     -3909.5978     -4789.2792      2.2676369e-12  6.8381068e-13 -1.0880635e-11  6.3884983      16.597805      20.85231       2211.0758    
        56   0             -146.72038     -4106.7608     -3813.1767     -3813.1767     -4693.9292      7.026002e-12   3.922893e-12   2.0399044e-11  6.3879745      16.596445      20.850213      2210.491     
        57   0             -146.72187     -4010.8087     -3717.2323     -3717.2323     -4597.9616      1.2144054e-11 -1.0302826e-11 -3.3504307e-12  6.3874533      16.595091      20.848117      2209.908     
        58   0             -146.72332     -3915.4112     -3621.7194     -3621.7194     -4502.7949      1.831648e-12   8.0109439e-12  1.1342128e-11  6.3869346      16.593743      20.84602       2209.3269    
        59   0             -146.72474     -3821.4142     -3527.4731     -3527.4731     -4409.2963      7.5751458e-12  4.1071887e-12  4.0759821e-11  6.3864186      16.592402      20.843923      2208.7477    
        60   0             -146.72611     -3727.2365     -3433.3401     -3433.3401     -4315.0293     -5.4776829e-12 -4.7526955e-12 -1.1076197e-12  6.3859053      16.591069      20.841826      2208.1705    
        61   0             -146.72745     -3632.5188     -3339.157      -3339.157      -4219.2425     -3.7114927e-12 -1.8935159e-12  8.117946e-12   6.3853949      16.589742      20.83973       2207.5954    
        62   0             -146.72875     -3538.7272     -3245.7118     -3245.7118     -4124.7582      1.5464371e-12  7.4349875e-12 -1.3560289e-11  6.3848871      16.588423      20.837633      2207.0223    
        63   0             -146.73001     -3446.399      -3153.616      -3153.616      -4031.965      -5.4517198e-12 -2.4789706e-12 -2.085963e-11   6.3843823      16.587112      20.835536      2206.4513    
        64   0             -146.73124     -3353.4649     -3061.2917     -3061.2917     -3937.8114      1.7488305e-12  5.9470316e-12  2.3445416e-11  6.3838806      16.585808      20.833439      2205.8824    
        65   0             -146.73242     -3260.7499     -2969.3762     -2969.3762     -3843.4972     -9.7092591e-12  2.8633744e-12 -1.8763168e-11  6.3833819      16.584513      20.831343      2205.3158    
        66   0             -146.73358     -3168.9129     -2878.4568     -2878.4568     -3749.8252     -5.4710502e-12 -4.8004053e-12  1.3513746e-11  6.3828863      16.583225      20.829246      2204.7515    
        67   0             -146.73469     -3077.0407     -2787.1701     -2787.1701     -3656.7819      1.2009117e-11 -5.0033786e-12  1.1963724e-11  6.3823938      16.581946      20.827149      2204.1894    
        68   0             -146.73577     -2984.4975     -2695.4973     -2695.4973     -3562.4978      4.0259173e-12 -8.293995e-12  -1.2138292e-11  6.3819049      16.580675      20.825052      2203.6299    
        69   0             -146.73681     -2894.3912     -2606.4731     -2606.4731     -3470.2273     -4.8948961e-13 -1.5946259e-12  5.4499874e-12  6.3814196      16.579414      20.822956      2203.0729    
        70   0             -146.73782     -2805.0553     -2518.5169     -2518.5169     -3378.1322      9.2218828e-12 -5.1283158e-12  2.7822123e-11  6.3809378      16.578163      20.820859      2202.5184    
        71   0             -146.73879     -2714.7801     -2430.0155     -2430.0155     -3284.3092     -8.3356018e-12 -5.9778029e-12 -1.4177087e-11  6.3804596      16.57692       20.818762      2201.9666    
        72   0             -146.73972     -2625.2723     -2341.7622     -2341.7622     -3192.2924     -6.8984089e-12  2.4644389e-12  5.6257888e-12  6.3799851      16.575687      20.816665      2201.4173    
        73   0             -146.74062     -2536.2575     -2254.4775     -2254.4775     -3099.8176     -4.2481714e-12 -2.8287467e-13  3.8390134e-12  6.3795146      16.574465      20.814568      2200.8709    
        74   0             -146.74149     -2447.6978     -2167.7359     -2167.7359     -3007.6215     -1.3288288e-12  6.2652007e-13 -1.5945946e-11  6.3790481      16.573253      20.812472      2200.3274    
        75   0             -146.74232     -2360.1022     -2082.036      -2082.036      -2916.2344      1.5313083e-12 -7.4392269e-12 -1.5767927e-12  6.3785859      16.572052      20.810375      2199.7869    
        76   0             -146.74312     -2272.0819     -1996.6047     -1996.6047     -2823.0363      5.2572599e-13  6.5917951e-12 -3.1907524e-11  6.378128       16.570863      20.808278      2199.2495    
        77   0             -146.74389     -2184.9845     -1911.6905     -1911.6905     -2731.5724     -1.1513164e-11 -2.2854413e-12  1.0415949e-11  6.3776745      16.569684      20.806181      2198.7151    
        78   0             -146.74462     -2099.306      -1828.4857     -1828.4857     -2640.9465     -1.0256625e-11  9.8115646e-12  2.8099512e-11  6.3772257      16.568518      20.804085      2198.1841    
        79   0             -146.74532     -2013.5276     -1745.7404     -1745.7404     -2549.1018      6.3891654e-12 -3.7232191e-12 -7.233972e-12   6.3767817      16.567365      20.801988      2197.6565    
        80   0             -146.74599     -1928.6665     -1663.5011     -1663.5011     -2458.9973     -4.5792353e-12  9.5430252e-12 -6.1731128e-13  6.3763425      16.566224      20.799891      2197.1324    
        81   0             -146.74662     -1844.3897     -1582.2553     -1582.2553     -2368.6587     -6.4276316e-13 -3.6946229e-12  3.1601678e-11  6.3759087      16.565097      20.797794      2196.612     
        82   0             -146.74723     -1760.5943     -1501.9595     -1501.9595     -2277.864       7.8010315e-12  8.9096791e-13 -7.6744736e-12  6.3754804      16.563984      20.795698      2196.0954    
        83   0             -146.7478      -1676.8053     -1421.9737     -1421.9737     -2186.4686     -2.5722578e-12  1.1544779e-12  8.7801084e-12  6.3750576      16.562886      20.793601      2195.5828    
        84   0             -146.74835     -1594.7032     -1343.2583     -1343.2583     -2097.5929     -1.2383125e-11 -5.2672597e-13 -4.1712645e-11  6.3746406      16.561802      20.791504      2195.0742    
        85   0             -146.74886     -1513.2909     -1265.6929     -1265.6929     -2008.4867     -1.3490322e-11  9.7162738e-12 -8.287708e-12   6.3742301      16.560736      20.789407      2194.5701    
        86   0             -146.74935     -1432.2316     -1188.8796     -1188.8796     -1918.9355     -1.7633123e-12  1.1299386e-11  7.0431153e-12  6.3738261      16.559686      20.787311      2194.0706    
        87   0             -146.7498      -1351.5915     -1112.7737     -1112.7737     -1829.2271      3.3094903e-12 -7.6528796e-12 -1.3937364e-11  6.3734289      16.558654      20.785214      2193.5759    
        88   0             -146.75023     -1272.2644     -1037.8558     -1037.8558     -1741.0816      5.0692639e-13 -2.919896e-12   2.0074285e-12  6.3730389      16.557641      20.783117      2193.0862    
        89   0             -146.75063     -1193.6151     -963.99438     -963.99438     -1652.8564     -8.1785283e-12 -3.8940544e-12  3.5695499e-12  6.3726568      16.556648      20.78102       2192.602     
        90   0             -146.751       -1116.3145     -892.01965     -892.01965     -1564.9043      3.0479655e-12  2.8400344e-13 -2.2253698e-11  6.3722829      16.555677      20.778924      2192.1236    
        91   0             -146.75134     -1040.5963     -822.08268     -822.08268     -1477.6236     -2.0036705e-12  3.6319698e-12  1.2884362e-12  6.3719175      16.554727      20.776827      2191.651     
        92   0             -146.75166     -965.40865     -752.81968     -752.81968     -1390.5866     -3.6276693e-12 -5.7230923e-12  3.0888462e-11  6.3715609      16.553801      20.77473       2191.1846    
        93   0             -146.75195     -890.43872     -684.17465     -684.17465     -1302.9669      1.1468886e-12  2.8925951e-12 -4.1003804e-12  6.371214       16.552899      20.772633      2190.7248    
        94   0             -146.75222     -816.80927     -617.40777     -617.40777     -1215.6123     -1.5486195e-11 -1.0121099e-11  2.2932359e-11  6.3708774      16.552025      20.770536      2190.2722    
        95   0             -146.75246     -745.76228     -553.12718     -553.12718     -1131.0325      9.1230237e-12  2.193181e-12  -2.2287186e-11  6.3705519      16.551179      20.76844       2189.8274    
        96   0             -146.75269     -675.71114     -490.41582     -490.41582     -1046.3018      7.3222165e-12 -6.7027225e-13 -7.647197e-12   6.3702385      16.550365      20.766343      2189.3908    
        97   0             -146.75288     -606.83068     -429.2916      -429.2916      -961.90884     -1.4850445e-11  1.4169885e-11  2.4408769e-11  6.3699382      16.549585      20.764246      2188.9634    
        98   0             -146.75306     -539.71267     -370.38405     -370.38405     -878.36991     -6.5732363e-12 -6.0957369e-14 -3.1636874e-11  6.3696522      16.548842      20.762149      2188.5458    
        99   0             -146.75321     -474.0867      -313.88249     -313.88249     -794.49512      4.1966787e-12  5.0705633e-12 -1.4632487e-12  6.369382       16.54814       20.760053      2188.1391    
       100   0             -146.75335     -410.6318      -260.11286     -260.11286     -711.66969     -1.4889211e-12 -5.3662138e-12  2.2664123e-11  6.3691289      16.547482      20.757956      2187.7442    
Loop time of 0.023663 on 1 procs for 100 steps with 96 atoms

66.0% CPU use with 1 MPI tasks x 1 OpenMP threads

Minimization stats:
  Stopping criterion = max iterations
  Energy initial, next-to-last, final = 
     -146.568450621862  -146.753213887664  -146.753348893176
  Force two-norm initial, final = 23.952655 1.1044762
  Force max component initial, final = 14.358205 0.98158851
  Final line search alpha, max atom move = 9.1247978e-05 8.9567967e-05
  Iterations, force evaluations = 100 100

MPI task timing breakdown:
Section |  min time  |  avg time  |  max time  |%varavg| %total
---------------------------------------------------------------
Pair    | 0.018388   | 0.018388   | 0.018388   |   0.0 | 77.71
Neigh   | 0          | 0          | 0          |   0.0 |  0.00
Comm    | 0.000386   | 0.000386   | 0.000386   |   0.0 |  1.63
Output  | 0.000988   | 0.000988   | 0.000988   |   0.0 |  4.18
Modify  | 0          | 0          | 0          |   0.0 |  0.00
Other   |            | 0.003901   |            |       | 16.49

Nlocal:             96 ave          96 max          96 min
Histogram: 1 0 0 0 0 0 0 0 0 0
Nghost:           1310 ave        1310 max        1310 min
Histogram: 1 0 0 0 0 0 0 0 0 0
Neighs:           6144 ave        6144 max        6144 min
Histogram: 1 0 0 0 0 0 0 0 0 0

Total # of neighbors = 6144
Ave neighs/atom = 64
Neighbor list builds = 0
Dangerous builds = 0
Displacing atoms ...
System init for write_restart ...
OMP_NUM_THREADS environment is not set. Defaulting to 1 thread. (src/comm.cpp:98)
  using 1 OpenMP thread(s) per MPI task
Loaded 1 plugins from F:\Lammps\LAMMPS 64-bit 2Aug2023\plugins

The 'box' command has been removed and will be ignored

Reading restart file ...
  restart file = 2 Aug 2023, LAMMPS = 2 Aug 2023
  restoring atom style atomic from restart
  triclinic box = (0.025435542 0.066083476 0.10483816) to (6.3945645 16.613566 20.862794) with tilt (0 0 0)
  1 by 1 by 1 MPI processor grid
  pair style eam/alloy stores no restart info
  96 atoms
  read_restart CPU = 0.000 seconds
Changing box ...
  triclinic box = (0.025435542 0.066083476 0.10483816) to (6.3945581 16.613566 20.862794) with tilt (0 0 0)
  triclinic box = (0.025435542 0.066083476 0.10483816) to (6.3945581 16.613566 20.862794) with tilt (0 0 0)
  triclinic box = (0.025435542 0.066083476 0.10483816) to (6.3945581 16.613566 20.862794) with tilt (0 0 0)
Neighbor list info ...
  update: every = 1 steps, delay = 0 steps, check = yes
  max neighbors/atom: 2000, page size: 100000
  master list distance cutoff = 8.5
  ghost atom cutoff = 8.5
  1 neighbor lists, perpetual/occasional/extra = 1 0 0
  (1) pair eam/alloy, perpetual
      attributes: half, newton on
      pair build: half/nsq/newton
      stencil: none
      bin: none
Setting up cg style minimization ...
  Unit style    : metal
  Current step  : 100
Per MPI rank memory allocation (min/avg/max) = 4.467 | 4.467 | 4.467 Mbytes
   Step          Temp          PotEng         Press           Pxx            Pyy            Pzz            Pxy            Pxz            Pyz             Lx             Ly             Lz           Volume    
       100   0             -146.75335     -410.26324     -259.41512     -259.86341     -711.51118      0.018563328   -1.8408661e-06 -5.7354422e-06  6.3691225      16.547482      20.757956      2187.7421    
       101   0             -146.75335     -410.26332     -259.41791     -259.86089     -711.51116      0.014134491   -1.8107041e-06 -2.5965952e-06  6.3691225      16.547482      20.757956      2187.7421    
       102   0             -146.75335     -410.26335     -259.4214      -259.85748     -711.51116      0.0083274639  -6.2171032e-07 -3.317127e-07   6.3691225      16.547482      20.757956      2187.7421    
       103   0             -146.75335     -410.26335     -259.42369     -259.85521     -711.51116      0.0044876827  -2.9982705e-07 -9.2466417e-08  6.3691225      16.547482      20.757956      2187.7421    
       104   0             -146.75335     -410.26335     -259.4254      -259.85351     -711.51116      0.0016267715  -2.4373135e-07  8.8768799e-08  6.3691225      16.547482      20.757956      2187.7421    
       105   0             -146.75335     -410.26336     -259.4265      -259.85241     -711.51116     -0.00023785349 -1.4299821e-07  1.178492e-08   6.3691225      16.547482      20.757956      2187.7421    
       106   0             -146.75335     -410.26336     -259.42694     -259.85197     -711.51116     -0.0009755064  -7.2099064e-08  6.3750279e-08  6.3691225      16.547482      20.757956      2187.7421    
       107   0             -146.75335     -410.26336     -259.42686     -259.85205     -711.51116     -0.00083081842 -3.4030675e-08 -3.6389486e-08  6.3691225      16.547482      20.757956      2187.7421    
       108   0             -146.75335     -410.26336     -259.42657     -259.85235     -711.51116     -0.00033971792 -4.4359742e-09  4.0831873e-08  6.3691225      16.547482      20.757956      2187.7421    
       109   0             -146.75335     -410.26336     -259.42632     -259.8526      -711.51116      8.1614954e-05  2.7303664e-09 -1.3453762e-08  6.3691225      16.547482      20.757956      2187.7421    
       110   0             -146.75335     -410.26336     -259.42623     -259.85268     -711.51116      0.00022541498  2.7277353e-09  1.1313794e-08  6.3691225      16.547482      20.757956      2187.7421    
       111   0             -146.75335     -410.26336     -259.42627     -259.85265     -711.51116      0.00016701207  1.0446596e-09 -5.3440626e-09  6.3691225      16.547482      20.757956      2187.7421    
       112   0             -146.75335     -410.26336     -259.42634     -259.85258     -711.51116      4.5711158e-05 -5.2061854e-10  6.486467e-09   6.3691225      16.547482      20.757956      2187.7421    
       113   0             -146.75335     -410.26336     -259.42641     -259.85251     -711.51116     -6.9656297e-05 -1.119638e-09  -6.200987e-09   6.3691225      16.547482      20.757956      2187.7421    
       114   0             -146.75335     -410.26336     -259.42642     -259.85249     -711.51116     -9.6019687e-05 -7.6860418e-10  4.4086146e-09  6.3691225      16.547482      20.757956      2187.7421    
       115   0             -146.75335     -410.26336     -259.4264      -259.85251     -711.51116     -5.8124058e-05 -5.7830159e-10 -3.7496545e-09  6.3691225      16.547482      20.757956      2187.7421    
       116   0             -146.75335     -410.26336     -259.42636     -259.85255     -711.51116      1.0089832e-05 -1.8128775e-10  1.7623228e-09  6.3691225      16.547482      20.757956      2187.7421    
       117   0             -146.75335     -410.26336     -259.42633     -259.85259     -711.51116      6.9171746e-05  2.8711305e-11 -8.3185481e-10  6.3691225      16.547482      20.757956      2187.7421    
       118   0             -146.75335     -410.26336     -259.42633     -259.85258     -711.51116      5.8903515e-05  1.0959842e-11  6.2743413e-10  6.3691225      16.547482      20.757956      2187.7421    
       119   0             -146.75335     -410.26336     -259.42635     -259.85256     -711.51116      2.2129592e-05  1.234205e-11  -3.9812925e-10  6.3691225      16.547482      20.757956      2187.7421    
       120   0             -146.75335     -410.26336     -259.42637     -259.85255     -711.51116     -2.3934549e-06 -4.1898179e-12  2.5231838e-10  6.3691225      16.547482      20.757956      2187.7421    
       121   0             -146.75335     -410.26336     -259.42637     -259.85254     -711.51116     -1.1311322e-05  3.4555199e-13 -1.0985187e-10  6.3691225      16.547482      20.757956      2187.7421    
       122   0             -146.75335     -410.26336     -259.42637     -259.85254     -711.51116     -1.0252465e-05  8.5333556e-12  2.1585566e-11  6.3691225      16.547482      20.757956      2187.7421    
       123   0             -146.75335     -410.26336     -259.42637     -259.85255     -711.51116     -4.288142e-06  -3.7134135e-12 -1.4109193e-11  6.3691225      16.547482      20.757956      2187.7421    
       124   0             -146.75335     -410.26336     -259.42637     -259.85255     -711.51116     -5.9787854e-07 -5.9328228e-13  1.0844235e-11  6.3691225      16.547482      20.757956      2187.7421    
       125   0             -146.75335     -410.26336     -259.42637     -259.85255     -711.51116      1.600168e-06   4.7259317e-13  5.1648589e-12  6.3691225      16.547482      20.757956      2187.7421    
       126   0             -146.75335     -410.26336     -259.42636     -259.85255     -711.51116      1.9419357e-06 -5.2595046e-12  9.3032252e-12  6.3691225      16.547482      20.757956      2187.7421    
       127   0             -146.75335     -410.26336     -259.42637     -259.85255     -711.51116      1.0846111e-06 -7.3048675e-13 -3.1073636e-11  6.3691225      16.547482      20.757956      2187.7421    
       128   0             -146.75335     -410.26336     -259.42637     -259.85255     -711.51116      3.0072234e-07  8.1242831e-12  1.7982678e-12  6.3691225      16.547482      20.757956      2187.7421    
       129   0             -146.75335     -410.26336     -259.42637     -259.85255     -711.51116     -1.7065094e-07 -7.0507851e-13 -1.6712902e-11  6.3691225      16.547482      20.757956      2187.7421    
       130   0             -146.75335     -410.26336     -259.42637     -259.85255     -711.51116     -2.1129851e-07 -2.1215876e-12  3.8264802e-12  6.3691225      16.547482      20.757956      2187.7421    
       131   0             -146.75335     -410.26336     -259.42637     -259.85255     -711.51116     -1.164647e-07   5.195984e-13  -2.2294456e-11  6.3691225      16.547482      20.757956      2187.7421    
       132   0             -146.75335     -410.26336     -259.42637     -259.85255     -711.51116     -3.5987619e-08 -1.3809376e-12 -2.7116939e-12  6.3691225      16.547482      20.757956      2187.7421    
       133   0             -146.75335     -410.26336     -259.42637     -259.85255     -711.51116      1.3123739e-08 -3.6460817e-12  1.3167182e-11  6.3691225      16.547482      20.757956      2187.7421    
       134   0             -146.75335     -410.26336     -259.42637     -259.85255     -711.51116      2.4494331e-08  1.3490502e-11  1.4412821e-11  6.3691225      16.547482      20.757956      2187.7421    
       135   0             -146.75335     -410.26336     -259.42637     -259.85255     -711.51116      1.7762966e-08 -9.8253644e-12  5.7105008e-13  6.3691225      16.547482      20.757956      2187.7421    
Loop time of 0.014315 on 1 procs for 35 steps with 96 atoms

109.2% CPU use with 1 MPI tasks x 1 OpenMP threads

Minimization stats:
  Stopping criterion = force tolerance
  Energy initial, next-to-last, final = 
     -146.753349227666  -146.753349247878  -146.753349247879
  Force two-norm initial, final = 0.00046477733 9.513463e-11
  Force max component initial, final = 7.1618566e-05 2.0457885e-11
  Final line search alpha, max atom move = 1 2.0457885e-11
  Iterations, force evaluations = 35 70

MPI task timing breakdown:
Section |  min time  |  avg time  |  max time  |%varavg| %total
---------------------------------------------------------------
Pair    | 0.013494   | 0.013494   | 0.013494   |   0.0 | 94.26
Neigh   | 0          | 0          | 0          |   0.0 |  0.00
Comm    | 0.000278   | 0.000278   | 0.000278   |   0.0 |  1.94
Output  | 0.000363   | 0.000363   | 0.000363   |   0.0 |  2.54
Modify  | 0          | 0          | 0          |   0.0 |  0.00
Other   |            | 0.00018    |            |       |  1.26

Nlocal:             96 ave          96 max          96 min
Histogram: 1 0 0 0 0 0 0 0 0 0
Nghost:           1310 ave        1310 max        1310 min
Histogram: 1 0 0 0 0 0 0 0 0 0
Neighs:           6144 ave        6144 max        6144 min
Histogram: 1 0 0 0 0 0 0 0 0 0

Total # of neighbors = 6144
Ave neighs/atom = 64
Neighbor list builds = 0
Dangerous builds = 0
OMP_NUM_THREADS environment is not set. Defaulting to 1 thread. (src/comm.cpp:98)
  using 1 OpenMP thread(s) per MPI task
Loaded 1 plugins from F:\Lammps\LAMMPS 64-bit 2Aug2023\plugins

The 'box' command has been removed and will be ignored

Reading restart file ...
  restart file = 2 Aug 2023, LAMMPS = 2 Aug 2023
  restoring atom style atomic from restart
  triclinic box = (0.025435542 0.066083476 0.10483816) to (6.3945645 16.613566 20.862794) with tilt (0 0 0)
  1 by 1 by 1 MPI processor grid
  pair style eam/alloy stores no restart info
  96 atoms
  read_restart CPU = 0.000 seconds
Changing box ...
  triclinic box = (0.025435542 0.066083476 0.10483816) to (6.3945708 16.613566 20.862794) with tilt (0 0 0)
  triclinic box = (0.025435542 0.066083476 0.10483816) to (6.3945708 16.613566 20.862794) with tilt (0 0 0)
  triclinic box = (0.025435542 0.066083476 0.10483816) to (6.3945708 16.613566 20.862794) with tilt (0 0 0)
Neighbor list info ...
  update: every = 1 steps, delay = 0 steps, check = yes
  max neighbors/atom: 2000, page size: 100000
  master list distance cutoff = 8.5
  ghost atom cutoff = 8.5
  1 neighbor lists, perpetual/occasional/extra = 1 0 0
  (1) pair eam/alloy, perpetual
      attributes: half, newton on
      pair build: half/nsq/newton
      stencil: none
      bin: none
Setting up cg style minimization ...
  Unit style    : metal
  Current step  : 100
Per MPI rank memory allocation (min/avg/max) = 4.467 | 4.467 | 4.467 Mbytes
   Step          Temp          PotEng         Press           Pxx            Pyy            Pzz            Pxy            Pxz            Pyz             Lx             Ly             Lz           Volume    
       100   0             -146.75335     -411.00008     -260.80357     -260.36843     -711.82822      0.018573815   -1.7304128e-06 -5.7753982e-06  6.3691353      16.547482      20.757956      2187.7464    
       101   0             -146.75335     -411.00017     -260.80266     -260.36963     -711.82821      0.014143708   -1.7733142e-06 -2.4832702e-06  6.3691353      16.547482      20.757956      2187.7464    
       102   0             -146.75335     -411.00019     -260.80128     -260.37109     -711.82821      0.0083380911  -6.2193968e-07 -4.7639347e-07  6.3691353      16.547482      20.757956      2187.7464    
       103   0             -146.75335     -411.0002      -260.80035     -260.37203     -711.82821      0.0044992525  -3.0012157e-07 -2.2481161e-11  6.3691353      16.547482      20.757956      2187.7464    
       104   0             -146.75335     -411.0002      -260.79966     -260.37274     -711.82821      0.0016359217  -2.4392742e-07  1.2659527e-08  6.3691353      16.547482      20.757956      2187.7464    
       105   0             -146.75335     -411.0002      -260.7992      -260.3732      -711.82821     -0.00023838426 -1.4297135e-07  7.6998389e-08  6.3691353      16.547482      20.757956      2187.7464    
       106   0             -146.75335     -411.0002      -260.79902     -260.37338     -711.82821     -0.00098323133 -7.1872876e-08 -1.8404201e-08  6.3691353      16.547482      20.757956      2187.7464    
       107   0             -146.75335     -411.0002      -260.79905     -260.37334     -711.82821     -0.00083818817 -3.3964677e-08  5.1829715e-08  6.3691353      16.547482      20.757956      2187.7464    
       108   0             -146.75335     -411.0002      -260.79918     -260.37322     -711.82821     -0.00034373453 -4.3931258e-09 -2.8874182e-08  6.3691353      16.547482      20.757956      2187.7464    
       109   0             -146.75335     -411.0002      -260.79928     -260.37312     -711.82821      8.2149022e-05  2.7267529e-09  2.3095404e-08  6.3691353      16.547482      20.757956      2187.7464    
       110   0             -146.75335     -411.0002      -260.79932     -260.37308     -711.82821      0.00022814504  2.705311e-09  -5.9960608e-09  6.3691353      16.547482      20.757956      2187.7464    
       111   0             -146.75335     -411.0002      -260.7993      -260.3731      -711.82821      0.00016935551  1.0464818e-09  7.2115356e-09  6.3691353      16.547482      20.757956      2187.7464    
       112   0             -146.75335     -411.0002      -260.79927     -260.37313     -711.82821      4.6636966e-05 -5.2415178e-10 -6.1638285e-09  6.3691353      16.547482      20.757956      2187.7464    
       113   0             -146.75335     -411.0002      -260.79924     -260.37316     -711.82821     -7.0618671e-05 -1.1135772e-09  5.6967454e-09  6.3691353      16.547482      20.757956      2187.7464    
       114   0             -146.75335     -411.0002      -260.79924     -260.37316     -711.82821     -9.7580707e-05 -7.7052986e-10 -5.0238903e-09  6.3691353      16.547482      20.757956      2187.7464    
       115   0             -146.75335     -411.0002      -260.79925     -260.37315     -711.82821     -5.9220958e-05 -5.7929389e-10  3.3781648e-09  6.3691353      16.547482      20.757956      2187.7464    
       116   0             -146.75335     -411.0002      -260.79926     -260.37314     -711.82821      1.0100845e-05 -1.9440818e-10 -1.7236048e-09  6.3691353      16.547482      20.757956      2187.7464    
       117   0             -146.75335     -411.0002      -260.79928     -260.37312     -711.82821      7.0533128e-05  1.1955821e-11  1.0244288e-09  6.3691353      16.547482      20.757956      2187.7464    
       118   0             -146.75335     -411.0002      -260.79928     -260.37312     -711.82821      6.0169734e-05  9.801207e-12  -5.36086e-10    6.3691353      16.547482      20.757956      2187.7464    
       119   0             -146.75335     -411.0002      -260.79927     -260.37313     -711.82821      2.2727195e-05  4.8148509e-13  4.3438339e-10  6.3691353      16.547482      20.757956      2187.7464    
       120   0             -146.75335     -411.0002      -260.79926     -260.37314     -711.82821     -2.4101055e-06 -8.7912316e-12 -2.0879175e-10  6.3691353      16.547482      20.757956      2187.7464    
       121   0             -146.75335     -411.0002      -260.79926     -260.37314     -711.82821     -1.1616394e-05  1.4734206e-11  1.2340818e-10  6.3691353      16.547482      20.757956      2187.7464    
       122   0             -146.75335     -411.0002      -260.79926     -260.37314     -711.82821     -1.0551011e-05  9.5776149e-12 -4.4485284e-11  6.3691353      16.547482      20.757956      2187.7464    
       123   0             -146.75335     -411.0002      -260.79926     -260.37314     -711.82821     -4.4367229e-06  6.4092144e-12  1.9524284e-11  6.3691353      16.547482      20.757956      2187.7464    
       124   0             -146.75335     -411.0002      -260.79926     -260.37314     -711.82821     -6.3123257e-07  6.7395208e-12  6.2046785e-12  6.3691353      16.547482      20.757956      2187.7464    
       125   0             -146.75335     -411.0002      -260.79926     -260.37314     -711.82821      1.653999e-06   1.1554372e-11  4.6859043e-12  6.3691353      16.547482      20.757956      2187.7464    
       126   0             -146.75335     -411.0002      -260.79926     -260.37314     -711.82821      2.0159634e-06 -5.3547748e-12 -9.1634615e-12  6.3691353      16.547482      20.757956      2187.7464    
       127   0             -146.75335     -411.0002      -260.79926     -260.37314     -711.82821      1.1325085e-06 -7.7494961e-14 -1.7884185e-11  6.3691353      16.547482      20.757956      2187.7464    
       128   0             -146.75335     -411.0002      -260.79926     -260.37314     -711.82821      3.172814e-07   7.0279037e-12 -1.6100531e-11  6.3691353      16.547482      20.757956      2187.7464    
       129   0             -146.75335     -411.0002      -260.79926     -260.37314     -711.82821     -1.7666771e-07  4.1453452e-12  5.9086732e-12  6.3691353      16.547482      20.757956      2187.7464    
       130   0             -146.75335     -411.0002      -260.79926     -260.37314     -711.82821     -2.2032999e-07  6.7560361e-12  2.9989915e-11  6.3691353      16.547482      20.757956      2187.7464    
       131   0             -146.75335     -411.0002      -260.79926     -260.37314     -711.82821     -1.2207121e-07  9.9612785e-12 -1.0739404e-11  6.3691353      16.547482      20.757956      2187.7464    
       132   0             -146.75335     -411.0002      -260.79926     -260.37314     -711.82821     -3.8058512e-08 -4.6141262e-12  1.0924884e-11  6.3691353      16.547482      20.757956      2187.7464    
       133   0             -146.75335     -411.0002      -260.79926     -260.37314     -711.82821      1.3580636e-08  4.7741978e-12  3.9198476e-12  6.3691353      16.547482      20.757956      2187.7464    
       134   0             -146.75335     -411.0002      -260.79926     -260.37314     -711.82821      2.5702068e-08  7.5589347e-12  1.6855789e-11  6.3691353      16.547482      20.757956      2187.7464    
       135   0             -146.75335     -411.0002      -260.79926     -260.37314     -711.82821      1.8692643e-08 -8.6768948e-13 -2.1258392e-11  6.3691353      16.547482      20.757956      2187.7464    
Loop time of 0.013606 on 1 procs for 35 steps with 96 atoms

0.0% CPU use with 1 MPI tasks x 1 OpenMP threads

Minimization stats:
  Stopping criterion = force tolerance
  Energy initial, next-to-last, final = 
     -146.753348517317   -146.75334853752  -146.753348537519
  Force two-norm initial, final = 0.00046473795 9.5194859e-11
  Force max component initial, final = 7.1616213e-05 2.0534581e-11
  Final line search alpha, max atom move = 1 2.0534581e-11
  Iterations, force evaluations = 35 70

MPI task timing breakdown:
Section |  min time  |  avg time  |  max time  |%varavg| %total
---------------------------------------------------------------
Pair    | 0.012855   | 0.012855   | 0.012855   |   0.0 | 94.48
Neigh   | 0          | 0          | 0          |   0.0 |  0.00
Comm    | 0.00026    | 0.00026    | 0.00026    |   0.0 |  1.91
Output  | 0.000334   | 0.000334   | 0.000334   |   0.0 |  2.45
Modify  | 0          | 0          | 0          |   0.0 |  0.00
Other   |            | 0.000157   |            |       |  1.15

Nlocal:             96 ave          96 max          96 min
Histogram: 1 0 0 0 0 0 0 0 0 0
Nghost:           1310 ave        1310 max        1310 min
Histogram: 1 0 0 0 0 0 0 0 0 0
Neighs:           6144 ave        6144 max        6144 min
Histogram: 1 0 0 0 0 0 0 0 0 0

Total # of neighbors = 6144
Ave neighs/atom = 64
Neighbor list builds = 0
Dangerous builds = 0
OMP_NUM_THREADS environment is not set. Defaulting to 1 thread. (src/comm.cpp:98)
  using 1 OpenMP thread(s) per MPI task
Loaded 1 plugins from F:\Lammps\LAMMPS 64-bit 2Aug2023\plugins

The 'box' command has been removed and will be ignored

Reading restart file ...
  restart file = 2 Aug 2023, LAMMPS = 2 Aug 2023
  restoring atom style atomic from restart
  triclinic box = (0.025435542 0.066083476 0.10483816) to (6.3945645 16.613566 20.862794) with tilt (0 0 0)
  1 by 1 by 1 MPI processor grid
  pair style eam/alloy stores no restart info
  96 atoms
  read_restart CPU = 0.000 seconds
Changing box ...
  triclinic box = (0.025435542 0.066083476 0.10483816) to (6.3945645 16.613549 20.862794) with tilt (0 0 0)
  triclinic box = (0.025435542 0.066083476 0.10483816) to (6.3945645 16.613549 20.862794) with tilt (0 0 0)
Neighbor list info ...
  update: every = 1 steps, delay = 0 steps, check = yes
  max neighbors/atom: 2000, page size: 100000
  master list distance cutoff = 8.5
  ghost atom cutoff = 8.5
  1 neighbor lists, perpetual/occasional/extra = 1 0 0
  (1) pair eam/alloy, perpetual
      attributes: half, newton on
      pair build: half/nsq/newton
      stencil: none
      bin: none
Setting up cg style minimization ...
  Unit style    : metal
  Current step  : 100
Per MPI rank memory allocation (min/avg/max) = 4.467 | 4.467 | 4.467 Mbytes
   Step          Temp          PotEng         Press           Pxx            Pyy            Pzz            Pxy            Pxz            Pyz             Lx             Ly             Lz           Volume    
       100   0             -146.75335     -410.26323     -259.85687     -259.42166     -711.51117      0.018566741   -1.7465473e-06 -5.8779887e-06  6.3691289      16.547466      20.757956      2187.7421    
       101   0             -146.75335     -410.26332     -259.85596     -259.42285     -711.51116      0.014138143   -1.7536059e-06 -2.5399125e-06  6.3691289      16.547466      20.757956      2187.7421    
       102   0             -146.75335     -410.26335     -259.85458     -259.4243      -711.51116      0.0083336442  -6.218924e-07  -4.7637088e-07  6.3691289      16.547466      20.757956      2187.7421    
       103   0             -146.75335     -410.26335     -259.85365     -259.42525     -711.51116      0.0044960722  -3.0012645e-07 -3.3550939e-11  6.3691289      16.547466      20.757956      2187.7421    
       104   0             -146.75335     -410.26335     -259.85296     -259.42595     -711.51116      0.0016341093  -2.4391688e-07  1.2636272e-08  6.3691289      16.547466      20.757956      2187.7421    
       105   0             -146.75335     -410.26336     -259.8525      -259.42641     -711.51116     -0.00023897884 -1.4297209e-07  7.6985198e-08  6.3691289      16.547466      20.757956      2187.7421    
       106   0             -146.75335     -410.26336     -259.85232     -259.42659     -711.51116     -0.00098291076 -7.1859609e-08 -1.8421295e-08  6.3691289      16.547466      20.757956      2187.7421    
       107   0             -146.75335     -410.26336     -259.85236     -259.42656     -711.51116     -0.0008374961  -3.3940264e-08  5.1811835e-08  6.3691289      16.547466      20.757956      2187.7421    
       108   0             -146.75335     -410.26336     -259.85248     -259.42644     -711.51116     -0.00034315909 -4.3983319e-09 -2.8869513e-08  6.3691289      16.547466      20.757956      2187.7421    
       109   0             -146.75335     -410.26336     -259.85258     -259.42633     -711.51116      8.2362581e-05  2.7284963e-09  2.3071218e-08  6.3691289      16.547466      20.757956      2187.7421    
       110   0             -146.75335     -410.26336     -259.85262     -259.4263      -711.51116      0.00022806336  2.7241845e-09 -5.9973394e-09  6.3691289      16.547466      20.757956      2187.7421    
       111   0             -146.75335     -410.26336     -259.8526      -259.42631     -711.51116      0.00016911156  1.0561632e-09  7.2081606e-09  6.3691289      16.547466      20.757956      2187.7421    
       112   0             -146.75335     -410.26336     -259.85257     -259.42634     -711.51116      4.6430485e-05 -5.1885902e-10 -6.1617142e-09  6.3691289      16.547466      20.757956      2187.7421    
       113   0             -146.75335     -410.26336     -259.85255     -259.42637     -711.51116     -7.0664023e-05 -1.1216351e-09  5.7070529e-09  6.3691289      16.547466      20.757956      2187.7421    
       114   0             -146.75335     -410.26336     -259.85254     -259.42638     -711.51116     -9.7500377e-05 -7.7143974e-10 -5.0060918e-09  6.3691289      16.547466      20.757956      2187.7421    
       115   0             -146.75335     -410.26336     -259.85255     -259.42637     -711.51116     -5.9092915e-05 -5.798553e-10   3.3670497e-09  6.3691289      16.547466      20.757956      2187.7421    
       116   0             -146.75335     -410.26336     -259.85257     -259.42635     -711.51116      1.0223374e-05 -1.8113912e-10 -1.7470042e-09  6.3691289      16.547466      20.757956      2187.7421    
       117   0             -146.75335     -410.26336     -259.85258     -259.42633     -711.51116      7.0519631e-05  1.8000464e-11  9.8694477e-10  6.3691289      16.547466      20.757956      2187.7421    
       118   0             -146.75335     -410.26336     -259.85258     -259.42634     -711.51116      6.0087005e-05  1.3119542e-11 -5.3696175e-10  6.3691289      16.547466      20.757956      2187.7421    
       119   0             -146.75335     -410.26336     -259.85257     -259.42635     -711.51116      2.2653963e-05  2.0669599e-12  4.6167779e-10  6.3691289      16.547466      20.757956      2187.7421    
       120   0             -146.75335     -410.26336     -259.85256     -259.42635     -711.51116     -2.4458305e-06  2.2842003e-12 -2.2058731e-10  6.3691289      16.547466      20.757956      2187.7421    
       121   0             -146.75335     -410.26336     -259.85256     -259.42635     -711.51116     -1.1618048e-05  5.6787405e-12  1.4366324e-10  6.3691289      16.547466      20.757956      2187.7421    
       122   0             -146.75335     -410.26336     -259.85256     -259.42635     -711.51116     -1.0535033e-05 -6.5261051e-12 -3.394032e-11   6.3691289      16.547466      20.757956      2187.7421    
       123   0             -146.75335     -410.26336     -259.85256     -259.42635     -711.51116     -4.4224627e-06  1.5450748e-11  4.4972576e-12  6.3691289      16.547466      20.757956      2187.7421    
       124   0             -146.75335     -410.26336     -259.85256     -259.42635     -711.51116     -6.2239814e-07  4.9698507e-12 -3.0610571e-12  6.3691289      16.547466      20.757956      2187.7421    
       125   0             -146.75335     -410.26336     -259.85256     -259.42635     -711.51116      1.6558738e-06 -1.255929e-11   2.4925478e-11  6.3691289      16.547466      20.757956      2187.7421    
       126   0             -146.75335     -410.26336     -259.85256     -259.42635     -711.51116      2.0129046e-06 -1.2068912e-13 -1.2815278e-11  6.3691289      16.547466      20.757956      2187.7421    
       127   0             -146.75335     -410.26336     -259.85256     -259.42635     -711.51116      1.1272065e-06  1.1751309e-12 -5.4500664e-13  6.3691289      16.547466      20.757956      2187.7421    
       128   0             -146.75335     -410.26336     -259.85256     -259.42635     -711.51116      3.1396184e-07 -4.4807422e-12 -1.718613e-11   6.3691289      16.547466      20.757956      2187.7421    
       129   0             -146.75335     -410.26336     -259.85256     -259.42635     -711.51116     -1.7739626e-07 -9.5357105e-12 -1.039832e-12   6.3691289      16.547466      20.757956      2187.7421    
       130   0             -146.75335     -410.26336     -259.85256     -259.42635     -711.51116     -2.2010503e-07 -9.3426079e-12 -3.4455472e-11  6.3691289      16.547466      20.757956      2187.7421    
       131   0             -146.75335     -410.26336     -259.85256     -259.42635     -711.51116     -1.2155053e-07  2.9943605e-12 -4.3606883e-12  6.3691289      16.547466      20.757956      2187.7421    
       132   0             -146.75335     -410.26336     -259.85256     -259.42635     -711.51116     -3.7680643e-08 -7.6351745e-13 -4.1860067e-13  6.3691289      16.547466      20.757956      2187.7421    
       133   0             -146.75335     -410.26336     -259.85256     -259.42635     -711.51116      1.371379e-08  -7.923558e-12  -3.0324728e-12  6.3691289      16.547466      20.757956      2187.7421    
       134   0             -146.75335     -410.26336     -259.85256     -259.42635     -711.51116      2.5652652e-08  4.9012485e-12  1.1434976e-11  6.3691289      16.547466      20.757956      2187.7421    
       135   0             -146.75335     -410.26336     -259.85256     -259.42635     -711.51116      1.8621583e-08  1.6286678e-12  9.506491e-12   6.3691289      16.547466      20.757956      2187.7421    
Loop time of 0.014359 on 1 procs for 35 steps with 96 atoms

108.8% CPU use with 1 MPI tasks x 1 OpenMP threads

Minimization stats:
  Stopping criterion = force tolerance
  Energy initial, next-to-last, final = 
     -146.753349227674  -146.753349247877  -146.753349247877
  Force two-norm initial, final = 0.00046474717 9.5063359e-11
  Force max component initial, final = 7.1617556e-05 2.0512078e-11
  Final line search alpha, max atom move = 1 2.0512078e-11
  Iterations, force evaluations = 35 70

MPI task timing breakdown:
Section |  min time  |  avg time  |  max time  |%varavg| %total
---------------------------------------------------------------
Pair    | 0.013514   | 0.013514   | 0.013514   |   0.0 | 94.12
Neigh   | 0          | 0          | 0          |   0.0 |  0.00
Comm    | 0.000338   | 0.000338   | 0.000338   |   0.0 |  2.35
Output  | 0.000358   | 0.000358   | 0.000358   |   0.0 |  2.49
Modify  | 0          | 0          | 0          |   0.0 |  0.00
Other   |            | 0.000149   |            |       |  1.04

Nlocal:             96 ave          96 max          96 min
Histogram: 1 0 0 0 0 0 0 0 0 0
Nghost:           1310 ave        1310 max        1310 min
Histogram: 1 0 0 0 0 0 0 0 0 0
Neighs:           6144 ave        6144 max        6144 min
Histogram: 1 0 0 0 0 0 0 0 0 0

Total # of neighbors = 6144
Ave neighs/atom = 64
Neighbor list builds = 0
Dangerous builds = 0
OMP_NUM_THREADS environment is not set. Defaulting to 1 thread. (src/comm.cpp:98)
  using 1 OpenMP thread(s) per MPI task
Loaded 1 plugins from F:\Lammps\LAMMPS 64-bit 2Aug2023\plugins

The 'box' command has been removed and will be ignored

Reading restart file ...
  restart file = 2 Aug 2023, LAMMPS = 2 Aug 2023
  restoring atom style atomic from restart
  triclinic box = (0.025435542 0.066083476 0.10483816) to (6.3945645 16.613566 20.862794) with tilt (0 0 0)
  1 by 1 by 1 MPI processor grid
  pair style eam/alloy stores no restart info
  96 atoms
  read_restart CPU = 0.000 seconds
Changing box ...
  triclinic box = (0.025435542 0.066083476 0.10483816) to (6.3945645 16.613582 20.862794) with tilt (0 0 0)
  triclinic box = (0.025435542 0.066083476 0.10483816) to (6.3945645 16.613582 20.862794) with tilt (0 0 0)
Neighbor list info ...
  update: every = 1 steps, delay = 0 steps, check = yes
  max neighbors/atom: 2000, page size: 100000
  master list distance cutoff = 8.5
  ghost atom cutoff = 8.5
  1 neighbor lists, perpetual/occasional/extra = 1 0 0
  (1) pair eam/alloy, perpetual
      attributes: half, newton on
      pair build: half/nsq/newton
      stencil: none
      bin: none
Setting up cg style minimization ...
  Unit style    : metal
  Current step  : 100
Per MPI rank memory allocation (min/avg/max) = 4.467 | 4.467 | 4.467 Mbytes
   Step          Temp          PotEng         Press           Pxx            Pyy            Pzz            Pxy            Pxz            Pyz             Lx             Ly             Lz           Volume    
       100   0             -146.75335     -411.00008     -260.36189     -260.81011     -711.82822      0.018570508   -1.9845118e-06 -5.7848404e-06  6.3691289      16.547499      20.757956      2187.7464    
       101   0             -146.75335     -411.00017     -260.36469     -260.8076      -711.82821      0.014140082   -1.7731295e-06 -2.5805772e-06  6.3691289      16.547499      20.757956      2187.7464    
       102   0             -146.75335     -411.00019     -260.36819     -260.80418     -711.82821      0.0083318893  -6.2175178e-07 -3.3166307e-07  6.3691289      16.547499      20.757956      2187.7464    
       103   0             -146.75335     -411.0002      -260.37048     -260.80191     -711.82821      0.004490845   -2.9982936e-07 -9.2492455e-08  6.3691289      16.547499      20.757956      2187.7464    
       104   0             -146.75335     -411.0002      -260.37218     -260.80021     -711.82821      0.0016285695  -2.4374858e-07  8.8768789e-08  6.3691289      16.547499      20.757956      2187.7464    
       105   0             -146.75335     -411.0002      -260.37329     -260.7991      -711.82821     -0.00023726221 -1.4299955e-07  1.1799503e-08  6.3691289      16.547499      20.757956      2187.7464    
       106   0             -146.75335     -411.0002      -260.37373     -260.79867     -711.82821     -0.0009758168  -7.2120607e-08  6.3754552e-08  6.3691289      16.547499      20.757956      2187.7464    
       107   0             -146.75335     -411.0002      -260.37365     -260.79875     -711.82821     -0.00083149829 -3.4055445e-08 -3.6380721e-08  6.3691289      16.547499      20.757956      2187.7464    
       108   0             -146.75335     -411.0002      -260.37335     -260.79904     -711.82821     -0.00034028466 -4.4417914e-09  4.084465e-08   6.3691289      16.547499      20.757956      2187.7464    
       109   0             -146.75335     -411.0002      -260.3731      -260.79929     -711.82821      8.1403523e-05  2.7311587e-09 -1.3438997e-08  6.3691289      16.547499      20.757956      2187.7464    
       110   0             -146.75335     -411.0002      -260.37302     -260.79938     -711.82821      0.00022549323  2.7183962e-09  1.1325397e-08  6.3691289      16.547499      20.757956      2187.7464    
       111   0             -146.75335     -411.0002      -260.37305     -260.79935     -711.82821      0.00016725123  1.0506475e-09 -5.3354658e-09  6.3691289      16.547499      20.757956      2187.7464    
       112   0             -146.75335     -411.0002      -260.37313     -260.79927     -711.82821      4.5914218e-05 -5.2428136e-10  6.4878368e-09  6.3691289      16.547499      20.757956      2187.7464    
       113   0             -146.75335     -411.0002      -260.37319     -260.7992      -711.82821     -6.9610755e-05 -1.1101483e-09 -6.236447e-09   6.3691289      16.547499      20.757956      2187.7464    
       114   0             -146.75335     -411.0002      -260.37321     -260.79919     -711.82821     -9.6097307e-05 -7.8006936e-10  4.4157251e-09  6.3691289      16.547499      20.757956      2187.7464    
       115   0             -146.75335     -411.0002      -260.37319     -260.79921     -711.82821     -5.8249234e-05 -5.7746577e-10 -3.7542256e-09  6.3691289      16.547499      20.757956      2187.7464    
       116   0             -146.75335     -411.0002      -260.37315     -260.79925     -711.82821      9.9693991e-06 -1.8625342e-10  1.7637555e-09  6.3691289      16.547499      20.757956      2187.7464    
       117   0             -146.75335     -411.0002      -260.37311     -260.79929     -711.82821      6.9183665e-05  2.9643728e-11 -8.2821723e-10  6.3691289      16.547499      20.757956      2187.7464    
       118   0             -146.75335     -411.0002      -260.37312     -260.79928     -711.82821      5.898348e-05   6.4511379e-12  6.4963073e-10  6.3691289      16.547499      20.757956      2187.7464    
       119   0             -146.75335     -411.0002      -260.37314     -260.79926     -711.82821      2.220073e-05   9.7694467e-12 -3.9872809e-10  6.3691289      16.547499      20.757956      2187.7464    
       120   0             -146.75335     -411.0002      -260.37315     -260.79924     -711.82821     -2.3586899e-06 -5.5466066e-12  2.3299749e-10  6.3691289      16.547499      20.757956      2187.7464    
       121   0             -146.75335     -411.0002      -260.37316     -260.79924     -711.82821     -1.1309467e-05 -9.1380534e-12 -1.2695898e-10  6.3691289      16.547499      20.757956      2187.7464    
       122   0             -146.75335     -411.0002      -260.37316     -260.79924     -711.82821     -1.0267764e-05 -5.24679e-13    2.8863062e-11  6.3691289      16.547499      20.757956      2187.7464    
       123   0             -146.75335     -411.0002      -260.37315     -260.79924     -711.82821     -4.3018831e-06 -1.4012613e-12 -1.2195293e-11  6.3691289      16.547499      20.757956      2187.7464    
       124   0             -146.75335     -411.0002      -260.37315     -260.79925     -711.82821     -6.0640486e-07 -4.1237483e-12  2.5485679e-11  6.3691289      16.547499      20.757956      2187.7464    
       125   0             -146.75335     -411.0002      -260.37315     -260.79925     -711.82821      1.5983066e-06  2.0860119e-12 -1.111608e-11   6.3691289      16.547499      20.757956      2187.7464    
       126   0             -146.75335     -411.0002      -260.37315     -260.79925     -711.82821      1.9448235e-06  3.1950791e-12  2.3178616e-12  6.3691289      16.547499      20.757956      2187.7464    
       127   0             -146.75335     -411.0002      -260.37315     -260.79925     -711.82821      1.0896809e-06 -2.8622319e-12  5.6990557e-12  6.3691289      16.547499      20.757956      2187.7464    
       128   0             -146.75335     -411.0002      -260.37315     -260.79925     -711.82821      3.0391222e-07  1.6591544e-12  1.4053902e-11  6.3691289      16.547499      20.757956      2187.7464    
       129   0             -146.75335     -411.0002      -260.37315     -260.79925     -711.82821     -1.6994436e-07 -1.021409e-12   6.8538576e-13  6.3691289      16.547499      20.757956      2187.7464    
       130   0             -146.75335     -411.0002      -260.37315     -260.79925     -711.82821     -2.1149646e-07  1.7455422e-12  3.0280203e-12  6.3691289      16.547499      20.757956      2187.7464    
       131   0             -146.75335     -411.0002      -260.37315     -260.79925     -711.82821     -1.1696522e-07  1.5969044e-12 -2.3794764e-12  6.3691289      16.547499      20.757956      2187.7464    
       132   0             -146.75335     -411.0002      -260.37315     -260.79925     -711.82821     -3.6341803e-08 -3.1379107e-13  1.2687577e-11  6.3691289      16.547499      20.757956      2187.7464    
       133   0             -146.75335     -411.0002      -260.37315     -260.79925     -711.82821      1.300724e-08   6.6378881e-12  2.759964e-12   6.3691289      16.547499      20.757956      2187.7464    
       134   0             -146.75335     -411.0002      -260.37315     -260.79925     -711.82821      2.4543498e-08  4.6331823e-12 -9.6049287e-12  6.3691289      16.547499      20.757956      2187.7464    
       135   0             -146.75335     -411.0002      -260.37315     -260.79925     -711.82821      1.7837666e-08  1.9513485e-12 -5.057499e-12   6.3691289      16.547499      20.757956      2187.7464    
Loop time of 0.014107 on 1 procs for 35 steps with 96 atoms

110.8% CPU use with 1 MPI tasks x 1 OpenMP threads

Minimization stats:
  Stopping criterion = force tolerance
  Energy initial, next-to-last, final = 
     -146.753348517305  -146.753348537518  -146.753348537518
  Force two-norm initial, final = 0.00046476816 9.5264709e-11
  Force max component initial, final = 7.1617205e-05 2.0482727e-11
  Final line search alpha, max atom move = 1 2.0482727e-11
  Iterations, force evaluations = 35 70

MPI task timing breakdown:
Section |  min time  |  avg time  |  max time  |%varavg| %total
---------------------------------------------------------------
Pair    | 0.01337    | 0.01337    | 0.01337    |   0.0 | 94.78
Neigh   | 0          | 0          | 0          |   0.0 |  0.00
Comm    | 0.000256   | 0.000256   | 0.000256   |   0.0 |  1.81
Output  | 0.000326   | 0.000326   | 0.000326   |   0.0 |  2.31
Modify  | 0          | 0          | 0          |   0.0 |  0.00
Other   |            | 0.000155   |            |       |  1.10

Nlocal:             96 ave          96 max          96 min
Histogram: 1 0 0 0 0 0 0 0 0 0
Nghost:           1310 ave        1310 max        1310 min
Histogram: 1 0 0 0 0 0 0 0 0 0
Neighs:           6144 ave        6144 max        6144 min
Histogram: 1 0 0 0 0 0 0 0 0 0

Total # of neighbors = 6144
Ave neighs/atom = 64
Neighbor list builds = 0
Dangerous builds = 0
OMP_NUM_THREADS environment is not set. Defaulting to 1 thread. (src/comm.cpp:98)
  using 1 OpenMP thread(s) per MPI task
Loaded 1 plugins from F:\Lammps\LAMMPS 64-bit 2Aug2023\plugins

The 'box' command has been removed and will be ignored

Reading restart file ...
  restart file = 2 Aug 2023, LAMMPS = 2 Aug 2023
  restoring atom style atomic from restart
  triclinic box = (0.025435542 0.066083476 0.10483816) to (6.3945645 16.613566 20.862794) with tilt (0 0 0)
  1 by 1 by 1 MPI processor grid
  pair style eam/alloy stores no restart info
  96 atoms
  read_restart CPU = 0.000 seconds
Changing box ...
  triclinic box = (0.025435542 0.066083476 0.10483816) to (6.3945645 16.613566 20.862773) with tilt (0 0 0)
Neighbor list info ...
  update: every = 1 steps, delay = 0 steps, check = yes
  max neighbors/atom: 2000, page size: 100000
  master list distance cutoff = 8.5
  ghost atom cutoff = 8.5
  1 neighbor lists, perpetual/occasional/extra = 1 0 0
  (1) pair eam/alloy, perpetual
      attributes: half, newton on
      pair build: half/nsq/newton
      stencil: none
      bin: none
Setting up cg style minimization ...
  Unit style    : metal
  Current step  : 100
Per MPI rank memory allocation (min/avg/max) = 4.467 | 4.467 | 4.467 Mbytes
   Step          Temp          PotEng         Press           Pxx            Pyy            Pzz            Pxy            Pxz            Pyz             Lx             Ly             Lz           Volume    
       100   0             -146.75335     -410.2964      -259.95042     -259.95697     -710.98181      0.018568634   -1.8828558e-06 -5.7965528e-06  6.3691289      16.547482      20.757935      2187.7421    
       101   0             -146.75335     -410.29649     -259.95136     -259.95631     -710.9818       0.01413914    -1.7732737e-06 -2.5321529e-06  6.3691289      16.547482      20.757935      2187.7421    
       102   0             -146.75335     -410.29651     -259.95242     -259.95533     -710.98179      0.0083342752  -6.2197278e-07 -4.0397679e-07  6.3691289      16.547482      20.757935      2187.7421    
       103   0             -146.75335     -410.29652     -259.9531      -259.95467     -710.98179      0.0044966161  -3.0018746e-07 -4.6476908e-08  6.3691289      16.547482      20.757935      2187.7421    
       104   0             -146.75335     -410.29652     -259.9536      -259.95417     -710.98179      0.0016345601  -2.4394763e-07  5.0603151e-08  6.3691289      16.547482      20.757935      2187.7421    
       105   0             -146.75335     -410.29652     -259.95393     -259.95385     -710.98179     -0.00023926127 -1.4297266e-07  4.4348397e-08  6.3691289      16.547482      20.757935      2187.7421    
       106   0             -146.75335     -410.29652     -259.95406     -259.95372     -710.98179     -0.00098360993 -7.1844473e-08  2.2661779e-08  6.3691289      16.547482      20.757935      2187.7421    
       107   0             -146.75335     -410.29652     -259.95403     -259.95374     -710.98179     -0.00083803201 -3.3947237e-08  7.7370228e-09  6.3691289      16.547482      20.757935      2187.7421    
       108   0             -146.75335     -410.29652     -259.95395     -259.95383     -710.98179     -0.00034338204 -4.3920459e-09  5.9650036e-09  6.3691289      16.547482      20.757935      2187.7421    
       109   0             -146.75335     -410.29652     -259.95387     -259.9539      -710.98179      8.2486389e-05  2.7310435e-09  4.8143942e-09  6.3691289      16.547482      20.757935      2187.7421    
       110   0             -146.75335     -410.29652     -259.95385     -259.95393     -710.98179      0.00022832301  2.7152701e-09  2.6714485e-09  6.3691289      16.547482      20.757935      2187.7421    
       111   0             -146.75335     -410.29652     -259.95386     -259.95392     -710.98179      0.00016927261  1.03932e-09    9.4490748e-10  6.3691289      16.547482      20.757935      2187.7421    
       112   0             -146.75335     -410.29652     -259.95388     -259.9539      -710.98179      4.6469121e-05 -5.252403e-10   1.735446e-10   6.3691289      16.547482      20.757935      2187.7421    
       113   0             -146.75335     -410.29652     -259.9539      -259.95388     -710.98179     -7.0776693e-05 -1.1001359e-09 -2.5851164e-10  6.3691289      16.547482      20.757935      2187.7421    
       114   0             -146.75335     -410.29652     -259.95391     -259.95387     -710.98179     -9.7654321e-05 -7.7507058e-10 -2.8971232e-10  6.3691289      16.547482      20.757935      2187.7421    
       115   0             -146.75335     -410.29652     -259.9539      -259.95388     -710.98179     -5.9193548e-05 -5.7360233e-10 -1.8937202e-10  6.3691289      16.547482      20.757935      2187.7421    
       116   0             -146.75335     -410.29652     -259.95389     -259.95389     -710.98179      1.0247838e-05 -1.796629e-10   9.5598483e-13  6.3691289      16.547482      20.757935      2187.7421    
       117   0             -146.75335     -410.29652     -259.95388     -259.9539      -710.98179      7.0673941e-05  2.4784463e-11  7.5035599e-11  6.3691289      16.547482      20.757935      2187.7421    
       118   0             -146.75335     -410.29652     -259.95388     -259.9539      -710.98179      6.022095e-05   8.4393452e-12  5.9593744e-11  6.3691289      16.547482      20.757935      2187.7421    
       119   0             -146.75335     -410.29652     -259.95389     -259.95389     -710.98179      2.2710808e-05  2.6691351e-12 -5.6603195e-12  6.3691289      16.547482      20.757935      2187.7421    
       120   0             -146.75335     -410.29652     -259.95389     -259.95389     -710.98179     -2.4543512e-06  1.0087069e-11 -1.5079152e-11  6.3691289      16.547482      20.757935      2187.7421    
       121   0             -146.75335     -410.29652     -259.95389     -259.95389     -710.98179     -1.165417e-05  -8.1687475e-13  1.4338502e-11  6.3691289      16.547482      20.757935      2187.7421    
       122   0             -146.75335     -410.29652     -259.95389     -259.95389     -710.98179     -1.0567799e-05  1.626127e-13  -3.1220368e-12  6.3691289      16.547482      20.757935      2187.7421    
       123   0             -146.75335     -410.29652     -259.95389     -259.95389     -710.98179     -4.4366468e-06  4.396895e-12   6.2739284e-12  6.3691289      16.547482      20.757935      2187.7421    
       124   0             -146.75335     -410.29652     -259.95389     -259.95389     -710.98179     -6.2276652e-07  9.8660176e-12 -1.232744e-11   6.3691289      16.547482      20.757935      2187.7421    
       125   0             -146.75335     -410.29652     -259.95389     -259.95389     -710.98179      1.6644324e-06  4.310507e-12  -1.3325349e-11  6.3691289      16.547482      20.757935      2187.7421    
       126   0             -146.75335     -410.29652     -259.95389     -259.95389     -710.98179      2.02183e-06   -7.8638487e-13 -9.1723727e-13  6.3691289      16.547482      20.757935      2187.7421    
       127   0             -146.75335     -410.29652     -259.95389     -259.95389     -710.98179      1.1311606e-06  6.1487928e-13 -3.6225791e-11  6.3691289      16.547482      20.757935      2187.7421    
       128   0             -146.75335     -410.29652     -259.95389     -259.95389     -710.98179      3.1464714e-07  1.8243113e-12 -5.8928048e-12  6.3691289      16.547482      20.757935      2187.7421    
       129   0             -146.75335     -410.29652     -259.95389     -259.95389     -710.98179     -1.7836089e-07  7.4242862e-12  2.1951444e-11  6.3691289      16.547482      20.757935      2187.7421    
       130   0             -146.75335     -410.29652     -259.95389     -259.95389     -710.98179     -2.2103934e-07 -3.4085147e-12  7.7006007e-12  6.3691289      16.547482      20.757935      2187.7421    
       131   0             -146.75335     -410.29652     -259.95389     -259.95389     -710.98179     -1.219689e-07  -8.6896163e-13 -1.6972701e-12  6.3691289      16.547482      20.757935      2187.7421    
       132   0             -146.75335     -410.29652     -259.95389     -259.95389     -710.98179     -3.7785757e-08  7.7406187e-12 -8.8280912e-12  6.3691289      16.547482      20.757935      2187.7421    
       133   0             -146.75335     -410.29652     -259.95389     -259.95389     -710.98179      1.3758269e-08  2.9918196e-12  4.1790194e-12  6.3691289      16.547482      20.757935      2187.7421    
       134   0             -146.75335     -410.29652     -259.95389     -259.95389     -710.98179      2.574248e-08   3.1175904e-12  9.7199202e-12  6.3691289      16.547482      20.757935      2187.7421    
       135   0             -146.75335     -410.29652     -259.95389     -259.95389     -710.98179      1.86777e-08   -1.6299383e-12 -2.6494437e-12  6.3691289      16.547482      20.757935      2187.7421    
Loop time of 0.013288 on 1 procs for 35 steps with 96 atoms

117.6% CPU use with 1 MPI tasks x 1 OpenMP threads

Minimization stats:
  Stopping criterion = force tolerance
  Energy initial, next-to-last, final = 
     -146.753349844268  -146.753349864469  -146.753349864469
  Force two-norm initial, final = 0.00046474127 9.4982178e-11
  Force max component initial, final = 7.1617866e-05 2.0517733e-11
  Final line search alpha, max atom move = 1 2.0517733e-11
  Iterations, force evaluations = 35 70

MPI task timing breakdown:
Section |  min time  |  avg time  |  max time  |%varavg| %total
---------------------------------------------------------------
Pair    | 0.012552   | 0.012552   | 0.012552   |   0.0 | 94.46
Neigh   | 0          | 0          | 0          |   0.0 |  0.00
Comm    | 0.000254   | 0.000254   | 0.000254   |   0.0 |  1.91
Output  | 0.00033    | 0.00033    | 0.00033    |   0.0 |  2.48
Modify  | 0          | 0          | 0          |   0.0 |  0.00
Other   |            | 0.000152   |            |       |  1.14

Nlocal:             96 ave          96 max          96 min
Histogram: 1 0 0 0 0 0 0 0 0 0
Nghost:           1310 ave        1310 max        1310 min
Histogram: 1 0 0 0 0 0 0 0 0 0
Neighs:           6144 ave        6144 max        6144 min
Histogram: 1 0 0 0 0 0 0 0 0 0

Total # of neighbors = 6144
Ave neighs/atom = 64
Neighbor list builds = 0
Dangerous builds = 0
OMP_NUM_THREADS environment is not set. Defaulting to 1 thread. (src/comm.cpp:98)
  using 1 OpenMP thread(s) per MPI task
Loaded 1 plugins from F:\Lammps\LAMMPS 64-bit 2Aug2023\plugins

The 'box' command has been removed and will be ignored

Reading restart file ...
  restart file = 2 Aug 2023, LAMMPS = 2 Aug 2023
  restoring atom style atomic from restart
  triclinic box = (0.025435542 0.066083476 0.10483816) to (6.3945645 16.613566 20.862794) with tilt (0 0 0)
  1 by 1 by 1 MPI processor grid
  pair style eam/alloy stores no restart info
  96 atoms
  read_restart CPU = 0.000 seconds
Changing box ...
  triclinic box = (0.025435542 0.066083476 0.10483816) to (6.3945645 16.613566 20.862815) with tilt (0 0 0)
Neighbor list info ...
  update: every = 1 steps, delay = 0 steps, check = yes
  max neighbors/atom: 2000, page size: 100000
  master list distance cutoff = 8.5
  ghost atom cutoff = 8.5
  1 neighbor lists, perpetual/occasional/extra = 1 0 0
  (1) pair eam/alloy, perpetual
      attributes: half, newton on
      pair build: half/nsq/newton
      stencil: none
      bin: none
Setting up cg style minimization ...
  Unit style    : metal
  Current step  : 100
Per MPI rank memory allocation (min/avg/max) = 4.467 | 4.467 | 4.467 Mbytes
   Step          Temp          PotEng         Press           Pxx            Pyy            Pzz            Pxy            Pxz            Pyz             Lx             Ly             Lz           Volume    
       100   0             -146.75335     -410.96701     -260.26837     -260.27492     -712.35772      0.018568845   -1.8490183e-06 -5.746582e-06   6.3691289      16.547482      20.757977      2187.7464    
       101   0             -146.75335     -410.9671      -260.26932     -260.27426     -712.35771      0.01413953    -1.7731827e-06 -2.5319952e-06  6.3691289      16.547482      20.757977      2187.7464    
       102   0             -146.75335     -410.96712     -260.27037     -260.27329     -712.35771      0.0083353292  -6.2189945e-07 -4.0386889e-07  6.3691289      16.547482      20.757977      2187.7464    
       103   0             -146.75335     -410.96713     -260.27105     -260.27262     -712.35771      0.0044978652  -3.0015808e-07 -4.6431133e-08  6.3691289      16.547482      20.757977      2187.7464    
       104   0             -146.75335     -410.96713     -260.27155     -260.27213     -712.35771      0.0016354543  -2.4390989e-07  5.062135e-08   6.3691289      16.547482      20.757977      2187.7464    
       105   0             -146.75335     -410.96713     -260.27188     -260.2718      -712.35771     -0.00023880622 -1.4294149e-07  4.438583e-08   6.3691289      16.547482      20.757977      2187.7464    
       106   0             -146.75335     -410.96713     -260.27201     -260.27167     -712.35771     -0.00098367927 -7.1817449e-08  2.2673873e-08  6.3691289      16.547482      20.757977      2187.7464    
       107   0             -146.75335     -410.96713     -260.27199     -260.2717      -712.35771     -0.00083832412 -3.3924322e-08  7.7382428e-09  6.3691289      16.547482      20.757977      2187.7464    
       108   0             -146.75335     -410.96713     -260.2719      -260.27178     -712.35771     -0.00034367526 -4.379986e-09   5.9714816e-09  6.3691289      16.547482      20.757977      2187.7464    
       109   0             -146.75335     -410.96713     -260.27183     -260.27186     -712.35771      8.2344106e-05  2.7227194e-09  4.8228176e-09  6.3691289      16.547482      20.757977      2187.7464    
       110   0             -146.75335     -410.96713     -260.2718      -260.27188     -712.35771      0.00022833821  2.7058204e-09  2.6685098e-09  6.3691289      16.547482      20.757977      2187.7464    
       111   0             -146.75335     -410.96713     -260.27181     -260.27187     -712.35771      0.00016942504  1.0455391e-09  9.3701508e-10  6.3691289      16.547482      20.757977      2187.7464    
[...]
       104   0             -146.75335     -410.63179     -260.11256     -260.11313     -711.66969      0.21536654    -2.0503303e-07  5.0877013e-08  6.3691289      16.547482      20.757956      2187.7442    
       105   0             -146.75335     -410.63179     -260.11288     -260.11281     -711.66969      0.21274422    -1.7564353e-07  4.4444669e-08  6.3691289      16.547482      20.757956      2187.7442    
       106   0             -146.75335     -410.63179     -260.11301     -260.11269     -711.66969      0.21171468    -3.1779e-08     2.285008e-08   6.3691289      16.547482      20.757956      2187.7442    
       107   0             -146.75335     -410.63179     -260.11298     -260.11271     -711.66969      0.21191631    -7.8523044e-08  7.8291237e-09  6.3691289      16.547482      20.757956      2187.7442    
       108   0             -146.75335     -410.63179     -260.1129      -260.1128      -711.66969      0.21260314     3.0450782e-08  5.9288037e-09  6.3691289      16.547482      20.757956      2187.7442    
       109   0             -146.75335     -410.63179     -260.11283     -260.11287     -711.66969      0.21318885    -1.551119e-08   4.8246772e-09  6.3691289      16.547482      20.757956      2187.7442    
       110   0             -146.75335     -410.63179     -260.1128      -260.11289     -711.66969      0.21338779     1.139528e-08   2.7080457e-09  6.3691289      16.547482      20.757956      2187.7442    
       111   0             -146.75335     -410.63179     -260.11281     -260.11288     -711.66969      0.21330715    -5.228998e-09   9.7883348e-10  6.3691289      16.547482      20.757956      2187.7442    
       112   0             -146.75335     -410.63179     -260.11283     -260.11286     -711.66969      0.21313931     5.8405457e-09  1.8864198e-10  6.3691289      16.547482      20.757956      2187.7442    
       113   0             -146.75335     -410.63179     -260.11285     -260.11284     -711.66969      0.21298061    -7.0483021e-09 -2.8114438e-10  6.3691289      16.547482      20.757956      2187.7442    
       114   0             -146.75335     -410.63179     -260.11286     -260.11284     -711.66969      0.21294436     3.9409365e-09 -2.9468886e-10  6.3691289      16.547482      20.757956      2187.7442    
       115   0             -146.75335     -410.63179     -260.11285     -260.11284     -711.66969      0.21299638    -4.1551849e-09 -1.724506e-10   6.3691289      16.547482      20.757956      2187.7442    
       116   0             -146.75335     -410.63179     -260.11284     -260.11286     -711.66969      0.21308976     1.5698932e-09  2.3728092e-11  6.3691289      16.547482      20.757956      2187.7442    
       117   0             -146.75335     -410.63179     -260.11283     -260.11287     -711.66969      0.21317008    -8.8697137e-10  6.2356827e-11  6.3691289      16.547482      20.757956      2187.7442    
       118   0             -146.75335     -410.63179     -260.11283     -260.11286     -711.66969      0.21315619     5.9842812e-10  7.1517757e-11  6.3691289      16.547482      20.757956      2187.7442    
       119   0             -146.75335     -410.63179     -260.11284     -260.11286     -711.66969      0.21310605    -4.2370476e-10  3.6826659e-11  6.3691289      16.547482      20.757956      2187.7442    
       120   0             -146.75335     -410.63179     -260.11284     -260.11285     -711.66969      0.21307296     2.2287954e-10  1.8306615e-11  6.3691289      16.547482      20.757956      2187.7442    
       121   0             -146.75335     -410.63179     -260.11284     -260.11285     -711.66969      0.21306101    -1.2217537e-10 -1.0780703e-11  6.3691289      16.547482      20.757956      2187.7442    
       122   0             -146.75335     -410.63179     -260.11284     -260.11285     -711.66969      0.21306241     2.8478791e-11 -1.0012105e-11  6.3691289      16.547482      20.757956      2187.7442    
       123   0             -146.75335     -410.63179     -260.11284     -260.11285     -711.66969      0.21307042    -1.8871947e-11  1.552124e-11   6.3691289      16.547482      20.757956      2187.7442    
       124   0             -146.75335     -410.63179     -260.11284     -260.11285     -711.66969      0.21307533     2.4722188e-12  1.1275528e-11  6.3691289      16.547482      20.757956      2187.7442    
       125   0             -146.75335     -410.63179     -260.11284     -260.11285     -711.66969      0.21307822    -1.6185029e-12  3.887456e-13   6.3691289      16.547482      20.757956      2187.7442    
       126   0             -146.75335     -410.63179     -260.11284     -260.11285     -711.66969      0.21307867     5.2544177e-12 -1.210193e-11   6.3691289      16.547482      20.757956      2187.7442    
       127   0             -146.75335     -410.63179     -260.11284     -260.11285     -711.66969      0.21307755    -1.7379215e-12  2.1692894e-11  6.3691289      16.547482      20.757956      2187.7442    
       128   0             -146.75335     -410.63179     -260.11284     -260.11285     -711.66969      0.21307652     6.0598579e-13 -4.0151958e-11  6.3691289      16.547482      20.757956      2187.7442    
       129   0             -146.75335     -410.63179     -260.11284     -260.11285     -711.66969      0.21307591    -4.0653135e-14  4.2812833e-12  6.3691289      16.547482      20.757956      2187.7442    
       130   0             -146.75335     -410.63179     -260.11284     -260.11285     -711.66969      0.21307585     9.4239048e-12  2.8838318e-13  6.3691289      16.547482      20.757956      2187.7442    
       131   0             -146.75335     -410.63179     -260.11284     -260.11285     -711.66969      0.21307598    -8.8928733e-13 -1.2614541e-11  6.3691289      16.547482      20.757956      2187.7442    
       132   0             -146.75335     -410.63179     -260.11284     -260.11285     -711.66969      0.21307608     1.2951835e-11  5.6533266e-13  6.3691289      16.547482      20.757956      2187.7442    
       133   0             -146.75335     -410.63179     -260.11284     -260.11285     -711.66969      0.21307615     6.4333586e-12  4.267944e-12   6.3691289      16.547482      20.757956      2187.7442    
       134   0             -146.75335     -410.63179     -260.11284     -260.11285     -711.66969      0.21307616     4.2203036e-12 -1.3819525e-11  6.3691289      16.547482      20.757956      2187.7442    
       135   0             -146.75335     -410.63179     -260.11284     -260.11285     -711.66969      0.21307615     9.7072064e-12 -1.3270073e-11  6.3691289      16.547482      20.757956      2187.7442    
Loop time of 0.013443 on 1 procs for 35 steps with 96 atoms

116.2% CPU use with 1 MPI tasks x 1 OpenMP threads

Minimization stats:
  Stopping criterion = force tolerance
  Energy initial, next-to-last, final = 
     -146.753348872787   -146.75334889302  -146.753348893021
  Force two-norm initial, final = 0.00046483863 9.5660117e-11
  Force max component initial, final = 7.1212641e-05 2.0444028e-11
  Final line search alpha, max atom move = 1 2.0444028e-11
  Iterations, force evaluations = 35 70

MPI task timing breakdown:
Section |  min time  |  avg time  |  max time  |%varavg| %total
---------------------------------------------------------------
Pair    | 0.012635   | 0.012635   | 0.012635   |   0.0 | 93.99
Neigh   | 0          | 0          | 0          |   0.0 |  0.00
Comm    | 0.000265   | 0.000265   | 0.000265   |   0.0 |  1.97
Output  | 0.000389   | 0.000389   | 0.000389   |   0.0 |  2.89
Modify  | 0          | 0          | 0          |   0.0 |  0.00
Other   |            | 0.000154   |            |       |  1.15

Nlocal:             96 ave          96 max          96 min
Histogram: 1 0 0 0 0 0 0 0 0 0
Nghost:           1310 ave        1310 max        1310 min
Histogram: 1 0 0 0 0 0 0 0 0 0
Neighs:           6144 ave        6144 max        6144 min
Histogram: 1 0 0 0 0 0 0 0 0 0

Total # of neighbors = 6144
Ave neighs/atom = 64
Neighbor list builds = 0
Dangerous builds = 0
OMP_NUM_THREADS environment is not set. Defaulting to 1 thread. (src/comm.cpp:98)
  using 1 OpenMP thread(s) per MPI task
Loaded 1 plugins from F:\Lammps\LAMMPS 64-bit 2Aug2023\plugins

The 'box' command has been removed and will be ignored

Reading restart file ...
  restart file = 2 Aug 2023, LAMMPS = 2 Aug 2023
  restoring atom style atomic from restart
  triclinic box = (0.025435542 0.066083476 0.10483816) to (6.3945645 16.613566 20.862794) with tilt (0 0 0)
  1 by 1 by 1 MPI processor grid
  pair style eam/alloy stores no restart info
  96 atoms
  read_restart CPU = 0.000 seconds
Changing box ...
  triclinic box = (0.025435542 0.066083476 0.10483816) to (6.3945645 16.613566 20.862794) with tilt (1.6547482e-05 0 0)
Neighbor list info ...
  update: every = 1 steps, delay = 0 steps, check = yes
  max neighbors/atom: 2000, page size: 100000
  master list distance cutoff = 8.5
  ghost atom cutoff = 8.5
  1 neighbor lists, perpetual/occasional/extra = 1 0 0
  (1) pair eam/alloy, perpetual
      attributes: half, newton on
      pair build: half/nsq/newton
      stencil: none
      bin: none
Setting up cg style minimization ...
  Unit style    : metal
  Current step  : 100
Per MPI rank memory allocation (min/avg/max) = 4.467 | 4.467 | 4.467 Mbytes
   Step          Temp          PotEng         Press           Pxx            Pyy            Pzz            Pxy            Pxz            Pyz             Lx             Ly             Lz           Volume    
       100   0             -146.75335     -410.63167     -260.10937     -260.11593     -711.66971     -0.20228874    -1.8840586e-06 -5.8444057e-06  6.3691289      16.547482      20.757956      2187.7442    
       101   0             -146.75335     -410.63176     -260.11031     -260.11527     -711.66969     -0.20486365    -1.7242736e-06 -2.5342937e-06  6.3691289      16.547482      20.757956      2187.7442    
       102   0             -146.75335     -410.63178     -260.11136     -260.1143      -711.66969     -0.20823066    -6.9460172e-07 -4.0331309e-07  6.3691289      16.547482      20.757956      2187.7442    
       103   0             -146.75335     -410.63179     -260.11204     -260.11364     -711.66969     -0.21045545    -2.5485831e-07 -4.7489153e-08  6.3691289      16.547482      20.757956      2187.7442    
       104   0             -146.75335     -410.63179     -260.11255     -260.11314     -711.66969     -0.21211817    -2.8211599e-07  5.0472446e-08  6.3691289      16.547482      20.757956      2187.7442    
       105   0             -146.75335     -410.63179     -260.11288     -260.11281     -711.66969     -0.21321698    -1.1023936e-07  4.4336917e-08  6.3691289      16.547482      20.757956      2187.7442    
       106   0             -146.75335     -410.63179     -260.11301     -260.11268     -711.66969     -0.21365714    -1.1244407e-07  2.2530854e-08  6.3691289      16.547482      20.757956      2187.7442    
       107   0             -146.75335     -410.63179     -260.11299     -260.11271     -711.66969     -0.21357132     1.0288379e-08  7.7009208e-09  6.3691289      16.547482      20.757956      2187.7442    
       108   0             -146.75335     -410.63179     -260.1129      -260.11279     -711.66969     -0.21327979    -3.9005612e-08  6.0099784e-09  6.3691289      16.547482      20.757956      2187.7442    
       109   0             -146.75335     -410.63179     -260.11283     -260.11287     -711.66969     -0.21302706     2.1018077e-08  4.8097308e-09  6.3691289      16.547482      20.757956      2187.7442    
       110   0             -146.75335     -410.63179     -260.1128      -260.1129      -711.66969     -0.21293996    -5.9575035e-09  2.6085364e-09  6.3691289      16.547482      20.757956      2187.7442    
       111   0             -146.75335     -410.63179     -260.11281     -260.11288     -711.66969     -0.21297509     7.2873616e-09  9.1675487e-10  6.3691289      16.547482      20.757956      2187.7442    
       112   0             -146.75335     -410.63179     -260.11283     -260.11286     -711.66969     -0.21304827    -6.8579158e-09  1.5596321e-10  6.3691289      16.547482      20.757956      2187.7442    
       113   0             -146.75335     -410.63179     -260.11285     -260.11284     -711.66969     -0.21311865     4.8627679e-09 -2.7643624e-10  6.3691289      16.547482      20.757956      2187.7442    
       114   0             -146.75335     -410.63179     -260.11286     -260.11284     -711.66969     -0.21313485    -5.4708855e-09 -3.0622482e-10  6.3691289      16.547482      20.757956      2187.7442    
       115   0             -146.75335     -410.63179     -260.11285     -260.11284     -711.66969     -0.21311178     2.9554918e-09 -1.9193234e-10  6.3691289      16.547482      20.757956      2187.7442    
       116   0             -146.75335     -410.63179     -260.11284     -260.11286     -711.66969     -0.21306995    -1.9380976e-09  1.4370883e-11  6.3691289      16.547482      20.757956      2187.7442    
       117   0             -146.75335     -410.63179     -260.11283     -260.11287     -711.66969     -0.2130332      9.4401534e-10  1.1267588e-10  6.3691289      16.547482      20.757956      2187.7442    
       118   0             -146.75335     -410.63179     -260.11283     -260.11287     -711.66969     -0.21303953    -5.6998236e-10  6.0280341e-11  6.3691289      16.547482      20.757956      2187.7442    
       119   0             -146.75335     -410.63179     -260.11284     -260.11286     -711.66969     -0.21306222     4.3522611e-10  4.2782978e-11  6.3691289      16.547482      20.757956      2187.7442    
       120   0             -146.75335     -410.63179     -260.11284     -260.11285     -711.66969     -0.21307763    -2.3031271e-10  3.2027683e-11  6.3691289      16.547482      20.757956      2187.7442    
       121   0             -146.75335     -410.63179     -260.11284     -260.11285     -711.66969     -0.21308333     1.2710584e-10  2.4093335e-12  6.3691289      16.547482      20.757956      2187.7442    
       122   0             -146.75335     -410.63179     -260.11284     -260.11285     -711.66969     -0.21308267    -2.8565179e-11 -2.8762093e-12  6.3691289      16.547482      20.757956      2187.7442    
       123   0             -146.75335     -410.63179     -260.11284     -260.11285     -711.66969     -0.2130789      2.3266297e-11  2.0275751e-12  6.3691289      16.547482      20.757956      2187.7442    
       124   0             -146.75335     -410.63179     -260.11284     -260.11285     -711.66969     -0.21307652    -3.9573286e-12 -6.5991472e-12  6.3691289      16.547482      20.757956      2187.7442    
       125   0             -146.75335     -410.63179     -260.11284     -260.11285     -711.66969     -0.21307508     6.7852623e-12  2.5197956e-11  6.3691289      16.547482      20.757956      2187.7442    
       126   0             -146.75335     -410.63179     -260.11284     -260.11286     -711.66969     -0.21307485    -2.4226728e-12  2.1126926e-12  6.3691289      16.547482      20.757956      2187.7442    
       127   0             -146.75335     -410.63179     -260.11284     -260.11285     -711.66969     -0.21307541    -2.3756676e-13  1.2684413e-11  6.3691289      16.547482      20.757956      2187.7442    
       128   0             -146.75335     -410.63179     -260.11284     -260.11285     -711.66969     -0.21307593    -1.0846765e-11  2.2740347e-13  6.3691289      16.547482      20.757956      2187.7442    
       129   0             -146.75335     -410.63179     -260.11284     -260.11285     -711.66969     -0.21307624    -3.0096024e-12  7.1949697e-12  6.3691289      16.547482      20.757956      2187.7442    
       130   0             -146.75335     -410.63179     -260.11284     -260.11285     -711.66969     -0.21307627    -1.6693194e-12 -7.9508639e-12  6.3691289      16.547482      20.757956      2187.7442    
       131   0             -146.75335     -410.63179     -260.11284     -260.11285     -711.66969     -0.21307621     1.4012627e-12 -3.2763886e-12  6.3691289      16.547482      20.757956      2187.7442    
       132   0             -146.75335     -410.63179     -260.11284     -260.11285     -711.66969     -0.21307615     1.3898291e-12  8.0728233e-12  6.3691289      16.547482      20.757956      2187.7442    
       133   0             -146.75335     -410.63179     -260.11284     -260.11285     -711.66969     -0.21307612     1.3233866e-11 -1.0192503e-11  6.3691289      16.547482      20.757956      2187.7442    
       134   0             -146.75335     -410.63179     -260.11284     -260.11285     -711.66969     -0.21307611     1.4901915e-12  4.6681233e-12  6.3691289      16.547482      20.757956      2187.7442    
       135   0             -146.75335     -410.63179     -260.11284     -260.11285     -711.66969     -0.21307612    -5.9328169e-13 -6.5451547e-12  6.3691289      16.547482      20.757956      2187.7442    
Loop time of 0.014293 on 1 procs for 35 steps with 96 atoms

109.3% CPU use with 1 MPI tasks x 1 OpenMP threads

Minimization stats:
  Stopping criterion = force tolerance
  Energy initial, next-to-last, final = 
     -146.753348872839  -146.753348893021  -146.753348893021
  Force two-norm initial, final = 0.00046467679 9.4569935e-11
  Force max component initial, final = 7.2022135e-05 2.0577852e-11
  Final line search alpha, max atom move = 1 2.0577852e-11
  Iterations, force evaluations = 35 70

MPI task timing breakdown:
Section |  min time  |  avg time  |  max time  |%varavg| %total
---------------------------------------------------------------
Pair    | 0.013569   | 0.013569   | 0.013569   |   0.0 | 94.93
Neigh   | 0          | 0          | 0          |   0.0 |  0.00
Comm    | 0.000259   | 0.000259   | 0.000259   |   0.0 |  1.81
Output  | 0.00031    | 0.00031    | 0.00031    |   0.0 |  2.17
Modify  | 0          | 0          | 0          |   0.0 |  0.00
Other   |            | 0.000155   |            |       |  1.08

Nlocal:             96 ave          96 max          96 min
Histogram: 1 0 0 0 0 0 0 0 0 0
Nghost:           1310 ave        1310 max        1310 min
Histogram: 1 0 0 0 0 0 0 0 0 0
Neighs:           6144 ave        6144 max        6144 min
Histogram: 1 0 0 0 0 0 0 0 0 0

Total # of neighbors = 6144
Ave neighs/atom = 64
Neighbor list builds = 0
Dangerous builds = 0
=========================================
Components of the Elastic Constant Tensor
=========================================
Elastic Constant C11all = 68.6447116854509 GPa
Elastic Constant C22all = 68.6447115250019 GPa
Elastic Constant C33all = 68.7957709868953 GPa
Elastic Constant C12all = 26.0294845266742 GPa
Elastic Constant C13all = 15.875133806 GPa
Elastic Constant C23all = 15.8751338008231 GPa
Elastic Constant C44all = 12.7672941565497 GPa
Elastic Constant C55all = 12.7672941562979 GPa
Elastic Constant C66all = 21.3076133863339 GPa
Elastic Constant C14all = 1.02179969232393e-09 GPa
Elastic Constant C15all = -7.33068124484505e-11 GPa
Elastic Constant C16all = -4.46662314030176e-08 GPa
Elastic Constant C24all = 5.38893264161414e-10 GPa
Elastic Constant C25all = 1.24106711252616e-09 GPa
Elastic Constant C26all = 3.9697778657047e-08 GPa
Elastic Constant C34all = 3.7742882942368e-10 GPa
Elastic Constant C35all = -6.4393348313581e-10 GPa
Elastic Constant C36all = -9.4056496417886e-10 GPa
Elastic Constant C45all = -4.95682404094366e-10 GPa
Elastic Constant C46all = -4.28557091026588e-10 GPa
Elastic Constant C56all = 1.36124481577284e-10 GPa
=========================================
Average properties for a cubic crystal
=========================================
Bulk Modulus = 35.7382998293714 GPa
Shear Modulus 1 = 15.6140672330605 GPa
Shear Modulus 2 = 24.7175736773085 GPa
Poisson Ratio = 0.218974717699146
Total wall time: 0:00:00
