LAMMPS (2 Aug 2023 - Update 3)
OMP_NUM_THREADS environment is not set. Defaulting to 1 thread. (src/comm.cpp:98)
  using 1 OpenMP thread(s) per MPI task
Loaded 1 plugins from F:\Lammps\LAMMPS 64-bit 2Aug2023\plugins
Lattice spacing in x,y,z = 3.21 5.5598831 5.241908
Created triclinic box = (0 0 0) to (6.42 16.679649 20.967632) with tilt (0 0 0)
  1 by 1 by 1 MPI processor grid
Created 96 atoms
  using lattice units in triclinic box = (0 0 0) to (6.42 16.679649 20.967632) with tilt (0 0 0)
  create_atoms CPU = 0.000 seconds
Neighbor list info ...
  update: every = 1 steps, delay = 0 steps, check = yes
  max neighbors/atom: 2000, page size: 100000
  master list distance cutoff = 8.5
  ghost atom cutoff = 8.5
  1 neighbor lists, perpetual/occasional/extra = 1 0 0
  (1) pair eam/alloy, perpetual
      attributes: half, newton on
      pair build: half/nsq/newton
      stencil: none
      bin: none
Setting up cg style minimization ...
  Unit style    : metal
  Current step  : 0
WARNING: Energy due to 3 extra global DOFs will be included in minimizer energies
 (src/min.cpp:228)
Per MPI rank memory allocation (min/avg/max) = 4.472 | 4.472 | 4.472 Mbytes
   Step          Temp          PotEng         Press           Pxx            Pyy            Pzz            Pxy            Pxz            Pyz             Lx             Ly             Lz           Volume    
         0   0             -146.56845     -9864.3832     -9673.7539     -9673.7539     -10245.642     -2.4955128e-12  2.5747355e-12 -2.9708486e-13  6.42           16.679649      20.967632      2245.2843    
         1   0             -146.57242     -9756.6247     -9563.4759     -9563.4759     -10142.922     -3.1500093e-12 -9.7670099e-12  2.1029779e-11  6.4193938      16.678074      20.965535      2244.6358    
         2   0             -146.57635     -9647.857      -9452.1746     -9452.1746     -10039.222      1.7562903e-11  7.2530578e-12  1.2881114e-12  6.4187885      16.676502      20.963439      2243.9881    
         3   0             -146.58023     -9538.7815     -9340.2259     -9340.2259     -9935.8925     -6.5910854e-13 -5.0349946e-12  4.2817277e-12  6.4181841      16.674931      20.961342      2243.3411    
         4   0             -146.58406     -9431.1326     -9229.8164     -9229.8164     -9833.765       1.5233264e-11  3.0535929e-12  3.3272265e-11  6.4175806      16.673363      20.959245      2242.6948    
         5   0             -146.58784     -9323.2119     -9119.4704     -9119.4704     -9730.695       7.5469258e-12  2.5586161e-12 -1.8842522e-12  6.416978       16.671798      20.957148      2242.0494    
         6   0             -146.59157     -9216.6124     -9010.1468     -9010.1468     -9629.5435     -9.0222119e-12  1.9046341e-12  2.1754492e-11  6.4163763      16.670235      20.955052      2241.4047    
         7   0             -146.59526     -9109.3171     -8900.4154     -8900.4154     -9527.1203     -1.3395806e-13 -7.3230409e-12 -1.5370448e-11  6.4157757      16.668674      20.952955      2240.7608    
         8   0             -146.5989      -9001.3603     -8789.6154     -8789.6154     -9424.8501      5.6973336e-12  4.5459561e-12 -1.5106867e-11  6.4151759      16.667116      20.950858      2240.1177    
         9   0             -146.60249     -8895.2656     -8681.1149     -8681.1149     -9323.5672      5.7783956e-12  5.1429707e-12  5.8379667e-12  6.4145772      16.66556       20.948761      2239.4755    
        10   0             -146.60603     -8787.8035     -8571.2943     -8571.2943     -9220.8219      2.0458601e-12  2.1451736e-12 -4.0420633e-12  6.4139795      16.664008      20.946665      2238.834     
        11   0             -146.60953     -8680.4544     -8460.9889     -8460.9889     -9119.3854     -1.2040253e-11 -6.8943363e-12  4.4405883e-12  6.4133828      16.662457      20.944568      2238.1934    
        12   0             -146.61298     -8574.1671     -8352.0707     -8352.0707     -9018.36        4.8592137e-12 -4.9883953e-12  8.3968008e-12  6.4127871      16.66091       20.942471      2237.5537    
        13   0             -146.61638     -8469.5129     -8245.1839     -8245.1839     -8918.1711     -1.3518237e-12  7.0175555e-12 -2.7632867e-12  6.4121926      16.659365      20.940374      2236.9148    
        14   0             -146.61974     -8363.3443     -8136.6345     -8136.6345     -8816.7638     -7.6558914e-13 -2.346481e-12   9.7935754e-12  6.4115991      16.657823      20.938278      2236.2768    
        15   0             -146.62304     -8255.4003     -8026.2591     -8026.2591     -8713.6827     -2.2476942e-11  5.6490722e-12  1.7156073e-11  6.4110067      16.656284      20.936181      2235.6397    
        16   0             -146.62631     -8148.9875     -7917.1021     -7917.1021     -8612.7581      1.2495166e-11 -1.750915e-12   4.7752228e-13  6.4104154      16.654748      20.934084      2235.0034    
        17   0             -146.62952     -8044.6833     -7810.2014     -7810.2014     -8513.6471      1.6384666e-11  5.3736531e-12  1.0538331e-11  6.4098253      16.653215      20.931987      2234.3682    
        18   0             -146.63269     -7940.75       -7704.2691     -7704.2691     -8413.7118     -6.9628476e-12  1.6722779e-12 -2.2187544e-11  6.4092364      16.651685      20.92989       2233.7339    
        19   0             -146.63582     -7834.6993     -7595.8697     -7595.8697     -8312.3584      2.2696659e-11 -1.4138739e-12 -1.3640896e-12  6.4086486      16.650158      20.927794      2233.1004    
        20   0             -146.63889     -7728.1906     -7487.3524     -7487.3524     -8209.867      -8.4806671e-12 -5.6969367e-12  2.0616537e-11  6.4080621      16.648634      20.925697      2232.468     
        21   0             -146.64193     -7623.4722     -7379.9272     -7379.9272     -8110.5624     -6.6698923e-12 -3.6064242e-12 -2.4298532e-11  6.4074766      16.647113      20.9236        2231.8364    
        22   0             -146.64491     -7519.5298     -7273.2329     -7273.2329     -8012.1235      4.5342174e-13 -1.6343113e-12 -5.1819627e-13  6.4068926      16.645595      20.921503      2231.2059    
        23   0             -146.64785     -7415.7555     -7167.5484     -7167.5484     -7912.1697     -6.6786437e-12  2.8508837e-12  9.4298461e-12  6.4063099      16.644081      20.919407      2230.5765    
        24   0             -146.65075     -7311.5991     -7061.7158     -7061.7158     -7811.3658      2.8467017e-12  2.2135474e-12 -9.0934919e-12  6.4057284      16.642571      20.91731       2229.9481    
        25   0             -146.6536      -7207.8811     -6955.773      -6955.773      -7712.0974     -1.0622034e-11  1.5160086e-12  9.2057626e-12  6.4051481      16.641063      20.915213      2229.3206    
        26   0             -146.6564      -7103.4914     -6849.0107     -6849.0107     -7612.4527     -6.7092258e-12 -1.085448e-11   3.5915558e-13  6.4045692      16.639559      20.913116      2228.6942    
        27   0             -146.65916     -6999.8613     -6743.1869     -6743.1869     -7513.2102     -8.3078038e-12 -2.2952491e-12 -1.8621456e-11  6.4039917      16.638058      20.91102       2228.0689    
        28   0             -146.66188     -6897.2087     -6638.4493     -6638.4493     -7414.7275      8.3650337e-12  7.7860696e-13  9.8124441e-12  6.4034156      16.636562      20.908923      2227.4447    
        29   0             -146.66455     -6794.1538     -6533.3766     -6533.3766     -7315.7083     -1.2705828e-11 -6.9894536e-13 -1.503731e-11   6.4028409      16.635069      20.906826      2226.8215    
        30   0             -146.66717     -6690.7955     -6428.5986     -6428.5986     -7215.1893      1.1985268e-13  1.0986496e-12 -3.3458873e-12  6.4022677      16.633579      20.904729      2226.1996    
        31   0             -146.66975     -6588.1525     -6323.4725     -6323.4725     -7117.5124     -1.0150358e-11 -4.2159952e-12 -4.4957295e-12  6.4016958      16.632094      20.902633      2225.5786    
        32   0             -146.67229     -6485.7587     -6219.2797     -6219.2797     -7018.7168     -9.2437955e-12  2.2584841e-12 -1.7718108e-11  6.4011256      16.630612      20.900536      2224.9589    
        33   0             -146.67478     -6383.9516     -6115.7681     -6115.7681     -6920.3186      1.3094853e-12 -3.07879e-12    5.5977999e-12  6.4005569      16.629135      20.898439      2224.3404    
        34   0             -146.67723     -6281.9599     -6011.8996     -6011.8996     -6822.0804     -9.3739185e-12  1.0598777e-12  2.0477637e-11  6.3999897      16.627661      20.896342      2223.7231    
        35   0             -146.67964     -6180.3081     -5908.8162     -5908.8162     -6723.2919      4.9908071e-12 -1.8603009e-12 -1.6212622e-11  6.3994241      16.626191      20.894245      2223.107     
        36   0             -146.682       -6078.8898     -5805.5072     -5805.5072     -6625.655       8.4136876e-12  1.4606402e-12 -6.9030255e-13  6.39886        16.624726      20.892149      2222.492     
        37   0             -146.68432     -5977.0717     -5702.0362     -5702.0362     -6527.1429      4.8284488e-12 -1.0287348e-11  1.9794138e-11  6.3982976      16.623265      20.890052      2221.8784    
        38   0             -146.68659     -5875.7368     -5598.8877     -5598.8877     -6429.4351      1.0630521e-11 -1.2412284e-11 -9.6795796e-12  6.397737       16.621808      20.887955      2221.266     
        39   0             -146.68882     -5776.0056     -5497.7079     -5497.7079     -6332.6011     -8.1803438e-12 -1.2876282e-11  1.5990219e-11  6.3971781      16.620356      20.885858      2220.655     
        40   0             -146.69101     -5675.4591     -5396.4061     -5396.4061     -6233.565      -4.6271197e-12 -3.2049314e-13 -1.4151775e-11  6.3966209      16.618909      20.883762      2220.0453    
        41   0             -146.69316     -5575.2197     -5294.5302     -5294.5302     -6136.5988      1.5878778e-12  2.0036313e-14  6.8223645e-12  6.3960654      16.617465      20.881665      2219.4369    
        42   0             -146.69526     -5475.1206     -5192.6784     -5192.6784     -6040.0051     -4.1586724e-12 -4.9703651e-12  1.8498576e-11  6.3955117      16.616027      20.879568      2218.8298    
        43   0             -146.69732     -5375.8019     -5092.0425     -5092.0425     -5943.3205      0             -6.7158342e-12 -1.249947e-11   6.3949599      16.614593      20.877471      2218.2242    
        44   0             -146.69934     -5276.1471     -4991.4893     -4991.4893     -5845.4626     -1.7596269e-12  4.0105456e-13 -5.6949747e-12  6.3944101      16.613165      20.875375      2217.62      
        45   0             -146.70132     -5177.2752     -4891.2519     -4891.2519     -5749.3219     -9.7282172e-13 -9.14653e-12    7.471672e-12   6.3938621      16.611741      20.873278      2217.0173    
        46   0             -146.70326     -5078.4368     -4791.4962     -4791.4962     -5652.318      -4.4440921e-12 -3.1098613e-12 -2.7386843e-11  6.3933162      16.610323      20.871181      2216.416     
        47   0             -146.70515     -4979.7729     -4691.8304     -4691.8304     -5555.6579     -6.3267686e-12 -3.7127746e-12  1.7911629e-11  6.3927722      16.608909      20.869084      2215.8162    
        48   0             -146.70701     -4881.362      -4592.1502     -4592.1502     -5459.7856      2.7050351e-12  5.9219692e-12  1.797669e-11   6.3922303      16.607501      20.866988      2215.218     
        49   0             -146.70882     -4784.1106     -4494.0227     -4494.0227     -5364.2863      6.8773589e-13  1.7670294e-12  4.3171742e-13  6.3916905      16.606099      20.864891      2214.6214    
        50   0             -146.71059     -4685.9172     -4395.3247     -4395.3247     -5267.1021     -6.8089087e-12 -1.4059694e-13  9.6007622e-12  6.391153       16.604702      20.862794      2214.0263    
        51   0             -146.71232     -4588.6275     -4297.6776     -4297.6776     -5170.5274     -1.2933363e-11  0             -1.4555684e-11  6.3906175      16.603311      20.860697      2213.4329    
        52   0             -146.71401     -4491.9531     -4200.2557     -4200.2557     -5075.3477     -5.8630183e-12  1.708163e-12  -5.8278503e-12  6.3900842      16.601926      20.858601      2212.841     
        53   0             -146.71566     -4395.3625     -4102.8641     -4102.8641     -4980.3592     -1.0332118e-11  1.2583474e-11  1.2744285e-11  6.3895531      16.600546      20.856504      2212.2508    
        54   0             -146.71727     -4298.0887     -4005.3573     -4005.3573     -4883.5515      4.0967491e-12  4.0213488e-13 -1.3391092e-11  6.3890245      16.599173      20.854407      2211.6625    
        55   0             -146.71885     -4202.8249     -3909.5978     -3909.5978     -4789.2792      2.2676369e-12  6.8381068e-13 -1.0880635e-11  6.3884983      16.597805      20.85231       2211.0758    
        56   0             -146.72038     -4106.7608     -3813.1767     -3813.1767     -4693.9292      7.026002e-12   3.922893e-12   2.0399044e-11  6.3879745      16.596445      20.850213      2210.491     
        57   0             -146.72187     -4010.8087     -3717.2323     -3717.2323     -4597.9616      1.2144054e-11 -1.0302826e-11 -3.3504307e-12  6.3874533      16.595091      20.848117      2209.908     
        58   0             -146.72332     -3915.4112     -3621.7194     -3621.7194     -4502.7949      1.831648e-12   8.0109439e-12  1.1342128e-11  6.3869346      16.593743      20.84602       2209.3269    
        59   0             -146.72474     -3821.4142     -3527.4731     -3527.4731     -4409.2963      7.5751458e-12  4.1071887e-12  4.0759821e-11  6.3864186      16.592402      20.843923      2208.7477    
        60   0             -146.72611     -3727.2365     -3433.3401     -3433.3401     -4315.0293     -5.4776829e-12 -4.7526955e-12 -1.1076197e-12  6.3859053      16.591069      20.841826      2208.1705    
        61   0             -146.72745     -3632.5188     -3339.157      -3339.157      -4219.2425     -3.7114927e-12 -1.8935159e-12  8.117946e-12   6.3853949      16.589742      20.83973       2207.5954    
        62   0             -146.72875     -3538.7272     -3245.7118     -3245.7118     -4124.7582      1.5464371e-12  7.4349875e-12 -1.3560289e-11  6.3848871      16.588423      20.837633      2207.0223    
        63   0             -146.73001     -3446.399      -3153.616      -3153.616      -4031.965      -5.4517198e-12 -2.4789706e-12 -2.085963e-11   6.3843823      16.587112      20.835536      2206.4513    
        64   0             -146.73124     -3353.4649     -3061.2917     -3061.2917     -3937.8114      1.7488305e-12  5.9470316e-12  2.3445416e-11  6.3838806      16.585808      20.833439      2205.8824    
        65   0             -146.73242     -3260.7499     -2969.3762     -2969.3762     -3843.4972     -9.7092591e-12  2.8633744e-12 -1.8763168e-11  6.3833819      16.584513      20.831343      2205.3158    
        66   0             -146.73358     -3168.9129     -2878.4568     -2878.4568     -3749.8252     -5.4710502e-12 -4.8004053e-12  1.3513746e-11  6.3828863      16.583225      20.829246      2204.7515    
        67   0             -146.73469     -3077.0407     -2787.1701     -2787.1701     -3656.7819      1.2009117e-11 -5.0033786e-12  1.1963724e-11  6.3823938      16.581946      20.827149      2204.1894    
        68   0             -146.73577     -2984.4975     -2695.4973     -2695.4973     -3562.4978      4.0259173e-12 -8.293995e-12  -1.2138292e-11  6.3819049      16.580675      20.825052      2203.6299    
        69   0             -146.73681     -2894.3912     -2606.4731     -2606.4731     -3470.2273     -4.8948961e-13 -1.5946259e-12  5.4499874e-12  6.3814196      16.579414      20.822956      2203.0729    
        70   0             -146.73782     -2805.0553     -2518.5169     -2518.5169     -3378.1322      9.2218828e-12 -5.1283158e-12  2.7822123e-11  6.3809378      16.578163      20.820859      2202.5184    
        71   0             -146.73879     -2714.7801     -2430.0155     -2430.0155     -3284.3092     -8.3356018e-12 -5.9778029e-12 -1.4177087e-11  6.3804596      16.57692       20.818762      2201.9666    
        72   0             -146.73972     -2625.2723     -2341.7622     -2341.7622     -3192.2924     -6.8984089e-12  2.4644389e-12  5.6257888e-12  6.3799851      16.575687      20.816665      2201.4173    
        73   0             -146.74062     -2536.2575     -2254.4775     -2254.4775     -3099.8176     -4.2481714e-12 -2.8287467e-13  3.8390134e-12  6.3795146      16.574465      20.814568      2200.8709    
        74   0             -146.74149     -2447.6978     -2167.7359     -2167.7359     -3007.6215     -1.3288288e-12  6.2652007e-13 -1.5945946e-11  6.3790481      16.573253      20.812472      2200.3274    
        75   0             -146.74232     -2360.1022     -2082.036      -2082.036      -2916.2344      1.5313083e-12 -7.4392269e-12 -1.5767927e-12  6.3785859      16.572052      20.810375      2199.7869    
        76   0             -146.74312     -2272.0819     -1996.6047     -1996.6047     -2823.0363      5.2572599e-13  6.5917951e-12 -3.1907524e-11  6.378128       16.570863      20.808278      2199.2495    
        77   0             -146.74389     -2184.9845     -1911.6905     -1911.6905     -2731.5724     -1.1513164e-11 -2.2854413e-12  1.0415949e-11  6.3776745      16.569684      20.806181      2198.7151    
        78   0             -146.74462     -2099.306      -1828.4857     -1828.4857     -2640.9465     -1.0256625e-11  9.8115646e-12  2.8099512e-11  6.3772257      16.568518      20.804085      2198.1841    
        79   0             -146.74532     -2013.5276     -1745.7404     -1745.7404     -2549.1018      6.3891654e-12 -3.7232191e-12 -7.233972e-12   6.3767817      16.567365      20.801988      2197.6565    
        80   0             -146.74599     -1928.6665     -1663.5011     -1663.5011     -2458.9973     -4.5792353e-12  9.5430252e-12 -6.1731128e-13  6.3763425      16.566224      20.799891      2197.1324    
        81   0             -146.74662     -1844.3897     -1582.2553     -1582.2553     -2368.6587     -6.4276316e-13 -3.6946229e-12  3.1601678e-11  6.3759087      16.565097      20.797794      2196.612     
        82   0             -146.74723     -1760.5943     -1501.9595     -1501.9595     -2277.864       7.8010315e-12  8.9096791e-13 -7.6744736e-12  6.3754804      16.563984      20.795698      2196.0954    
        83   0             -146.7478      -1676.8053     -1421.9737     -1421.9737     -2186.4686     -2.5722578e-12  1.1544779e-12  8.7801084e-12  6.3750576      16.562886      20.793601      2195.5828    
        84   0             -146.74835     -1594.7032     -1343.2583     -1343.2583     -2097.5929     -1.2383125e-11 -5.2672597e-13 -4.1712645e-11  6.3746406      16.561802      20.791504      2195.0742    
        85   0             -146.74886     -1513.2909     -1265.6929     -1265.6929     -2008.4867     -1.3490322e-11  9.7162738e-12 -8.287708e-12   6.3742301      16.560736      20.789407      2194.5701    
        86   0             -146.74935     -1432.2316     -1188.8796     -1188.8796     -1918.9355     -1.7633123e-12  1.1299386e-11  7.0431153e-12  6.3738261      16.559686      20.787311      2194.0706    
        87   0             -146.7498      -1351.5915     -1112.7737     -1112.7737     -1829.2271      3.3094903e-12 -7.6528796e-12 -1.3937364e-11  6.3734289      16.558654      20.785214      2193.5759    
        88   0             -146.75023     -1272.2644     -1037.8558     -1037.8558     -1741.0816      5.0692639e-13 -2.919896e-12   2.0074285e-12  6.3730389      16.557641      20.783117      2193.0862    
        89   0             -146.75063     -1193.6151     -963.99438     -963.99438     -1652.8564     -8.1785283e-12 -3.8940544e-12  3.5695499e-12  6.3726568      16.556648      20.78102       2192.602     
        90   0             -146.751       -1116.3145     -892.01965     -892.01965     -1564.9043      3.0479655e-12  2.8400344e-13 -2.2253698e-11  6.3722829      16.555677      20.778924      2192.1236    
        91   0             -146.75134     -1040.5963     -822.08268     -822.08268     -1477.6236     -2.0036705e-12  3.6319698e-12  1.2884362e-12  6.3719175      16.554727      20.776827      2191.651     
        92   0             -146.75166     -965.40865     -752.81968     -752.81968     -1390.5866     -3.6276693e-12 -5.7230923e-12  3.0888462e-11  6.3715609      16.553801      20.77473       2191.1846    
        93   0             -146.75195     -890.43872     -684.17465     -684.17465     -1302.9669      1.1468886e-12  2.8925951e-12 -4.1003804e-12  6.371214       16.552899      20.772633      2190.7248    
        94   0             -146.75222     -816.80927     -617.40777     -617.40777     -1215.6123     -1.5486195e-11 -1.0121099e-11  2.2932359e-11  6.3708774      16.552025      20.770536      2190.2722    
        95   0             -146.75246     -745.76228     -553.12718     -553.12718     -1131.0325      9.1230237e-12  2.193181e-12  -2.2287186e-11  6.3705519      16.551179      20.76844       2189.8274    
        96   0             -146.75269     -675.71114     -490.41582     -490.41582     -1046.3018      7.3222165e-12 -6.7027225e-13 -7.647197e-12   6.3702385      16.550365      20.766343      2189.3908    
        97   0             -146.75288     -606.83068     -429.2916      -429.2916      -961.90884     -1.4850445e-11  1.4169885e-11  2.4408769e-11  6.3699382      16.549585      20.764246      2188.9634    
        98   0             -146.75306     -539.71267     -370.38405     -370.38405     -878.36991     -6.5732363e-12 -6.0957369e-14 -3.1636874e-11  6.3696522      16.548842      20.762149      2188.5458    
        99   0             -146.75321     -474.0867      -313.88249     -313.88249     -794.49512      4.1966787e-12  5.0705633e-12 -1.4632487e-12  6.369382       16.54814       20.760053      2188.1391    
       100   0             -146.75335     -410.6318      -260.11286     -260.11286     -711.66969     -1.4889211e-12 -5.3662138e-12  2.2664123e-11  6.3691289      16.547482      20.757956      2187.7442    
Loop time of 0.023575 on 1 procs for 100 steps with 96 atoms

132.6% CPU use with 1 MPI tasks x 1 OpenMP threads

Minimization stats:
  Stopping criterion = max iterations
  Energy initial, next-to-last, final = 
     -146.568450621862  -146.753213887664  -146.753348893176
  Force two-norm initial, final = 23.952655 1.1044762
  Force max component initial, final = 14.358205 0.98158851
  Final line search alpha, max atom move = 9.1247978e-05 8.9567967e-05
  Iterations, force evaluations = 100 100

MPI task timing breakdown:
Section |  min time  |  avg time  |  max time  |%varavg| %total
---------------------------------------------------------------
Pair    | 0.018322   | 0.018322   | 0.018322   |   0.0 | 77.72
Neigh   | 0          | 0          | 0          |   0.0 |  0.00
Comm    | 0.00038    | 0.00038    | 0.00038    |   0.0 |  1.61
Output  | 0.000967   | 0.000967   | 0.000967   |   0.0 |  4.10
Modify  | 0          | 0          | 0          |   0.0 |  0.00
Other   |            | 0.003906   |            |       | 16.57

Nlocal:             96 ave          96 max          96 min
Histogram: 1 0 0 0 0 0 0 0 0 0
Nghost:           1310 ave        1310 max        1310 min
Histogram: 1 0 0 0 0 0 0 0 0 0
Neighs:           6144 ave        6144 max        6144 min
Histogram: 1 0 0 0 0 0 0 0 0 0

Total # of neighbors = 6144
Ave neighs/atom = 64
Neighbor list builds = 0
Dangerous builds = 0
Displacing atoms ...
System init for write_restart ...
OMP_NUM_THREADS environment is not set. Defaulting to 1 thread. (src/comm.cpp:98)
  using 1 OpenMP thread(s) per MPI task
Loaded 1 plugins from F:\Lammps\LAMMPS 64-bit 2Aug2023\plugins

The 'box' command has been removed and will be ignored

Reading restart file ...
  restart file = 2 Aug 2023, LAMMPS = 2 Aug 2023
  restoring atom style atomic from restart
  triclinic box = (0.025435542 0.066083476 0.10483816) to (6.3945645 16.613566 20.862794) with tilt (0 0 0)
  1 by 1 by 1 MPI processor grid
  pair style eam/alloy stores no restart info
  96 atoms
  read_restart CPU = 0.000 seconds
Changing box ...
  triclinic box = (0.025435542 0.066083476 0.10483816) to (6.3945638 16.613566 20.862794) with tilt (0 0 0)
  triclinic box = (0.025435542 0.066083476 0.10483816) to (6.3945638 16.613566 20.862794) with tilt (0 0 0)
  triclinic box = (0.025435542 0.066083476 0.10483816) to (6.3945638 16.613566 20.862794) with tilt (0 0 0)
Neighbor list info ...
  update: every = 1 steps, delay = 0 steps, check = yes
  max neighbors/atom: 2000, page size: 100000
  master list distance cutoff = 8.5
  ghost atom cutoff = 8.5
  1 neighbor lists, perpetual/occasional/extra = 1 0 0
  (1) pair eam/alloy, perpetual
      attributes: half, newton on
      pair build: half/nsq/newton
      stencil: none
      bin: none
Setting up cg style minimization ...
  Unit style    : metal
  Current step  : 100
Per MPI rank memory allocation (min/avg/max) = 4.467 | 4.467 | 4.467 Mbytes
   Step          Temp          PotEng         Press           Pxx            Pyy            Pzz            Pxy            Pxz            Pyz             Lx             Ly             Lz           Volume    
       100   0             -146.75335     -410.59484     -260.03996     -260.09069     -711.65386      0.018568262   -1.8910848e-06 -5.7674138e-06  6.3691283      16.547482      20.757956      2187.744     
       101   0             -146.75335     -410.59493     -260.04109     -260.08984     -711.65384      0.01413887    -1.7731964e-06 -2.5369538e-06  6.3691283      16.547482      20.757956      2187.744     
       102   0             -146.75335     -410.59495     -260.04239     -260.08862     -711.65384      0.0083342487  -6.2192516e-07 -3.9669676e-07  6.3691283      16.547482      20.757956      2187.744     
       103   0             -146.75335     -410.59496     -260.04323     -260.0878      -711.65384      0.0044966228  -3.001475e-07  -5.1065569e-08  6.3691283      16.547482      20.757956      2187.744     
       104   0             -146.75335     -410.59496     -260.04385     -260.08718     -711.65384      0.0016345106  -2.4391808e-07  5.4406317e-08  6.3691283      16.547482      20.757956      2187.744     
       105   0             -146.75335     -410.59496     -260.04426     -260.08678     -711.65384     -0.00023899774 -1.4296761e-07  4.1104915e-08  6.3691283      16.547482      20.757956      2187.744     
       106   0             -146.75335     -410.59496     -260.04442     -260.08662     -711.65384     -0.00098321193 -7.1840939e-08  2.6780555e-08  6.3691283      16.547482      20.757956      2187.744     
       107   0             -146.75335     -410.59496     -260.04439     -260.08665     -711.65384     -0.00083776944 -3.3936885e-08  3.3055556e-09  6.3691283      16.547482      20.757956      2187.744     
       108   0             -146.75335     -410.59496     -260.04429     -260.08675     -711.65384     -0.00034330779 -4.3937519e-09  9.4676651e-09  6.3691283      16.547482      20.757956      2187.744     
       109   0             -146.75335     -410.59496     -260.0442      -260.08685     -711.65384      8.2382611e-05  2.731304e-09   2.9917445e-09  6.3691283      16.547482      20.757956      2187.744     
       110   0             -146.75335     -410.59496     -260.04416     -260.08688     -711.65384      0.00022817657  2.7162535e-09  3.5235981e-09  6.3691283      16.547482      20.757956      2187.744     
       111   0             -146.75335     -410.59496     -260.04418     -260.08687     -711.65384      0.0001692184   1.0461272e-09  2.9300369e-10  6.3691283      16.547482      20.757956      2187.744     
       112   0             -146.75335     -410.59496     -260.0442      -260.08684     -711.65384      4.6481724e-05 -5.2715434e-10  7.8338154e-10  6.3691283      16.547482      20.757956      2187.744     
       113   0             -146.75335     -410.59496     -260.04423     -260.08681     -711.65384     -7.0700258e-05 -1.1189459e-09 -8.6014674e-10  6.3691283      16.547482      20.757956      2187.744     
       114   0             -146.75335     -410.59496     -260.04423     -260.08681     -711.65384     -9.7574592e-05 -7.7924826e-10  1.4945936e-10  6.3691283      16.547482      20.757956      2187.744     
       115   0             -146.75335     -410.59496     -260.04423     -260.08682     -711.65384     -5.9153768e-05 -5.7724281e-10 -5.3208416e-10  6.3691283      16.547482      20.757956      2187.744     
       116   0             -146.75335     -410.59496     -260.04421     -260.08683     -711.65384      1.0200334e-05 -1.7374898e-10  1.9408571e-10  6.3691283      16.547482      20.757956      2187.744     
       117   0             -146.75335     -410.59496     -260.0442      -260.08684     -711.65384      7.0580487e-05  3.0240854e-11 -4.0894517e-12  6.3691283      16.547482      20.757956      2187.744     
       118   0             -146.75335     -410.59496     -260.0442      -260.08684     -711.65384      6.0155548e-05  1.3298658e-11  1.1020494e-10  6.3691283      16.547482      20.757956      2187.744     
       119   0             -146.75335     -410.59496     -260.04421     -260.08683     -711.65384      2.2694064e-05  7.8269997e-12  3.2007995e-12  6.3691283      16.547482      20.757956      2187.744     
       120   0             -146.75335     -410.59496     -260.04421     -260.08683     -711.65384     -2.4373544e-06 -4.560774e-13   2.4447146e-11  6.3691283      16.547482      20.757956      2187.744     
       121   0             -146.75335     -410.59496     -260.04422     -260.08683     -711.65384     -1.1628998e-05  2.6005305e-12 -4.1193064e-12  6.3691283      16.547482      20.757956      2187.744     
       122   0             -146.75335     -410.59496     -260.04422     -260.08683     -711.65384     -1.055064e-05  -1.4431864e-12  1.435564e-13   6.3691283      16.547482      20.757956      2187.744     
       123   0             -146.75335     -410.59496     -260.04421     -260.08683     -711.65384     -4.4314856e-06  1.8776669e-12 -1.6140567e-11  6.3691283      16.547482      20.757956      2187.744     
       124   0             -146.75335     -410.59496     -260.04421     -260.08683     -711.65384     -6.2494294e-07 -8.0874338e-12 -2.7517093e-12  6.3691283      16.547482      20.757956      2187.744     
       125   0             -146.75335     -410.59496     -260.04421     -260.08683     -711.65384      1.6589919e-06 -8.3250006e-12  1.9397264e-11  6.3691283      16.547482      20.757956      2187.744     
       126   0             -146.75335     -410.59496     -260.04421     -260.08683     -711.65384      2.0174274e-06  4.8224786e-12  3.2789297e-12  6.3691283      16.547482      20.757956      2187.744     
       127   0             -146.75335     -410.59496     -260.04421     -260.08683     -711.65384      1.1302465e-06 -8.028995e-13  -2.6214923e-11  6.3691283      16.547482      20.757956      2187.744     
       128   0             -146.75335     -410.59496     -260.04421     -260.08683     -711.65384      3.152045e-07   1.4828232e-11 -1.1259649e-11  6.3691283      16.547482      20.757956      2187.744     
       129   0             -146.75335     -410.59496     -260.04421     -260.08683     -711.65384     -1.7744114e-07 -2.8673167e-12 -2.8037962e-12  6.3691283      16.547482      20.757956      2187.744     
       130   0             -146.75335     -410.59496     -260.04421     -260.08683     -711.65384     -2.2045599e-07  4.1974366e-12  1.35051e-11    6.3691283      16.547482      20.757956      2187.744     
       131   0             -146.75335     -410.59496     -260.04421     -260.08683     -711.65384     -1.2183352e-07  1.2217539e-11  6.3393489e-13  6.3691283      16.547482      20.757956      2187.744     
       132   0             -146.75335     -410.59496     -260.04421     -260.08683     -711.65384     -3.7832601e-08  4.3371818e-12  6.0814555e-12  6.3691283      16.547482      20.757956      2187.744     
       133   0             -146.75335     -410.59496     -260.04421     -260.08683     -711.65384      1.3673592e-08  4.3511563e-12 -1.3253559e-11  6.3691283      16.547482      20.757956      2187.744     
       134   0             -146.75335     -410.59496     -260.04421     -260.08683     -711.65384      2.5691524e-08  9.0580275e-13 -4.9063257e-12  6.3691283      16.547482      20.757956      2187.744     
       135   0             -146.75335     -410.59496     -260.04421     -260.08683     -711.65384      1.8654348e-08  2.8165003e-12 -1.4406456e-12  6.3691283      16.547482      20.757956      2187.744     
Loop time of 0.0148 on 1 procs for 35 steps with 96 atoms

105.6% CPU use with 1 MPI tasks x 1 OpenMP threads

Minimization stats:
  Stopping criterion = force tolerance
  Energy initial, next-to-last, final = 
     -146.753348908477  -146.753348928682  -146.753348928681
  Force two-norm initial, final = 0.00046474296 9.5040534e-11
  Force max component initial, final = 7.1617507e-05 2.0494995e-11
  Final line search alpha, max atom move = 1 2.0494995e-11
  Iterations, force evaluations = 35 70

MPI task timing breakdown:
Section |  min time  |  avg time  |  max time  |%varavg| %total
---------------------------------------------------------------
Pair    | 0.013989   | 0.013989   | 0.013989   |   0.0 | 94.52
Neigh   | 0          | 0          | 0          |   0.0 |  0.00
Comm    | 0.000262   | 0.000262   | 0.000262   |   0.0 |  1.77
Output  | 0.000345   | 0.000345   | 0.000345   |   0.0 |  2.33
Modify  | 0          | 0          | 0          |   0.0 |  0.00
Other   |            | 0.000204   |            |       |  1.38

Nlocal:             96 ave          96 max          96 min
Histogram: 1 0 0 0 0 0 0 0 0 0
Nghost:           1310 ave        1310 max        1310 min
Histogram: 1 0 0 0 0 0 0 0 0 0
Neighs:           6144 ave        6144 max        6144 min
Histogram: 1 0 0 0 0 0 0 0 0 0

Total # of neighbors = 6144
Ave neighs/atom = 64
Neighbor list builds = 0
Dangerous builds = 0
OMP_NUM_THREADS environment is not set. Defaulting to 1 thread. (src/comm.cpp:98)
  using 1 OpenMP thread(s) per MPI task
Loaded 1 plugins from F:\Lammps\LAMMPS 64-bit 2Aug2023\plugins

The 'box' command has been removed and will be ignored

Reading restart file ...
  restart file = 2 Aug 2023, LAMMPS = 2 Aug 2023
  restoring atom style atomic from restart
  triclinic box = (0.025435542 0.066083476 0.10483816) to (6.3945645 16.613566 20.862794) with tilt (0 0 0)
  1 by 1 by 1 MPI processor grid
  pair style eam/alloy stores no restart info
  96 atoms
  read_restart CPU = 0.000 seconds
Changing box ...
  triclinic box = (0.025435542 0.066083476 0.10483816) to (6.3945651 16.613566 20.862794) with tilt (0 0 0)
  triclinic box = (0.025435542 0.066083476 0.10483816) to (6.3945651 16.613566 20.862794) with tilt (0 0 0)
  triclinic box = (0.025435542 0.066083476 0.10483816) to (6.3945651 16.613566 20.862794) with tilt (0 0 0)
Neighbor list info ...
  update: every = 1 steps, delay = 0 steps, check = yes
  max neighbors/atom: 2000, page size: 100000
  master list distance cutoff = 8.5
  ghost atom cutoff = 8.5
  1 neighbor lists, perpetual/occasional/extra = 1 0 0
  (1) pair eam/alloy, perpetual
      attributes: half, newton on
      pair build: half/nsq/newton
      stencil: none
      bin: none
Setting up cg style minimization ...
  Unit style    : metal
  Current step  : 100
Per MPI rank memory allocation (min/avg/max) = 4.467 | 4.467 | 4.467 Mbytes
   Step          Temp          PotEng         Press           Pxx            Pyy            Pzz            Pxy            Pxz            Pyz             Lx             Ly             Lz           Volume    
       100   0             -146.75335     -410.66852     -260.17881     -260.14119     -711.68556      0.018569308   -1.8463068e-06 -5.7706539e-06  6.3691296      16.547482      20.757956      2187.7445    
       101   0             -146.75335     -410.66861     -260.17957     -260.14071     -711.68555      0.01413979    -1.7732411e-06 -2.5271995e-06  6.3691296      16.547482      20.757956      2187.7445    
       102   0             -146.75335     -410.66863     -260.18038     -260.13998     -711.68554      0.0083353121  -6.2193818e-07 -4.1115056e-07  6.3691296      16.547482      20.757956      2187.7445    
       103   0             -146.75335     -410.66864     -260.1809      -260.13948     -711.68554      0.0044977813  -3.0016776e-07 -4.1857151e-08  6.3691296      16.547482      20.757956      2187.7445    
       104   0             -146.75335     -410.66864     -260.18128     -260.1391      -711.68554      0.001635429   -2.4393009e-07  4.6826529e-08  6.3691296      16.547482      20.757956      2187.7445    
       105   0             -146.75335     -410.66864     -260.18153     -260.13886     -711.68554     -0.00023905194 -1.4295755e-07  4.763122e-08   6.3691296      16.547482      20.757956      2187.7445    
       106   0             -146.75335     -410.66864     -260.18163     -260.13876     -711.68554     -0.00098399132 -7.1817763e-08  1.8545155e-08  6.3691296      16.547482      20.757956      2187.7445    
       107   0             -146.75335     -410.66864     -260.18161     -260.13878     -711.68554     -0.00083851246 -3.39265e-08    1.2133802e-08  6.3691296      16.547482      20.757956      2187.7445    
       108   0             -146.75335     -410.66864     -260.18155     -260.13884     -711.68554     -0.00034371292 -4.3866011e-09  2.4803536e-09  6.3691296      16.547482      20.757956      2187.7445    
       109   0             -146.75335     -410.66864     -260.18149     -260.1389      -711.68554      8.2437271e-05  2.7205977e-09  6.648117e-09   6.3691296      16.547482      20.757956      2187.7445    
       110   0             -146.75335     -410.66864     -260.18147     -260.13892     -711.68554      0.00022845344  2.7030635e-09  1.8174979e-09  6.3691296      16.547482      20.757956      2187.7445    
       111   0             -146.75335     -410.66864     -260.18148     -260.13891     -711.68554      0.00016945569  1.0369724e-09  1.5788996e-09  6.3691296      16.547482      20.757956      2187.7445    
       112   0             -146.75335     -410.66864     -260.1815      -260.13889     -711.68554      4.6575348e-05 -5.2385243e-10 -4.6325958e-10  6.3691296      16.547482      20.757956      2187.7445    
       113   0             -146.75335     -410.66864     -260.18151     -260.13888     -711.68554     -7.0798446e-05 -1.1098724e-09  3.4341542e-10  6.3691296      16.547482      20.757956      2187.7445    
       114   0             -146.75335     -410.66864     -260.18152     -260.13887     -711.68554     -9.7733477e-05 -7.755601e-10  -7.7303643e-10  6.3691296      16.547482      20.757956      2187.7445    
       115   0             -146.75335     -410.66864     -260.18151     -260.13888     -711.68554     -5.9265283e-05 -5.7845848e-10  1.7728132e-10  6.3691296      16.547482      20.757956      2187.7445    
       116   0             -146.75335     -410.66864     -260.1815      -260.13889     -711.68554      1.0201775e-05 -1.8029155e-10 -1.8350379e-10  6.3691296      16.547482      20.757956      2187.7445    
       117   0             -146.75335     -410.66864     -260.18149     -260.1389      -711.68554      7.0719916e-05  1.8431113e-11  1.6320962e-10  6.3691296      16.547482      20.757956      2187.7445    
       118   0             -146.75335     -410.66864     -260.18149     -260.1389      -711.68554      6.0285057e-05  1.2950563e-11 -7.4725536e-12  6.3691296      16.547482      20.757956      2187.7445    
       119   0             -146.75335     -410.66864     -260.1815      -260.13889     -711.68554      2.2755261e-05  1.5930946e-12  8.8146786e-11  6.3691296      16.547482      20.757956      2187.7445    
       120   0             -146.75335     -410.66864     -260.1815      -260.13889     -711.68554     -2.4392049e-06 -7.0012314e-12 -1.3273882e-11  6.3691296      16.547482      20.757956      2187.7445    
       121   0             -146.75335     -410.66864     -260.1815      -260.13889     -711.68554     -1.1660531e-05 -6.3317251e-12  2.9029511e-11  6.3691296      16.547482      20.757956      2187.7445    
       122   0             -146.75335     -410.66864     -260.1815      -260.13889     -711.68554     -1.0581424e-05 -9.4264447e-13 -1.1675071e-11  6.3691296      16.547482      20.757956      2187.7445    
       123   0             -146.75335     -410.66864     -260.1815      -260.13889     -711.68554     -4.4468225e-06  3.266225e-12   8.2214605e-12  6.3691296      16.547482      20.757956      2187.7445    
       124   0             -146.75335     -410.66864     -260.1815      -260.13889     -711.68554     -6.2836475e-07 -4.2215736e-12  3.7794708e-12  6.3691296      16.547482      20.757956      2187.7445    
       125   0             -146.75335     -410.66864     -260.1815      -260.13889     -711.68554      1.6646185e-06  6.9986906e-12  3.3252991e-12  6.3691296      16.547482      20.757956      2187.7445    
       126   0             -146.75335     -410.66864     -260.1815      -260.13889     -711.68554      2.0251385e-06  1.6464518e-12  6.3425236e-12  6.3691296      16.547482      20.757956      2187.7445    
       127   0             -146.75335     -410.66864     -260.1815      -260.13889     -711.68554      1.1352114e-06  8.8547601e-12 -1.405582e-11   6.3691296      16.547482      20.757956      2187.7445    
       128   0             -146.75335     -410.66864     -260.1815      -260.13889     -711.68554      3.1690764e-07 -9.1444136e-12  3.6752971e-12  6.3691296      16.547482      20.757956      2187.7445    
       129   0             -146.75335     -410.66864     -260.1815      -260.13889     -711.68554     -1.7808076e-07  5.7168465e-12 -1.4215892e-12  6.3691296      16.547482      20.757956      2187.7445    
       130   0             -146.75335     -410.66864     -260.1815      -260.13889     -711.68554     -2.2138304e-07  2.9054284e-12  5.5186625e-12  6.3691296      16.547482      20.757956      2187.7445    
       131   0             -146.75335     -410.66864     -260.1815      -260.13889     -711.68554     -1.2242347e-07  7.6999571e-12 -1.3090308e-11  6.3691296      16.547482      20.757956      2187.7445    
       132   0             -146.75335     -410.66864     -260.1815      -260.13889     -711.68554     -3.8030295e-08 -7.6809009e-12  1.5880129e-12  6.3691296      16.547482      20.757956      2187.7445    
       133   0             -146.75335     -410.66864     -260.1815      -260.13889     -711.68554      1.3708703e-08  1.1154203e-12 -5.901056e-12   6.3691296      16.547482      20.757956      2187.7445    
       134   0             -146.75335     -410.66864     -260.1815      -260.13889     -711.68554      2.5795065e-08  1.2405557e-11  3.5044269e-12  6.3691296      16.547482      20.757956      2187.7445    
       135   0             -146.75335     -410.66864     -260.1815      -260.13889     -711.68554      1.8755378e-08  2.8876427e-12 -1.3929414e-11  6.3691296      16.547482      20.757956      2187.7445    
Loop time of 0.013865 on 1 procs for 35 steps with 96 atoms

0.0% CPU use with 1 MPI tasks x 1 OpenMP threads

Minimization stats:
  Stopping criterion = force tolerance
  Energy initial, next-to-last, final = 
     -146.753348837442  -146.753348857643  -146.753348857644
  Force two-norm initial, final = 0.00046473902 9.5043891e-11
  Force max component initial, final = 7.1617272e-05 2.0518448e-11
  Final line search alpha, max atom move = 1 2.0518448e-11
  Iterations, force evaluations = 35 70

MPI task timing breakdown:
Section |  min time  |  avg time  |  max time  |%varavg| %total
---------------------------------------------------------------
Pair    | 0.013096   | 0.013096   | 0.013096   |   0.0 | 94.45
Neigh   | 0          | 0          | 0          |   0.0 |  0.00
Comm    | 0.000263   | 0.000263   | 0.000263   |   0.0 |  1.90
Output  | 0.000339   | 0.000339   | 0.000339   |   0.0 |  2.45
Modify  | 0          | 0          | 0          |   0.0 |  0.00
Other   |            | 0.000167   |            |       |  1.20

Nlocal:             96 ave          96 max          96 min
Histogram: 1 0 0 0 0 0 0 0 0 0
Nghost:           1310 ave        1310 max        1310 min
Histogram: 1 0 0 0 0 0 0 0 0 0
Neighs:           6144 ave        6144 max        6144 min
Histogram: 1 0 0 0 0 0 0 0 0 0

Total # of neighbors = 6144
Ave neighs/atom = 64
Neighbor list builds = 0
Dangerous builds = 0
OMP_NUM_THREADS environment is not set. Defaulting to 1 thread. (src/comm.cpp:98)
  using 1 OpenMP thread(s) per MPI task
Loaded 1 plugins from F:\Lammps\LAMMPS 64-bit 2Aug2023\plugins

The 'box' command has been removed and will be ignored

Reading restart file ...
  restart file = 2 Aug 2023, LAMMPS = 2 Aug 2023
  restoring atom style atomic from restart
  triclinic box = (0.025435542 0.066083476 0.10483816) to (6.3945645 16.613566 20.862794) with tilt (0 0 0)
  1 by 1 by 1 MPI processor grid
  pair style eam/alloy stores no restart info
  96 atoms
  read_restart CPU = 0.000 seconds
Changing box ...
  triclinic box = (0.025435542 0.066083476 0.10483816) to (6.3945645 16.613564 20.862794) with tilt (0 0 0)
  triclinic box = (0.025435542 0.066083476 0.10483816) to (6.3945645 16.613564 20.862794) with tilt (0 0 0)
Neighbor list info ...
  update: every = 1 steps, delay = 0 steps, check = yes
  max neighbors/atom: 2000, page size: 100000
  master list distance cutoff = 8.5
  ghost atom cutoff = 8.5
  1 neighbor lists, perpetual/occasional/extra = 1 0 0
  (1) pair eam/alloy, perpetual
      attributes: half, newton on
      pair build: half/nsq/newton
      stencil: none
      bin: none
Setting up cg style minimization ...
  Unit style    : metal
  Current step  : 100
Per MPI rank memory allocation (min/avg/max) = 4.467 | 4.467 | 4.467 Mbytes
   Step          Temp          PotEng         Press           Pxx            Pyy            Pzz            Pxy            Pxz            Pyz             Lx             Ly             Lz           Volume    
       100   0             -146.75335     -410.59484     -260.08414     -260.04651     -711.65386      0.018568603   -1.8562069e-06 -5.7844276e-06  6.3691289      16.547481      20.757956      2187.744     
       101   0             -146.75335     -410.59493     -260.08489     -260.04604     -711.65384      0.014139231   -1.7732419e-06 -2.5272091e-06  6.3691289      16.547481      20.757956      2187.744     
       102   0             -146.75335     -410.59495     -260.08571     -260.04531     -711.65384      0.0083348679  -6.2193905e-07 -4.1113738e-07  6.3691289      16.547481      20.757956      2187.744     
       103   0             -146.75335     -410.59496     -260.08622     -260.0448      -711.65384      0.0044974634  -3.0018437e-07 -4.1848304e-08  6.3691289      16.547481      20.757956      2187.744     
       104   0             -146.75335     -410.59496     -260.08661     -260.04443     -711.65384      0.0016352476  -2.4395147e-07  4.6835126e-08  6.3691289      16.547481      20.757956      2187.744     
       105   0             -146.75335     -410.59496     -260.08686     -260.04418     -711.65384     -0.00023911142 -1.4295372e-07  4.7655364e-08  6.3691289      16.547481      20.757956      2187.744     
       106   0             -146.75335     -410.59496     -260.08696     -260.04408     -711.65384     -0.00098395901 -7.1816029e-08  1.85727e-08    6.3691289      16.547481      20.757956      2187.744     
       107   0             -146.75335     -410.59496     -260.08694     -260.0441      -711.65384     -0.00083844299 -3.3930688e-08  1.2136859e-08  6.3691289      16.547481      20.757956      2187.744     
       108   0             -146.75335     -410.59496     -260.08687     -260.04417     -711.65384     -0.00034365523 -4.3892572e-09  2.5004958e-09  6.3691289      16.547481      20.757956      2187.744     
       109   0             -146.75335     -410.59496     -260.08682     -260.04422     -711.65384      8.245861e-05   2.7339757e-09  6.652023e-09   6.3691289      16.547481      20.757956      2187.744     
       110   0             -146.75335     -410.59496     -260.0868      -260.04424     -711.65384      0.00022844514  2.7112531e-09  1.779898e-09   6.3691289      16.547481      20.757956      2187.744     
       111   0             -146.75335     -410.59496     -260.08681     -260.04424     -711.65384      0.00016943119  1.0372687e-09  1.5575958e-09  6.3691289      16.547481      20.757956      2187.744     
       112   0             -146.75335     -410.59496     -260.08682     -260.04422     -711.65384      4.6554632e-05 -5.3097065e-10 -4.8851353e-10  6.3691289      16.547481      20.757956      2187.744     
       113   0             -146.75335     -410.59496     -260.08684     -260.0442      -711.65384     -7.0802939e-05 -1.1166452e-09  3.3182299e-10  6.3691289      16.547481      20.757956      2187.744     
       114   0             -146.75335     -410.59496     -260.08684     -260.0442      -711.65384     -9.7725371e-05 -7.8140288e-10 -7.6894523e-10  6.3691289      16.547481      20.757956      2187.744     
       115   0             -146.75335     -410.59496     -260.08684     -260.04421     -711.65384     -5.9252422e-05 -5.6627663e-10  1.6967922e-10  6.3691289      16.547481      20.757956      2187.744     
       116   0             -146.75335     -410.59496     -260.08683     -260.04421     -711.65384      1.0214051e-05 -1.8103986e-10 -1.6885408e-10  6.3691289      16.547481      20.757956      2187.744     
       117   0             -146.75335     -410.59496     -260.08682     -260.04422     -711.65384      7.0718501e-05  2.8551208e-11  1.746154e-10   6.3691289      16.547481      20.757956      2187.744     
       118   0             -146.75335     -410.59496     -260.08682     -260.04422     -711.65384      6.0276704e-05  1.2043492e-11 -4.6414451e-12  6.3691289      16.547481      20.757956      2187.744     
       119   0             -146.75335     -410.59496     -260.08683     -260.04422     -711.65384      2.2747892e-05  5.3103163e-12  7.8261739e-11  6.3691289      16.547481      20.757956      2187.744     
       120   0             -146.75335     -410.59496     -260.08683     -260.04421     -711.65384     -2.4427982e-06 -8.270373e-12  -1.3318985e-11  6.3691289      16.547481      20.757956      2187.744     
       121   0             -146.75335     -410.59496     -260.08683     -260.04421     -711.65384     -1.1660683e-05  3.3691289e-12  3.3736389e-11  6.3691289      16.547481      20.757956      2187.744     
       122   0             -146.75335     -410.59496     -260.08683     -260.04421     -711.65384     -1.0579819e-05  4.5340954e-12 -2.7858199e-11  6.3691289      16.547481      20.757956      2187.744     
       123   0             -146.75335     -410.59496     -260.08683     -260.04421     -711.65384     -4.4453774e-06 -6.0979709e-14  9.5306203e-12  6.3691289      16.547481      20.757956      2187.744     
       124   0             -146.75335     -410.59496     -260.08683     -260.04421     -711.65384     -6.2747339e-07  4.0081454e-12  2.4130814e-11  6.3691289      16.547481      20.757956      2187.744     
       125   0             -146.75335     -410.59496     -260.08683     -260.04421     -711.65384      1.6648106e-06  5.7575008e-12  1.8643911e-11  6.3691289      16.547481      20.757956      2187.744     
       126   0             -146.75335     -410.59496     -260.08683     -260.04421     -711.65384      2.024816e-06   2.1520755e-12  2.8501662e-11  6.3691289      16.547481      20.757956      2187.744     
       127   0             -146.75335     -410.59496     -260.08683     -260.04421     -711.65384      1.1346779e-06 -6.7560435e-12  6.1830884e-12  6.3691289      16.547481      20.757956      2187.744     
       128   0             -146.75335     -410.59496     -260.08683     -260.04421     -711.65384      3.1657567e-07  5.129918e-12   6.1614914e-13  6.3691289      16.547481      20.757956      2187.744     
       129   0             -146.75335     -410.59496     -260.08683     -260.04421     -711.65384     -1.7814464e-07 -2.8914545e-12  1.3799835e-11  6.3691289      16.547481      20.757956      2187.744     
       130   0             -146.75335     -410.59496     -260.08683     -260.04421     -711.65384     -2.2136412e-07 -2.0008967e-12  4.5334602e-12  6.3691289      16.547481      20.757956      2187.744     
       131   0             -146.75335     -410.59496     -260.08683     -260.04421     -711.65384     -1.2236381e-07  5.2950714e-12 -1.8492732e-11  6.3691289      16.547481      20.757956      2187.744     
       132   0             -146.75335     -410.59496     -260.08683     -260.04421     -711.65384     -3.8005481e-08 -5.634271e-12  -8.1369799e-13  6.3691289      16.547481      20.757956      2187.744     
       133   0             -146.75335     -410.59496     -260.08683     -260.04421     -711.65384      1.3731586e-08 -1.0239509e-12 -9.1501323e-12  6.3691289      16.547481      20.757956      2187.744     
       134   0             -146.75335     -410.59496     -260.08683     -260.04421     -711.65384      2.5814438e-08  7.076187e-13   1.6416881e-11  6.3691289      16.547481      20.757956      2187.744     
       135   0             -146.75335     -410.59496     -260.08683     -260.04421     -711.65384      1.8751123e-08 -1.1586145e-12  9.0262673e-12  6.3691289      16.547481      20.757956      2187.744     
Loop time of 0.013471 on 1 procs for 35 steps with 96 atoms

116.0% CPU use with 1 MPI tasks x 1 OpenMP threads

Minimization stats:
  Stopping criterion = force tolerance
  Energy initial, next-to-last, final = 
     -146.753348908477  -146.753348928679  -146.753348928679
  Force two-norm initial, final = 0.00046473994 9.5035532e-11
  Force max component initial, final = 7.1617408e-05 2.0514826e-11
  Final line search alpha, max atom move = 1 2.0514826e-11
  Iterations, force evaluations = 35 70

MPI task timing breakdown:
Section |  min time  |  avg time  |  max time  |%varavg| %total
---------------------------------------------------------------
Pair    | 0.012705   | 0.012705   | 0.012705   |   0.0 | 94.31
Neigh   | 0          | 0          | 0          |   0.0 |  0.00
Comm    | 0.000269   | 0.000269   | 0.000269   |   0.0 |  2.00
Output  | 0.000343   | 0.000343   | 0.000343   |   0.0 |  2.55
Modify  | 0          | 0          | 0          |   0.0 |  0.00
Other   |            | 0.000154   |            |       |  1.14

Nlocal:             96 ave          96 max          96 min
Histogram: 1 0 0 0 0 0 0 0 0 0
Nghost:           1310 ave        1310 max        1310 min
Histogram: 1 0 0 0 0 0 0 0 0 0
Neighs:           6144 ave        6144 max        6144 min
Histogram: 1 0 0 0 0 0 0 0 0 0

Total # of neighbors = 6144
Ave neighs/atom = 64
Neighbor list builds = 0
Dangerous builds = 0
OMP_NUM_THREADS environment is not set. Defaulting to 1 thread. (src/comm.cpp:98)
  using 1 OpenMP thread(s) per MPI task
Loaded 1 plugins from F:\Lammps\LAMMPS 64-bit 2Aug2023\plugins

The 'box' command has been removed and will be ignored

Reading restart file ...
  restart file = 2 Aug 2023, LAMMPS = 2 Aug 2023
  restoring atom style atomic from restart
  triclinic box = (0.025435542 0.066083476 0.10483816) to (6.3945645 16.613566 20.862794) with tilt (0 0 0)
  1 by 1 by 1 MPI processor grid
  pair style eam/alloy stores no restart info
  96 atoms
  read_restart CPU = 0.000 seconds
Changing box ...
  triclinic box = (0.025435542 0.066083476 0.10483816) to (6.3945645 16.613567 20.862794) with tilt (0 0 0)
  triclinic box = (0.025435542 0.066083476 0.10483816) to (6.3945645 16.613567 20.862794) with tilt (0 0 0)
Neighbor list info ...
  update: every = 1 steps, delay = 0 steps, check = yes
  max neighbors/atom: 2000, page size: 100000
  master list distance cutoff = 8.5
  ghost atom cutoff = 8.5
  1 neighbor lists, perpetual/occasional/extra = 1 0 0
  (1) pair eam/alloy, perpetual
      attributes: half, newton on
      pair build: half/nsq/newton
      stencil: none
      bin: none
Setting up cg style minimization ...
  Unit style    : metal
  Current step  : 100
Per MPI rank memory allocation (min/avg/max) = 4.467 | 4.467 | 4.467 Mbytes
   Step          Temp          PotEng         Press           Pxx            Pyy            Pzz            Pxy            Pxz            Pyz             Lx             Ly             Lz           Volume    
       100   0             -146.75335     -410.66852     -260.13464     -260.18536     -711.68556      0.018568971   -1.8798888e-06 -5.7574807e-06  6.3691289      16.547484      20.757956      2187.7445    
       101   0             -146.75335     -410.66861     -260.13577     -260.18451     -711.68555      0.014139429   -1.7732197e-06 -2.5369421e-06  6.3691289      16.547484      20.757956      2187.7445    
       102   0             -146.75335     -410.66863     -260.13707     -260.18329     -711.68554      0.0083346929  -6.2191745e-07 -3.9671392e-07  6.3691289      16.547484      20.757956      2187.7445    
       103   0             -146.75335     -410.66864     -260.13791     -260.18247     -711.68554      0.0044969405  -3.0014896e-07 -5.1075164e-08  6.3691289      16.547484      20.757956      2187.7445    
       104   0             -146.75335     -410.66864     -260.13853     -260.18185     -711.68554      0.0016346919  -2.4393024e-07  5.440743e-08   6.3691289      16.547484      20.757956      2187.7445    
       105   0             -146.75335     -410.66864     -260.13894     -260.18145     -711.68554     -0.00023893829 -1.4295838e-07  4.1104746e-08  6.3691289      16.547484      20.757956      2187.7445    
       106   0             -146.75335     -410.66864     -260.1391      -260.18129     -711.68554     -0.00098324415 -7.1843857e-08  2.6785647e-08  6.3691289      16.547484      20.757956      2187.7445    
       107   0             -146.75335     -410.66864     -260.13907     -260.18132     -711.68554     -0.00083783879 -3.3928728e-08  3.3252209e-09  6.3691289      16.547484      20.757956      2187.7445    
       108   0             -146.75335     -410.66864     -260.13896     -260.18143     -711.68554     -0.0003433654  -4.3912445e-09  9.4400521e-09  6.3691289      16.547484      20.757956      2187.7445    
       109   0             -146.75335     -410.66864     -260.13887     -260.18152     -711.68554      8.2361296e-05  2.7246414e-09  2.998702e-09   6.3691289      16.547484      20.757956      2187.7445    
       110   0             -146.75335     -410.66864     -260.13884     -260.18155     -711.68554      0.00022818482  2.7105589e-09  3.5530462e-09  6.3691289      16.547484      20.757956      2187.7445    
       111   0             -146.75335     -410.66864     -260.13885     -260.18154     -711.68554      0.00016924286  1.0472018e-09  2.9727157e-10  6.3691289      16.547484      20.757956      2187.7445    
       112   0             -146.75335     -410.66864     -260.13888     -260.18151     -711.68554      4.6502399e-05 -5.2452448e-10  8.0491929e-10  6.3691289      16.547484      20.757956      2187.7445    
       113   0             -146.75335     -410.66864     -260.1389      -260.18149     -711.68554     -7.0695755e-05 -1.1071931e-09 -8.1921839e-10  6.3691289      16.547484      20.757956      2187.7445    
       114   0             -146.75335     -410.66864     -260.13891     -260.18148     -711.68554     -9.7582681e-05 -7.7172982e-10  1.9692504e-10  6.3691289      16.547484      20.757956      2187.7445    
       115   0             -146.75335     -410.66864     -260.1389      -260.18149     -711.68554     -5.9166608e-05 -5.7926392e-10 -5.2927391e-10  6.3691289      16.547484      20.757956      2187.7445    
       116   0             -146.75335     -410.66864     -260.13889     -260.1815      -711.68554      1.0188082e-05 -1.7664675e-10  1.8351395e-10  6.3691289      16.547484      20.757956      2187.7445    
       117   0             -146.75335     -410.66864     -260.13887     -260.18152     -711.68554      7.0581899e-05  3.4012696e-11 -9.7173687e-12  6.3691289      16.547484      20.757956      2187.7445    
       118   0             -146.75335     -410.66864     -260.13888     -260.18152     -711.68554      6.0163861e-05  1.7269958e-11  1.209996e-10   6.3691289      16.547484      20.757956      2187.7445    
       119   0             -146.75335     -410.66864     -260.13888     -260.18151     -711.68554      2.2701392e-05 -1.5880129e-13 -5.1728568e-11  6.3691289      16.547484      20.757956      2187.7445    
       120   0             -146.75335     -410.66864     -260.13889     -260.1815      -711.68554     -2.4337881e-06  9.798675e-12   3.5437461e-11  6.3691289      16.547484      20.757956      2187.7445    
       121   0             -146.75335     -410.66864     -260.13889     -260.1815      -711.68554     -1.1628834e-05 -3.2255719e-12 -3.5397443e-11  6.3691289      16.547484      20.757956      2187.7445    
       122   0             -146.75335     -410.66864     -260.13889     -260.1815      -711.68554     -1.0552252e-05  7.2667471e-13 -1.7481481e-11  6.3691289      16.547484      20.757956      2187.7445    
       123   0             -146.75335     -410.66864     -260.13889     -260.1815      -711.68554     -4.432914e-06   1.7175948e-12  1.9617676e-11  6.3691289      16.547484      20.757956      2187.7445    
       124   0             -146.75335     -410.66864     -260.13889     -260.1815      -711.68554     -6.2581138e-07  6.4028681e-12 -2.355976e-11   6.3691289      16.547484      20.757956      2187.7445    
       125   0             -146.75335     -410.66864     -260.13889     -260.1815      -711.68554      1.6587983e-06 -3.1963524e-12  6.0725614e-13  6.3691289      16.547484      20.757956      2187.7445    
       126   0             -146.75335     -410.66864     -260.13889     -260.1815      -711.68554      2.0177286e-06  8.4228206e-13 -8.0715521e-12  6.3691289      16.547484      20.757956      2187.7445    
       127   0             -146.75335     -410.66864     -260.13889     -260.1815      -711.68554      1.1307779e-06  1.0023538e-12 -5.7981528e-12  6.3691289      16.547484      20.757956      2187.7445    
       128   0             -146.75335     -410.66864     -260.13889     -260.1815      -711.68554      3.1553118e-07  5.2467947e-13  2.1013857e-11  6.3691289      16.547484      20.757956      2187.7445    
       129   0             -146.75335     -410.66864     -260.13889     -260.1815      -711.68554     -1.7737572e-07  7.3632983e-12  2.7794037e-11  6.3691289      16.547484      20.757956      2187.7445    
       130   0             -146.75335     -410.66864     -260.13889     -260.1815      -711.68554     -2.204693e-07  -5.6723822e-12  7.0780912e-12  6.3691289      16.547484      20.757956      2187.7445    
       131   0             -146.75335     -410.66864     -260.13889     -260.1815      -711.68554     -1.2189227e-07  3.7134094e-12  3.3735747e-12  6.3691289      16.547484      20.757956      2187.7445    
       132   0             -146.75335     -410.66864     -260.13889     -260.1815      -711.68554     -3.7862377e-08 -5.3103152e-13 -8.8210942e-12  6.3691289      16.547484      20.757956      2187.7445    
       133   0             -146.75335     -410.66864     -260.13889     -260.1815      -711.68554      1.3650135e-08  4.1491602e-12 -3.5857332e-12  6.3691289      16.547484      20.757956      2187.7445    
       134   0             -146.75335     -410.66864     -260.13889     -260.1815      -711.68554      2.5686838e-08  1.0229344e-11  4.7621332e-12  6.3691289      16.547484      20.757956      2187.7445    
       135   0             -146.75335     -410.66864     -260.13889     -260.1815      -711.68554      1.8678043e-08 -7.2413389e-13 -1.2250567e-11  6.3691289      16.547484      20.757956      2187.7445    
Loop time of 0.014504 on 1 procs for 35 steps with 96 atoms

107.7% CPU use with 1 MPI tasks x 1 OpenMP threads

Minimization stats:
  Stopping criterion = force tolerance
  Energy initial, next-to-last, final = 
     -146.753348837441  -146.753348857644  -146.753348857644
  Force two-norm initial, final = 0.00046474204 9.5059515e-11
  Force max component initial, final = 7.1617371e-05 2.0517706e-11
  Final line search alpha, max atom move = 1 2.0517706e-11
  Iterations, force evaluations = 35 70

MPI task timing breakdown:
Section |  min time  |  avg time  |  max time  |%varavg| %total
---------------------------------------------------------------
Pair    | 0.013566   | 0.013566   | 0.013566   |   0.0 | 93.53
Neigh   | 0          | 0          | 0          |   0.0 |  0.00
Comm    | 0.000342   | 0.000342   | 0.000342   |   0.0 |  2.36
Output  | 0.000394   | 0.000394   | 0.000394   |   0.0 |  2.72
Modify  | 0          | 0          | 0          |   0.0 |  0.00
Other   |            | 0.000202   |            |       |  1.39

Nlocal:             96 ave          96 max          96 min
Histogram: 1 0 0 0 0 0 0 0 0 0
Nghost:           1310 ave        1310 max        1310 min
Histogram: 1 0 0 0 0 0 0 0 0 0
Neighs:           6144 ave        6144 max        6144 min
Histogram: 1 0 0 0 0 0 0 0 0 0

Total # of neighbors = 6144
Ave neighs/atom = 64
Neighbor list builds = 0
Dangerous builds = 0
OMP_NUM_THREADS environment is not set. Defaulting to 1 thread. (src/comm.cpp:98)
  using 1 OpenMP thread(s) per MPI task
Loaded 1 plugins from F:\Lammps\LAMMPS 64-bit 2Aug2023\plugins

The 'box' command has been removed and will be ignored

Reading restart file ...
  restart file = 2 Aug 2023, LAMMPS = 2 Aug 2023
  restoring atom style atomic from restart
  triclinic box = (0.025435542 0.066083476 0.10483816) to (6.3945645 16.613566 20.862794) with tilt (0 0 0)
  1 by 1 by 1 MPI processor grid
  pair style eam/alloy stores no restart info
  96 atoms
  read_restart CPU = 0.000 seconds
Changing box ...
  triclinic box = (0.025435542 0.066083476 0.10483816) to (6.3945645 16.613566 20.862792) with tilt (0 0 0)
Neighbor list info ...
  update: every = 1 steps, delay = 0 steps, check = yes
  max neighbors/atom: 2000, page size: 100000
  master list distance cutoff = 8.5
  ghost atom cutoff = 8.5
  1 neighbor lists, perpetual/occasional/extra = 1 0 0
  (1) pair eam/alloy, perpetual
      attributes: half, newton on
      pair build: half/nsq/newton
      stencil: none
      bin: none
Setting up cg style minimization ...
  Unit style    : metal
  Current step  : 100
Per MPI rank memory allocation (min/avg/max) = 4.467 | 4.467 | 4.467 Mbytes
   Step          Temp          PotEng         Press           Pxx            Pyy            Pzz            Pxy            Pxz            Pyz             Lx             Ly             Lz           Volume    
       100   0             -146.75335     -410.59815     -260.09349     -260.10004     -711.60091      0.018568774   -1.8713842e-06 -5.7726961e-06  6.3691289      16.547482      20.757954      2187.744     
       101   0             -146.75335     -410.59824     -260.09443     -260.09938     -711.6009       0.014139313   -1.7732411e-06 -2.532075e-06   6.3691289      16.547482      20.757954      2187.744     
       102   0             -146.75335     -410.59826     -260.09549     -260.0984      -711.6009       0.0083347481  -6.2194078e-07 -4.0393443e-07  6.3691289      16.547482      20.757954      2187.744     
       103   0             -146.75335     -410.59827     -260.09617     -260.09774     -711.6009       0.0044971774  -3.0016204e-07 -4.6442178e-08  6.3691289      16.547482      20.757954      2187.744     
       104   0             -146.75335     -410.59827     -260.09667     -260.09724     -711.6009       0.0016349618  -2.4393384e-07  5.0616259e-08  6.3691289      16.547482      20.757954      2187.744     
       105   0             -146.75335     -410.59827     -260.097       -260.09692     -711.6009      -0.0002390568  -1.4297137e-07  4.433938e-08   6.3691289      16.547482      20.757954      2187.744     
       106   0             -146.75335     -410.59827     -260.09713     -260.09679     -711.6009      -0.00098364112 -7.1835747e-08  2.2674514e-08  6.3691289      16.547482      20.757954      2187.744     
       107   0             -146.75335     -410.59827     -260.09711     -260.09681     -711.6009      -0.00083816327 -3.3926244e-08  7.7558491e-09  6.3691289      16.547482      20.757954      2187.744     
       108   0             -146.75335     -410.59827     -260.09702     -260.0969      -711.6009      -0.00034351381 -4.3811431e-09  5.9673409e-09  6.3691289      16.547482      20.757954      2187.744     
       109   0             -146.75335     -410.59827     -260.09695     -260.09698     -711.6009       8.2422424e-05  2.7385809e-09  4.857077e-09   6.3691289      16.547482      20.757954      2187.744     
       110   0             -146.75335     -410.59827     -260.09692     -260.097       -711.6009       0.00022832985  2.7125629e-09  2.6682485e-09  6.3691289      16.547482      20.757954      2187.744     
       111   0             -146.75335     -410.59827     -260.09693     -260.09699     -711.6009       0.00016934116  1.0441441e-09  9.1943617e-10  6.3691289      16.547482      20.757954      2187.744     
       112   0             -146.75335     -410.59827     -260.09695     -260.09697     -711.6009       4.6525831e-05 -5.2467576e-10  1.5641232e-10  6.3691289      16.547482      20.757954      2187.744     
       113   0             -146.75335     -410.59827     -260.09697     -260.09695     -711.6009      -7.0757694e-05 -1.1163047e-09 -2.7362866e-10  6.3691289      16.547482      20.757954      2187.744     
       114   0             -146.75335     -410.59827     -260.09698     -260.09694     -711.6009      -9.7661914e-05 -7.6777772e-10 -2.8471489e-10  6.3691289      16.547482      20.757954      2187.744     
       115   0             -146.75335     -410.59827     -260.09697     -260.09695     -711.6009      -5.9212862e-05 -5.8379051e-10 -1.8548566e-10  6.3691289      16.547482      20.757954      2187.744     
       116   0             -146.75335     -410.59827     -260.09696     -260.09696     -711.6009       1.0206701e-05 -1.7989522e-10  2.9803197e-11  6.3691289      16.547482      20.757954      2187.744     
       117   0             -146.75335     -410.59827     -260.09695     -260.09697     -711.6009       7.0659923e-05  1.8985016e-11  1.0206542e-10  6.3691289      16.547482      20.757954      2187.744     
       118   0             -146.75335     -410.59827     -260.09695     -260.09697     -711.6009       6.0226663e-05  1.5003549e-12  5.9542874e-11  6.3691289      16.547482      20.757954      2187.744     
       119   0             -146.75335     -410.59827     -260.09696     -260.09696     -711.6009       2.2725998e-05 -7.0380747e-13  2.5532077e-11  6.3691289      16.547482      20.757954      2187.744     
       120   0             -146.75335     -410.59827     -260.09696     -260.09696     -711.6009      -2.4402298e-06 -6.8576764e-12  3.5705525e-11  6.3691289      16.547482      20.757954      2187.744     
       121   0             -146.75335     -410.59827     -260.09696     -260.09696     -711.6009      -1.1647365e-05 -1.0322086e-11 -1.9021223e-11  6.3691289      16.547482      20.757954      2187.744     
       122   0             -146.75335     -410.59827     -260.09696     -260.09696     -711.6009      -1.0567723e-05 -7.4992337e-12  1.8979934e-12  6.3691289      16.547482      20.757954      2187.744     
       123   0             -146.75335     -410.59827     -260.09696     -260.09696     -711.6009      -4.4396106e-06  8.0912451e-12 -5.5008779e-12  6.3691289      16.547482      20.757954      2187.744     
       124   0             -146.75335     -410.59827     -260.09696     -260.09696     -711.6009      -6.2636838e-07  1.1967268e-12 -8.035347e-13   6.3691289      16.547482      20.757954      2187.744     
       125   0             -146.75335     -410.59827     -260.09696     -260.09696     -711.6009       1.6623879e-06 -4.6712998e-12  2.1711317e-12  6.3691289      16.547482      20.757954      2187.744     
       126   0             -146.75335     -410.59827     -260.09696     -260.09696     -711.6009       2.0217356e-06  8.4863428e-12  2.6087882e-12  6.3691289      16.547482      20.757954      2187.744     
       127   0             -146.75335     -410.59827     -260.09696     -260.09696     -711.6009       1.1328025e-06 -6.4498746e-12 -9.7789856e-12  6.3691289      16.547482      20.757954      2187.744     
       128   0             -146.75335     -410.59827     -260.09696     -260.09696     -711.6009       3.1597445e-07 -5.2810968e-12 -6.6061351e-14  6.3691289      16.547482      20.757954      2187.744     
       129   0             -146.75335     -410.59827     -260.09696     -260.09696     -711.6009      -1.7786216e-07 -2.8330156e-13 -8.845869e-12   6.3691289      16.547482      20.757954      2187.744     
       130   0             -146.75335     -410.59827     -260.09696     -260.09696     -711.6009      -2.2097509e-07 -8.0620256e-12 -7.623734e-12   6.3691289      16.547482      20.757954      2187.744     
       131   0             -146.75335     -410.59827     -260.09696     -260.09696     -711.6009      -1.2214112e-07  1.769682e-12   5.798154e-12   6.3691289      16.547482      20.757954      2187.744     
       132   0             -146.75335     -410.59827     -260.09696     -260.09696     -711.6009      -3.7921619e-08 -6.2440681e-12  2.7466277e-12  6.3691289      16.547482      20.757954      2187.744     
       133   0             -146.75335     -410.59827     -260.09696     -260.09696     -711.6009       1.3700832e-08 -6.5629411e-12  2.2851511e-11  6.3691289      16.547482      20.757954      2187.744     
       134   0             -146.75335     -410.59827     -260.09696     -260.09696     -711.6009       2.5749797e-08 -1.1865635e-12 -2.9530694e-12  6.3691289      16.547482      20.757954      2187.744     
       135   0             -146.75335     -410.59827     -260.09696     -260.09696     -711.6009       1.8711423e-08 -1.5105182e-12 -1.3462541e-11  6.3691289      16.547482      20.757954      2187.744     
Loop time of 0.013929 on 1 procs for 35 steps with 96 atoms

112.2% CPU use with 1 MPI tasks x 1 OpenMP threads

Minimization stats:
  Stopping criterion = force tolerance
  Energy initial, next-to-last, final = 
     -146.753348970138  -146.753348990338  -146.753348990339
  Force two-norm initial, final = 0.00046474087 9.5037687e-11
  Force max component initial, final = 7.1617437e-05 2.0508165e-11
  Final line search alpha, max atom move = 1 2.0508165e-11
  Iterations, force evaluations = 35 70

MPI task timing breakdown:
Section |  min time  |  avg time  |  max time  |%varavg| %total
---------------------------------------------------------------
Pair    | 0.013104   | 0.013104   | 0.013104   |   0.0 | 94.08
Neigh   | 0          | 0          | 0          |   0.0 |  0.00
Comm    | 0.000261   | 0.000261   | 0.000261   |   0.0 |  1.87
Output  | 0.000389   | 0.000389   | 0.000389   |   0.0 |  2.79
Modify  | 0          | 0          | 0          |   0.0 |  0.00
Other   |            | 0.000175   |            |       |  1.26

Nlocal:             96 ave          96 max          96 min
Histogram: 1 0 0 0 0 0 0 0 0 0
Nghost:           1310 ave        1310 max        1310 min
Histogram: 1 0 0 0 0 0 0 0 0 0
Neighs:           6144 ave        6144 max        6144 min
Histogram: 1 0 0 0 0 0 0 0 0 0

Total # of neighbors = 6144
Ave neighs/atom = 64
Neighbor list builds = 0
Dangerous builds = 0
OMP_NUM_THREADS environment is not set. Defaulting to 1 thread. (src/comm.cpp:98)
  using 1 OpenMP thread(s) per MPI task
Loaded 1 plugins from F:\Lammps\LAMMPS 64-bit 2Aug2023\plugins

The 'box' command has been removed and will be ignored

Reading restart file ...
  restart file = 2 Aug 2023, LAMMPS = 2 Aug 2023
  restoring atom style atomic from restart
  triclinic box = (0.025435542 0.066083476 0.10483816) to (6.3945645 16.613566 20.862794) with tilt (0 0 0)
  1 by 1 by 1 MPI processor grid
  pair style eam/alloy stores no restart info
  96 atoms
  read_restart CPU = 0.000 seconds
Changing box ...
  triclinic box = (0.025435542 0.066083476 0.10483816) to (6.3945645 16.613566 20.862796) with tilt (0 0 0)
Neighbor list info ...
  update: every = 1 steps, delay = 0 steps, check = yes
  max neighbors/atom: 2000, page size: 100000
  master list distance cutoff = 8.5
  ghost atom cutoff = 8.5
  1 neighbor lists, perpetual/occasional/extra = 1 0 0
  (1) pair eam/alloy, perpetual
      attributes: half, newton on
      pair build: half/nsq/newton
      stencil: none
      bin: none
Setting up cg style minimization ...
  Unit style    : metal
  Current step  : 100
Per MPI rank memory allocation (min/avg/max) = 4.467 | 4.467 | 4.467 Mbytes
   Step          Temp          PotEng         Press           Pxx            Pyy            Pzz            Pxy            Pxz            Pyz             Lx             Ly             Lz           Volume    
       100   0             -146.75335     -410.66521     -260.12529     -260.13183     -711.73851      0.018568796   -1.8648729e-06 -5.7660641e-06  6.3691289      16.547482      20.757958      2187.7445    
       101   0             -146.75335     -410.6653      -260.12623     -260.13117     -711.73849      0.014139352   -1.7732214e-06 -2.5320756e-06  6.3691289      16.547482      20.757958      2187.7445    
       102   0             -146.75335     -410.66532     -260.12728     -260.1302      -711.73849      0.0083348534  -6.2193425e-07 -4.0391338e-07  6.3691289      16.547482      20.757958      2187.7445    
       103   0             -146.75335     -410.66533     -260.12796     -260.12954     -711.73849      0.0044973023  -3.001673e-07  -4.6445801e-08  6.3691289      16.547482      20.757958      2187.7445    
       104   0             -146.75335     -410.66533     -260.12847     -260.12904     -711.73849      0.0016350512  -2.439275e-07   5.0608739e-08  6.3691289      16.547482      20.757958      2187.7445    
       105   0             -146.75335     -410.66533     -260.1288      -260.12871     -711.73849     -0.00023901127 -1.4295302e-07  4.4388786e-08  6.3691289      16.547482      20.757958      2187.7445    
       106   0             -146.75335     -410.66533     -260.12893     -260.12858     -711.73849     -0.00098364802 -7.1820733e-08  2.2662565e-08  6.3691289      16.547482      20.757958      2187.7445    
       107   0             -146.75335     -410.66533     -260.1289      -260.12861     -711.73849     -0.00083819246 -3.3926172e-08  7.7768912e-09  6.3691289      16.547482      20.757958      2187.7445    
       108   0             -146.75335     -410.66533     -260.12882     -260.1287      -711.73849     -0.00034354314 -4.3749909e-09  5.9377321e-09  6.3691289      16.547482      20.757958      2187.7445    
       109   0             -146.75335     -410.66533     -260.12874     -260.12877     -711.73849      8.2408193e-05  2.737033e-09   4.8237417e-09  6.3691289      16.547482      20.757958      2187.7445    
       110   0             -146.75335     -410.66533     -260.12872     -260.1288      -711.73849      0.00022833136  2.7151146e-09  2.6767044e-09  6.3691289      16.547482      20.757958      2187.7445    
       111   0             -146.75335     -410.66533     -260.12873     -260.12879     -711.73849      0.0001693564   1.0442265e-09  9.3143564e-10  6.3691289      16.547482      20.757958      2187.7445    
[...]
       104   0             -146.75335     -410.6318      -260.11257     -260.11314     -711.66969      0.02300927    -2.4008205e-07  5.0636958e-08  6.3691289      16.547482      20.757956      2187.7442    
       105   0             -146.75335     -410.6318      -260.1129      -260.11282     -711.66969      0.021059021   -1.4622812e-07  4.4387756e-08  6.3691289      16.547482      20.757956      2187.7442    
       106   0             -146.75335     -410.6318      -260.11303     -260.11269     -711.66969      0.020284928   -6.7791495e-08  2.2677482e-08  6.3691289      16.547482      20.757956      2187.7442    
       107   0             -146.75335     -410.6318      -260.113       -260.11271     -711.66969      0.020436188   -3.8362962e-08  7.7516578e-09  6.3691289      16.547482      20.757956      2187.7442    
       108   0             -146.75335     -410.6318      -260.11292     -260.1128      -711.66969      0.020950613   -9.1017415e-10  5.9524219e-09  6.3691289      16.547482      20.757956      2187.7442    
       109   0             -146.75335     -410.6318      -260.11284     -260.11287     -711.66969      0.021393211    9.0592589e-10  4.8448983e-09  6.3691289      16.547482      20.757956      2187.7442    
       110   0             -146.75335     -410.6318      -260.11282     -260.1129      -711.66969      0.021544719    3.5792633e-09  2.6651046e-09  6.3691289      16.547482      20.757956      2187.7442    
       111   0             -146.75335     -410.6318      -260.11283     -260.11289     -711.66969      0.021483461    4.1755724e-10  9.2949264e-10  6.3691289      16.547482      20.757956      2187.7442    
       112   0             -146.75335     -410.6318      -260.11285     -260.11287     -711.66969      0.02135591     1.1309829e-10  1.5002277e-10  6.3691289      16.547482      20.757956      2187.7442    
       113   0             -146.75335     -410.6318      -260.11287     -260.11285     -711.66969      0.021234209   -1.7078573e-09 -2.6403004e-10  6.3691289      16.547482      20.757956      2187.7442    
       114   0             -146.75335     -410.6318      -260.11288     -260.11284     -711.66969      0.0212063     -3.0700739e-10 -3.0751492e-10  6.3691289      16.547482      20.757956      2187.7442    
       115   0             -146.75335     -410.6318      -260.11287     -260.11285     -711.66969      0.021246195   -9.3791737e-10 -1.9416255e-10  6.3691289      16.547482      20.757956      2187.7442    
       116   0             -146.75335     -410.6318      -260.11286     -260.11286     -711.66969      0.021318187   -6.7941552e-12  1.9347081e-11  6.3691289      16.547482      20.757956      2187.7442    
       117   0             -146.75335     -410.6318      -260.11285     -260.11287     -711.66969      0.021380817   -6.1275708e-11  8.6279292e-11  6.3691289      16.547482      20.757956      2187.7442    
       118   0             -146.75335     -410.6318      -260.11285     -260.11287     -711.66969      0.021370008    7.8684143e-11  4.7226239e-11  6.3691289      16.547482      20.757956      2187.7442    
       119   0             -146.75335     -410.6318      -260.11285     -260.11286     -711.66969      0.021331139   -4.0444788e-11  2.6305754e-11  6.3691289      16.547482      20.757956      2187.7442    
       120   0             -146.75335     -410.6318      -260.11286     -260.11286     -711.66969      0.021305091    1.5796284e-11  1.7727308e-11  6.3691289      16.547482      20.757956      2187.7442    
       121   0             -146.75335     -410.6318      -260.11286     -260.11286     -711.66969      0.021295573   -1.6116427e-11  1.2818442e-11  6.3691289      16.547482      20.757956      2187.7442    
       122   0             -146.75335     -410.6318      -260.11286     -260.11286     -711.66969      0.021296688   -1.4101556e-13 -1.9208606e-12  6.3691289      16.547482      20.757956      2187.7442    
       123   0             -146.75335     -410.6318      -260.11286     -260.11286     -711.66969      0.021303027   -6.2339042e-12 -1.6494374e-11  6.3691289      16.547482      20.757956      2187.7442    
       124   0             -146.75335     -410.6318      -260.11286     -260.11286     -711.66969      0.021306966    1.7277582e-11 -2.3404137e-11  6.3691289      16.547482      20.757956      2187.7442    
       125   0             -146.75335     -410.6318      -260.11286     -260.11286     -711.66969      0.021309326   -5.9810925e-12  5.3928924e-13  6.3691289      16.547482      20.757956      2187.7442    
       126   0             -146.75335     -410.6318      -260.11286     -260.11286     -711.66969      0.021309697    3.0947199e-12 -1.3614989e-11  6.3691289      16.547482      20.757956      2187.7442    
       127   0             -146.75335     -410.6318      -260.11286     -260.11286     -711.66969      0.021308781   -1.0773081e-11  9.6443211e-12  6.3691289      16.547482      20.757956      2187.7442    
       128   0             -146.75335     -410.6318      -260.11286     -260.11286     -711.66969      0.021307939   -4.7640393e-12 -1.5913162e-11  6.3691289      16.547482      20.757956      2187.7442    
       129   0             -146.75335     -410.6318      -260.11286     -260.11286     -711.66969      0.02130743     4.7005187e-12 -7.3054954e-12  6.3691289      16.547482      20.757956      2187.7442    
       130   0             -146.75335     -410.6318      -260.11286     -260.11286     -711.66969      0.021307385   -9.4010375e-14  3.6492541e-12  6.3691289      16.547482      20.757956      2187.7442    
       131   0             -146.75335     -410.6318      -260.11286     -260.11286     -711.66969      0.021307487    6.3444299e-12  8.2938747e-12  6.3691289      16.547482      20.757956      2187.7442    
       132   0             -146.75335     -410.6318      -260.11286     -260.11286     -711.66969      0.021307574    1.3045845e-11 -1.1786868e-11  6.3691289      16.547482      20.757956      2187.7442    
       133   0             -146.75335     -410.6318      -260.11286     -260.11286     -711.66969      0.021307627    5.2353615e-12 -1.9047264e-11  6.3691289      16.547482      20.757956      2187.7442    
       134   0             -146.75335     -410.6318      -260.11286     -260.11286     -711.66969      0.021307639    1.1601388e-11 -1.5256995e-11  6.3691289      16.547482      20.757956      2187.7442    
       135   0             -146.75335     -410.6318      -260.11286     -260.11286     -711.66969      0.021307632   -3.0591484e-12  1.0551394e-11  6.3691289      16.547482      20.757956      2187.7442    
Loop time of 0.01365 on 1 procs for 35 steps with 96 atoms

0.0% CPU use with 1 MPI tasks x 1 OpenMP threads

Minimization stats:
  Stopping criterion = force tolerance
  Energy initial, next-to-last, final = 
      -146.75334887296  -146.753348893165  -146.753348893165
  Force two-norm initial, final = 0.00046474908 9.5092447e-11
  Force max component initial, final = 7.1576915e-05 2.0512009e-11
  Final line search alpha, max atom move = 1 2.0512009e-11
  Iterations, force evaluations = 35 70

MPI task timing breakdown:
Section |  min time  |  avg time  |  max time  |%varavg| %total
---------------------------------------------------------------
Pair    | 0.012837   | 0.012837   | 0.012837   |   0.0 | 94.04
Neigh   | 0          | 0          | 0          |   0.0 |  0.00
Comm    | 0.000259   | 0.000259   | 0.000259   |   0.0 |  1.90
Output  | 0.000399   | 0.000399   | 0.000399   |   0.0 |  2.92
Modify  | 0          | 0          | 0          |   0.0 |  0.00
Other   |            | 0.000155   |            |       |  1.14

Nlocal:             96 ave          96 max          96 min
Histogram: 1 0 0 0 0 0 0 0 0 0
Nghost:           1310 ave        1310 max        1310 min
Histogram: 1 0 0 0 0 0 0 0 0 0
Neighs:           6144 ave        6144 max        6144 min
Histogram: 1 0 0 0 0 0 0 0 0 0

Total # of neighbors = 6144
Ave neighs/atom = 64
Neighbor list builds = 0
Dangerous builds = 0
OMP_NUM_THREADS environment is not set. Defaulting to 1 thread. (src/comm.cpp:98)
  using 1 OpenMP thread(s) per MPI task
Loaded 1 plugins from F:\Lammps\LAMMPS 64-bit 2Aug2023\plugins

The 'box' command has been removed and will be ignored

Reading restart file ...
  restart file = 2 Aug 2023, LAMMPS = 2 Aug 2023
  restoring atom style atomic from restart
  triclinic box = (0.025435542 0.066083476 0.10483816) to (6.3945645 16.613566 20.862794) with tilt (0 0 0)
  1 by 1 by 1 MPI processor grid
  pair style eam/alloy stores no restart info
  96 atoms
  read_restart CPU = 0.000 seconds
Changing box ...
  triclinic box = (0.025435542 0.066083476 0.10483816) to (6.3945645 16.613566 20.862794) with tilt (1.6547482e-06 0 0)
Neighbor list info ...
  update: every = 1 steps, delay = 0 steps, check = yes
  max neighbors/atom: 2000, page size: 100000
  master list distance cutoff = 8.5
  ghost atom cutoff = 8.5
  1 neighbor lists, perpetual/occasional/extra = 1 0 0
  (1) pair eam/alloy, perpetual
      attributes: half, newton on
      pair build: half/nsq/newton
      stencil: none
      bin: none
Setting up cg style minimization ...
  Unit style    : metal
  Current step  : 100
Per MPI rank memory allocation (min/avg/max) = 4.467 | 4.467 | 4.467 Mbytes
   Step          Temp          PotEng         Press           Pxx            Pyy            Pzz            Pxy            Pxz            Pyz             Lx             Ly             Lz           Volume    
       100   0             -146.75335     -410.63168     -260.10939     -260.11594     -711.66971     -0.00351696    -1.8698699e-06 -5.7802468e-06  6.3691289      16.547482      20.757956      2187.7442    
       101   0             -146.75335     -410.63177     -260.11033     -260.11528     -711.6697      -0.0077609098  -1.7683832e-06 -2.5321315e-06  6.3691289      16.547482      20.757956      2187.7442    
       102   0             -146.75335     -410.63179     -260.11139     -260.1143      -711.66969     -0.01332128    -6.2923238e-07 -4.0385099e-07  6.3691289      16.547482      20.757956      2187.7442    
       103   0             -146.75335     -410.6318      -260.11206     -260.11364     -711.66969     -0.016997166   -2.9561651e-07 -4.658788e-08   6.3691289      16.547482      20.757956      2187.7442    
       104   0             -146.75335     -410.6318      -260.11257     -260.11314     -711.66969     -0.019739474   -2.4779165e-07  5.0611656e-08  6.3691289      16.547482      20.757956      2187.7442    
       105   0             -146.75335     -410.6318      -260.1129      -260.11282     -711.66969     -0.021537036   -1.3968944e-07  4.4348094e-08  6.3691289      16.547482      20.757956      2187.7442    
       106   0             -146.75335     -410.6318      -260.11303     -260.11269     -711.66969     -0.022251967   -7.5872802e-08  2.2639823e-08  6.3691289      16.547482      20.757956      2187.7442    
       107   0             -146.75335     -410.6318      -260.113       -260.11271     -711.66969     -0.022112329   -2.9500835e-08  7.7563152e-09  6.3691289      16.547482      20.757956      2187.7442    
       108   0             -146.75335     -410.6318      -260.11292     -260.1128      -711.66969     -0.021637565   -7.8551016e-09  5.9545466e-09  6.3691289      16.547482      20.757956      2187.7442    
       109   0             -146.75335     -410.6318      -260.11284     -260.11287     -711.66969     -0.021228411    4.5492433e-09  4.8156592e-09  6.3691289      16.547482      20.757956      2187.7442    
       110   0             -146.75335     -410.6318      -260.11282     -260.1129      -711.66969     -0.021088147    1.8324528e-09  2.67151e-09    6.3691289      16.547482      20.757956      2187.7442    
       111   0             -146.75335     -410.6318      -260.11283     -260.11289     -711.66969     -0.02114483     1.6703141e-09  9.4765316e-10  6.3691289      16.547482      20.757956      2187.7442    
       112   0             -146.75335     -410.6318      -260.11285     -260.11287     -711.66969     -0.021262867   -1.1499285e-09  1.6620844e-10  6.3691289      16.547482      20.757956      2187.7442    
       113   0             -146.75335     -410.6318      -260.11287     -260.11285     -711.66969     -0.021375685   -5.0526638e-10 -2.2779667e-10  6.3691289      16.547482      20.757956      2187.7442    
       114   0             -146.75335     -410.6318      -260.11288     -260.11284     -711.66969     -0.021401576   -1.2403119e-09 -3.1558521e-10  6.3691289      16.547482      20.757956      2187.7442    
       115   0             -146.75335     -410.6318      -260.11287     -260.11285     -711.66969     -0.021364594   -2.1849409e-10 -2.1834989e-10  6.3691289      16.547482      20.757956      2187.7442    
       116   0             -146.75335     -410.6318      -260.11286     -260.11286     -711.66969     -0.021297789   -3.4729719e-10  2.3825913e-11  6.3691289      16.547482      20.757956      2187.7442    
       117   0             -146.75335     -410.6318      -260.11285     -260.11287     -711.66969     -0.021239545    1.1699337e-10  7.7791679e-11  6.3691289      16.547482      20.757956      2187.7442    
       118   0             -146.75335     -410.6318      -260.11285     -260.11287     -711.66969     -0.021249592   -4.187527e-11   3.6715498e-11  6.3691289      16.547482      20.757956      2187.7442    
       119   0             -146.75335     -410.6318      -260.11285     -260.11286     -711.66969     -0.0212857      4.5595032e-11  1.7763514e-11  6.3691289      16.547482      20.757956      2187.7442    
       120   0             -146.75335     -410.6318      -260.11286     -260.11286     -711.66969     -0.021309967   -2.952561e-11   2.2974103e-11  6.3691289      16.547482      20.757956      2187.7442    
       121   0             -146.75335     -410.6318      -260.11286     -260.11286     -711.66969     -0.021318856    1.7465603e-11  9.2619275e-12  6.3691289      16.547482      20.757956      2187.7442    
       122   0             -146.75335     -410.6318      -260.11286     -260.11286     -711.66969     -0.021317815   -1.1795761e-11 -5.3166678e-13  6.3691289      16.547482      20.757956      2187.7442    
       123   0             -146.75335     -410.6318      -260.11286     -260.11286     -711.66969     -0.021311903    4.1237524e-12 -2.4035531e-11  6.3691289      16.547482      20.757956      2187.7442    
       124   0             -146.75335     -410.6318      -260.11286     -260.11286     -711.66969     -0.021308219    5.6393521e-12  9.7440483e-13  6.3691289      16.547482      20.757956      2187.7442    
       125   0             -146.75335     -410.6318      -260.11286     -260.11286     -711.66969     -0.021306004   -1.4863802e-12  8.0613896e-12  6.3691289      16.547482      20.757956      2187.7442    
       126   0             -146.75335     -410.6318      -260.11286     -260.11286     -711.66969     -0.021305656   -4.1148595e-12  1.1166908e-11  6.3691289      16.547482      20.757956      2187.7442    
       127   0             -146.75335     -410.6318      -260.11286     -260.11286     -711.66969     -0.021306516    1.1407016e-11  4.0278364e-12  6.3691289      16.547482      20.757956      2187.7442    
       128   0             -146.75335     -410.6318      -260.11286     -260.11286     -711.66969     -0.021307307    5.7168471e-13  3.5342819e-12  6.3691289      16.547482      20.757956      2187.7442    
       129   0             -146.75335     -410.6318      -260.11286     -260.11286     -711.66969     -0.021307785   -7.2286356e-12 -2.3591522e-11  6.3691289      16.547482      20.757956      2187.7442    
       130   0             -146.75335     -410.6318      -260.11286     -260.11286     -711.66969     -0.021307827    1.241191e-12  -4.0386349e-12  6.3691289      16.547482      20.757956      2187.7442    
       131   0             -146.75335     -410.6318      -260.11286     -260.11286     -711.66969     -0.021307731    3.5635014e-12  1.5185216e-11  6.3691289      16.547482      20.757956      2187.7442    
       132   0             -146.75335     -410.6318      -260.11286     -260.11286     -711.66969     -0.02130765     1.1291408e-11 -4.150431e-12   6.3691289      16.547482      20.757956      2187.7442    
       133   0             -146.75335     -410.6318      -260.11286     -260.11286     -711.66969     -0.0213076     -1.0506295e-12  8.0963259e-12  6.3691289      16.547482      20.757956      2187.7442    
       134   0             -146.75335     -410.6318      -260.11286     -260.11286     -711.66969     -0.021307588   -8.5879748e-12  1.5201732e-11  6.3691289      16.547482      20.757956      2187.7442    
       135   0             -146.75335     -410.6318      -260.11286     -260.11286     -711.66969     -0.021307595    9.1164655e-12  1.2716809e-12  6.3691289      16.547482      20.757956      2187.7442    
Loop time of 0.013448 on 1 procs for 35 steps with 96 atoms

116.2% CPU use with 1 MPI tasks x 1 OpenMP threads

Minimization stats:
  Stopping criterion = force tolerance
  Energy initial, next-to-last, final = 
     -146.753348872964  -146.753348893165  -146.753348893165
  Force two-norm initial, final = 0.0004647329 9.4980072e-11
  Force max component initial, final = 7.1657864e-05 2.0508352e-11
  Final line search alpha, max atom move = 1 2.0508352e-11
  Iterations, force evaluations = 35 70

MPI task timing breakdown:
Section |  min time  |  avg time  |  max time  |%varavg| %total
---------------------------------------------------------------
Pair    | 0.012715   | 0.012715   | 0.012715   |   0.0 | 94.55
Neigh   | 0          | 0          | 0          |   0.0 |  0.00
Comm    | 0.000258   | 0.000258   | 0.000258   |   0.0 |  1.92
Output  | 0.000306   | 0.000306   | 0.000306   |   0.0 |  2.28
Modify  | 0          | 0          | 0          |   0.0 |  0.00
Other   |            | 0.000169   |            |       |  1.26

Nlocal:             96 ave          96 max          96 min
Histogram: 1 0 0 0 0 0 0 0 0 0
Nghost:           1310 ave        1310 max        1310 min
Histogram: 1 0 0 0 0 0 0 0 0 0
Neighs:           6144 ave        6144 max        6144 min
Histogram: 1 0 0 0 0 0 0 0 0 0

Total # of neighbors = 6144
Ave neighs/atom = 64
Neighbor list builds = 0
Dangerous builds = 0
=========================================
Components of the Elastic Constant Tensor
=========================================
Elastic Constant C11all = 68.6447117464866 GPa
Elastic Constant C22all = 68.6447117169848 GPa
Elastic Constant C33all = 68.7957710060232 GPa
Elastic Constant C12all = 26.0294844752593 GPa
Elastic Constant C13all = 15.8751337932585 GPa
Elastic Constant C23all = 15.8751338012308 GPa
Elastic Constant C44all = 12.7672941547079 GPa
Elastic Constant C55all = 12.7672941498036 GPa
Elastic Constant C66all = 21.3076134002138 GPa
Elastic Constant C14all = 1.08671079603198e-08 GPa
Elastic Constant C15all = 3.98967542575794e-09 GPa
Elastic Constant C16all = -4.7014184237494e-08 GPa
Elastic Constant C24all = 1.08188093209179e-08 GPa
Elastic Constant C25all = 3.14566558774905e-09 GPa
Elastic Constant C26all = 3.62752263788987e-08 GPa
Elastic Constant C34all = -1.04357516669682e-08 GPa
Elastic Constant C35all = 3.11296677068859e-09 GPa
Elastic Constant C36all = -1.50446668222995e-08 GPa
Elastic Constant C45all = -2.77838769207249e-09 GPa
Elastic Constant C46all = -9.3232248172936e-10 GPa
Elastic Constant C56all = -1.97612348194597e-09 GPa
=========================================
Average properties for a cubic crystal
=========================================
Bulk Modulus = 35.7382998454436 GPa
Shear Modulus 1 = 15.6140672349084 GPa
Shear Modulus 2 = 24.717573733291 GPa
Poisson Ratio = 0.218974717284607
Total wall time: 0:00:00
