LAMMPS (2 Aug 2023 - Update 3)
OMP_NUM_THREADS environment is not set. Defaulting to 1 thread. (src/comm.cpp:98)
  using 1 OpenMP thread(s) per MPI task
Loaded 1 plugins from F:\Lammps\LAMMPS 64-bit 2Aug2023\plugins
Lattice spacing in x,y,z = 3.21 5.5598831 5.241908
Created triclinic box = (0 0 0) to (6.42 16.679649 20.967632) with tilt (0 0 0)
  1 by 1 by 1 MPI processor grid
Created 96 atoms
  using lattice units in triclinic box = (0 0 0) to (6.42 16.679649 20.967632) with tilt (0 0 0)
  create_atoms CPU = 0.000 seconds
Neighbor list info ...
  update: every = 1 steps, delay = 0 steps, check = yes
  max neighbors/atom: 2000, page size: 100000
  master list distance cutoff = 8.5
  ghost atom cutoff = 8.5
  1 neighbor lists, perpetual/occasional/extra = 1 0 0
  (1) pair eam/alloy, perpetual
      attributes: half, newton on
      pair build: half/nsq/newton
      stencil: none
      bin: none
Setting up cg style minimization ...
  Unit style    : metal
  Current step  : 0
WARNING: Energy due to 3 extra global DOFs will be included in minimizer energies
 (src/min.cpp:228)
Per MPI rank memory allocation (min/avg/max) = 4.472 | 4.472 | 4.472 Mbytes
   Step          Temp          PotEng         Press           Pxx            Pyy            Pzz            Pxy            Pxz            Pyz             Lx             Ly             Lz           Volume    
         0   0             -146.56845     -9864.3832     -9673.7539     -9673.7539     -10245.642     -2.4955128e-12  2.5747355e-12 -2.9708486e-13  6.42           16.679649      20.967632      2245.2843    
         1   0             -146.57242     -9756.6247     -9563.4759     -9563.4759     -10142.922     -3.1500093e-12 -9.7670099e-12  2.1029779e-11  6.4193938      16.678074      20.965535      2244.6358    
         2   0             -146.57635     -9647.857      -9452.1746     -9452.1746     -10039.222      1.7562903e-11  7.2530578e-12  1.2881114e-12  6.4187885      16.676502      20.963439      2243.9881    
         3   0             -146.58023     -9538.7815     -9340.2259     -9340.2259     -9935.8925     -6.5910854e-13 -5.0349946e-12  4.2817277e-12  6.4181841      16.674931      20.961342      2243.3411    
         4   0             -146.58406     -9431.1326     -9229.8164     -9229.8164     -9833.765       1.5233264e-11  3.0535929e-12  3.3272265e-11  6.4175806      16.673363      20.959245      2242.6948    
         5   0             -146.58784     -9323.2119     -9119.4704     -9119.4704     -9730.695       7.5469258e-12  2.5586161e-12 -1.8842522e-12  6.416978       16.671798      20.957148      2242.0494    
         6   0             -146.59157     -9216.6124     -9010.1468     -9010.1468     -9629.5435     -9.0222119e-12  1.9046341e-12  2.1754492e-11  6.4163763      16.670235      20.955052      2241.4047    
         7   0             -146.59526     -9109.3171     -8900.4154     -8900.4154     -9527.1203     -1.3395806e-13 -7.3230409e-12 -1.5370448e-11  6.4157757      16.668674      20.952955      2240.7608    
         8   0             -146.5989      -9001.3603     -8789.6154     -8789.6154     -9424.8501      5.6973336e-12  4.5459561e-12 -1.5106867e-11  6.4151759      16.667116      20.950858      2240.1177    
         9   0             -146.60249     -8895.2656     -8681.1149     -8681.1149     -9323.5672      5.7783956e-12  5.1429707e-12  5.8379667e-12  6.4145772      16.66556       20.948761      2239.4755    
        10   0             -146.60603     -8787.8035     -8571.2943     -8571.2943     -9220.8219      2.0458601e-12  2.1451736e-12 -4.0420633e-12  6.4139795      16.664008      20.946665      2238.834     
        11   0             -146.60953     -8680.4544     -8460.9889     -8460.9889     -9119.3854     -1.2040253e-11 -6.8943363e-12  4.4405883e-12  6.4133828      16.662457      20.944568      2238.1934    
        12   0             -146.61298     -8574.1671     -8352.0707     -8352.0707     -9018.36        4.8592137e-12 -4.9883953e-12  8.3968008e-12  6.4127871      16.66091       20.942471      2237.5537    
        13   0             -146.61638     -8469.5129     -8245.1839     -8245.1839     -8918.1711     -1.3518237e-12  7.0175555e-12 -2.7632867e-12  6.4121926      16.659365      20.940374      2236.9148    
        14   0             -146.61974     -8363.3443     -8136.6345     -8136.6345     -8816.7638     -7.6558914e-13 -2.346481e-12   9.7935754e-12  6.4115991      16.657823      20.938278      2236.2768    
        15   0             -146.62304     -8255.4003     -8026.2591     -8026.2591     -8713.6827     -2.2476942e-11  5.6490722e-12  1.7156073e-11  6.4110067      16.656284      20.936181      2235.6397    
        16   0             -146.62631     -8148.9875     -7917.1021     -7917.1021     -8612.7581      1.2495166e-11 -1.750915e-12   4.7752228e-13  6.4104154      16.654748      20.934084      2235.0034    
        17   0             -146.62952     -8044.6833     -7810.2014     -7810.2014     -8513.6471      1.6384666e-11  5.3736531e-12  1.0538331e-11  6.4098253      16.653215      20.931987      2234.3682    
        18   0             -146.63269     -7940.75       -7704.2691     -7704.2691     -8413.7118     -6.9628476e-12  1.6722779e-12 -2.2187544e-11  6.4092364      16.651685      20.92989       2233.7339    
        19   0             -146.63582     -7834.6993     -7595.8697     -7595.8697     -8312.3584      2.2696659e-11 -1.4138739e-12 -1.3640896e-12  6.4086486      16.650158      20.927794      2233.1004    
        20   0             -146.63889     -7728.1906     -7487.3524     -7487.3524     -8209.867      -8.4806671e-12 -5.6969367e-12  2.0616537e-11  6.4080621      16.648634      20.925697      2232.468     
        21   0             -146.64193     -7623.4722     -7379.9272     -7379.9272     -8110.5624     -6.6698923e-12 -3.6064242e-12 -2.4298532e-11  6.4074766      16.647113      20.9236        2231.8364    
        22   0             -146.64491     -7519.5298     -7273.2329     -7273.2329     -8012.1235      4.5342174e-13 -1.6343113e-12 -5.1819627e-13  6.4068926      16.645595      20.921503      2231.2059    
        23   0             -146.64785     -7415.7555     -7167.5484     -7167.5484     -7912.1697     -6.6786437e-12  2.8508837e-12  9.4298461e-12  6.4063099      16.644081      20.919407      2230.5765    
        24   0             -146.65075     -7311.5991     -7061.7158     -7061.7158     -7811.3658      2.8467017e-12  2.2135474e-12 -9.0934919e-12  6.4057284      16.642571      20.91731       2229.9481    
        25   0             -146.6536      -7207.8811     -6955.773      -6955.773      -7712.0974     -1.0622034e-11  1.5160086e-12  9.2057626e-12  6.4051481      16.641063      20.915213      2229.3206    
        26   0             -146.6564      -7103.4914     -6849.0107     -6849.0107     -7612.4527     -6.7092258e-12 -1.085448e-11   3.5915558e-13  6.4045692      16.639559      20.913116      2228.6942    
        27   0             -146.65916     -6999.8613     -6743.1869     -6743.1869     -7513.2102     -8.3078038e-12 -2.2952491e-12 -1.8621456e-11  6.4039917      16.638058      20.91102       2228.0689    
        28   0             -146.66188     -6897.2087     -6638.4493     -6638.4493     -7414.7275      8.3650337e-12  7.7860696e-13  9.8124441e-12  6.4034156      16.636562      20.908923      2227.4447    
        29   0             -146.66455     -6794.1538     -6533.3766     -6533.3766     -7315.7083     -1.2705828e-11 -6.9894536e-13 -1.503731e-11   6.4028409      16.635069      20.906826      2226.8215    
        30   0             -146.66717     -6690.7955     -6428.5986     -6428.5986     -7215.1893      1.1985268e-13  1.0986496e-12 -3.3458873e-12  6.4022677      16.633579      20.904729      2226.1996    
        31   0             -146.66975     -6588.1525     -6323.4725     -6323.4725     -7117.5124     -1.0150358e-11 -4.2159952e-12 -4.4957295e-12  6.4016958      16.632094      20.902633      2225.5786    
        32   0             -146.67229     -6485.7587     -6219.2797     -6219.2797     -7018.7168     -9.2437955e-12  2.2584841e-12 -1.7718108e-11  6.4011256      16.630612      20.900536      2224.9589    
        33   0             -146.67478     -6383.9516     -6115.7681     -6115.7681     -6920.3186      1.3094853e-12 -3.07879e-12    5.5977999e-12  6.4005569      16.629135      20.898439      2224.3404    
        34   0             -146.67723     -6281.9599     -6011.8996     -6011.8996     -6822.0804     -9.3739185e-12  1.0598777e-12  2.0477637e-11  6.3999897      16.627661      20.896342      2223.7231    
        35   0             -146.67964     -6180.3081     -5908.8162     -5908.8162     -6723.2919      4.9908071e-12 -1.8603009e-12 -1.6212622e-11  6.3994241      16.626191      20.894245      2223.107     
        36   0             -146.682       -6078.8898     -5805.5072     -5805.5072     -6625.655       8.4136876e-12  1.4606402e-12 -6.9030255e-13  6.39886        16.624726      20.892149      2222.492     
        37   0             -146.68432     -5977.0717     -5702.0362     -5702.0362     -6527.1429      4.8284488e-12 -1.0287348e-11  1.9794138e-11  6.3982976      16.623265      20.890052      2221.8784    
        38   0             -146.68659     -5875.7368     -5598.8877     -5598.8877     -6429.4351      1.0630521e-11 -1.2412284e-11 -9.6795796e-12  6.397737       16.621808      20.887955      2221.266     
        39   0             -146.68882     -5776.0056     -5497.7079     -5497.7079     -6332.6011     -8.1803438e-12 -1.2876282e-11  1.5990219e-11  6.3971781      16.620356      20.885858      2220.655     
        40   0             -146.69101     -5675.4591     -5396.4061     -5396.4061     -6233.565      -4.6271197e-12 -3.2049314e-13 -1.4151775e-11  6.3966209      16.618909      20.883762      2220.0453    
        41   0             -146.69316     -5575.2197     -5294.5302     -5294.5302     -6136.5988      1.5878778e-12  2.0036313e-14  6.8223645e-12  6.3960654      16.617465      20.881665      2219.4369    
        42   0             -146.69526     -5475.1206     -5192.6784     -5192.6784     -6040.0051     -4.1586724e-12 -4.9703651e-12  1.8498576e-11  6.3955117      16.616027      20.879568      2218.8298    
        43   0             -146.69732     -5375.8019     -5092.0425     -5092.0425     -5943.3205      0             -6.7158342e-12 -1.249947e-11   6.3949599      16.614593      20.877471      2218.2242    
        44   0             -146.69934     -5276.1471     -4991.4893     -4991.4893     -5845.4626     -1.7596269e-12  4.0105456e-13 -5.6949747e-12  6.3944101      16.613165      20.875375      2217.62      
        45   0             -146.70132     -5177.2752     -4891.2519     -4891.2519     -5749.3219     -9.7282172e-13 -9.14653e-12    7.471672e-12   6.3938621      16.611741      20.873278      2217.0173    
        46   0             -146.70326     -5078.4368     -4791.4962     -4791.4962     -5652.318      -4.4440921e-12 -3.1098613e-12 -2.7386843e-11  6.3933162      16.610323      20.871181      2216.416     
        47   0             -146.70515     -4979.7729     -4691.8304     -4691.8304     -5555.6579     -6.3267686e-12 -3.7127746e-12  1.7911629e-11  6.3927722      16.608909      20.869084      2215.8162    
        48   0             -146.70701     -4881.362      -4592.1502     -4592.1502     -5459.7856      2.7050351e-12  5.9219692e-12  1.797669e-11   6.3922303      16.607501      20.866988      2215.218     
        49   0             -146.70882     -4784.1106     -4494.0227     -4494.0227     -5364.2863      6.8773589e-13  1.7670294e-12  4.3171742e-13  6.3916905      16.606099      20.864891      2214.6214    
        50   0             -146.71059     -4685.9172     -4395.3247     -4395.3247     -5267.1021     -6.8089087e-12 -1.4059694e-13  9.6007622e-12  6.391153       16.604702      20.862794      2214.0263    
        51   0             -146.71232     -4588.6275     -4297.6776     -4297.6776     -5170.5274     -1.2933363e-11  0             -1.4555684e-11  6.3906175      16.603311      20.860697      2213.4329    
        52   0             -146.71401     -4491.9531     -4200.2557     -4200.2557     -5075.3477     -5.8630183e-12  1.708163e-12  -5.8278503e-12  6.3900842      16.601926      20.858601      2212.841     
        53   0             -146.71566     -4395.3625     -4102.8641     -4102.8641     -4980.3592     -1.0332118e-11  1.2583474e-11  1.2744285e-11  6.3895531      16.600546      20.856504      2212.2508    
        54   0             -146.71727     -4298.0887     -4005.3573     -4005.3573     -4883.5515      4.0967491e-12  4.0213488e-13 -1.3391092e-11  6.3890245      16.599173      20.854407      2211.6625    
        55   0             -146.71885     -4202.8249     -3909.5978     -3909.5978     -4789.2792      2.2676369e-12  6.8381068e-13 -1.0880635e-11  6.3884983      16.597805      20.85231       2211.0758    
        56   0             -146.72038     -4106.7608     -3813.1767     -3813.1767     -4693.9292      7.026002e-12   3.922893e-12   2.0399044e-11  6.3879745      16.596445      20.850213      2210.491     
        57   0             -146.72187     -4010.8087     -3717.2323     -3717.2323     -4597.9616      1.2144054e-11 -1.0302826e-11 -3.3504307e-12  6.3874533      16.595091      20.848117      2209.908     
        58   0             -146.72332     -3915.4112     -3621.7194     -3621.7194     -4502.7949      1.831648e-12   8.0109439e-12  1.1342128e-11  6.3869346      16.593743      20.84602       2209.3269    
        59   0             -146.72474     -3821.4142     -3527.4731     -3527.4731     -4409.2963      7.5751458e-12  4.1071887e-12  4.0759821e-11  6.3864186      16.592402      20.843923      2208.7477    
        60   0             -146.72611     -3727.2365     -3433.3401     -3433.3401     -4315.0293     -5.4776829e-12 -4.7526955e-12 -1.1076197e-12  6.3859053      16.591069      20.841826      2208.1705    
        61   0             -146.72745     -3632.5188     -3339.157      -3339.157      -4219.2425     -3.7114927e-12 -1.8935159e-12  8.117946e-12   6.3853949      16.589742      20.83973       2207.5954    
        62   0             -146.72875     -3538.7272     -3245.7118     -3245.7118     -4124.7582      1.5464371e-12  7.4349875e-12 -1.3560289e-11  6.3848871      16.588423      20.837633      2207.0223    
        63   0             -146.73001     -3446.399      -3153.616      -3153.616      -4031.965      -5.4517198e-12 -2.4789706e-12 -2.085963e-11   6.3843823      16.587112      20.835536      2206.4513    
        64   0             -146.73124     -3353.4649     -3061.2917     -3061.2917     -3937.8114      1.7488305e-12  5.9470316e-12  2.3445416e-11  6.3838806      16.585808      20.833439      2205.8824    
        65   0             -146.73242     -3260.7499     -2969.3762     -2969.3762     -3843.4972     -9.7092591e-12  2.8633744e-12 -1.8763168e-11  6.3833819      16.584513      20.831343      2205.3158    
        66   0             -146.73358     -3168.9129     -2878.4568     -2878.4568     -3749.8252     -5.4710502e-12 -4.8004053e-12  1.3513746e-11  6.3828863      16.583225      20.829246      2204.7515    
        67   0             -146.73469     -3077.0407     -2787.1701     -2787.1701     -3656.7819      1.2009117e-11 -5.0033786e-12  1.1963724e-11  6.3823938      16.581946      20.827149      2204.1894    
        68   0             -146.73577     -2984.4975     -2695.4973     -2695.4973     -3562.4978      4.0259173e-12 -8.293995e-12  -1.2138292e-11  6.3819049      16.580675      20.825052      2203.6299    
        69   0             -146.73681     -2894.3912     -2606.4731     -2606.4731     -3470.2273     -4.8948961e-13 -1.5946259e-12  5.4499874e-12  6.3814196      16.579414      20.822956      2203.0729    
        70   0             -146.73782     -2805.0553     -2518.5169     -2518.5169     -3378.1322      9.2218828e-12 -5.1283158e-12  2.7822123e-11  6.3809378      16.578163      20.820859      2202.5184    
        71   0             -146.73879     -2714.7801     -2430.0155     -2430.0155     -3284.3092     -8.3356018e-12 -5.9778029e-12 -1.4177087e-11  6.3804596      16.57692       20.818762      2201.9666    
        72   0             -146.73972     -2625.2723     -2341.7622     -2341.7622     -3192.2924     -6.8984089e-12  2.4644389e-12  5.6257888e-12  6.3799851      16.575687      20.816665      2201.4173    
        73   0             -146.74062     -2536.2575     -2254.4775     -2254.4775     -3099.8176     -4.2481714e-12 -2.8287467e-13  3.8390134e-12  6.3795146      16.574465      20.814568      2200.8709    
        74   0             -146.74149     -2447.6978     -2167.7359     -2167.7359     -3007.6215     -1.3288288e-12  6.2652007e-13 -1.5945946e-11  6.3790481      16.573253      20.812472      2200.3274    
        75   0             -146.74232     -2360.1022     -2082.036      -2082.036      -2916.2344      1.5313083e-12 -7.4392269e-12 -1.5767927e-12  6.3785859      16.572052      20.810375      2199.7869    
        76   0             -146.74312     -2272.0819     -1996.6047     -1996.6047     -2823.0363      5.2572599e-13  6.5917951e-12 -3.1907524e-11  6.378128       16.570863      20.808278      2199.2495    
        77   0             -146.74389     -2184.9845     -1911.6905     -1911.6905     -2731.5724     -1.1513164e-11 -2.2854413e-12  1.0415949e-11  6.3776745      16.569684      20.806181      2198.7151    
        78   0             -146.74462     -2099.306      -1828.4857     -1828.4857     -2640.9465     -1.0256625e-11  9.8115646e-12  2.8099512e-11  6.3772257      16.568518      20.804085      2198.1841    
        79   0             -146.74532     -2013.5276     -1745.7404     -1745.7404     -2549.1018      6.3891654e-12 -3.7232191e-12 -7.233972e-12   6.3767817      16.567365      20.801988      2197.6565    
        80   0             -146.74599     -1928.6665     -1663.5011     -1663.5011     -2458.9973     -4.5792353e-12  9.5430252e-12 -6.1731128e-13  6.3763425      16.566224      20.799891      2197.1324    
        81   0             -146.74662     -1844.3897     -1582.2553     -1582.2553     -2368.6587     -6.4276316e-13 -3.6946229e-12  3.1601678e-11  6.3759087      16.565097      20.797794      2196.612     
        82   0             -146.74723     -1760.5943     -1501.9595     -1501.9595     -2277.864       7.8010315e-12  8.9096791e-13 -7.6744736e-12  6.3754804      16.563984      20.795698      2196.0954    
        83   0             -146.7478      -1676.8053     -1421.9737     -1421.9737     -2186.4686     -2.5722578e-12  1.1544779e-12  8.7801084e-12  6.3750576      16.562886      20.793601      2195.5828    
        84   0             -146.74835     -1594.7032     -1343.2583     -1343.2583     -2097.5929     -1.2383125e-11 -5.2672597e-13 -4.1712645e-11  6.3746406      16.561802      20.791504      2195.0742    
        85   0             -146.74886     -1513.2909     -1265.6929     -1265.6929     -2008.4867     -1.3490322e-11  9.7162738e-12 -8.287708e-12   6.3742301      16.560736      20.789407      2194.5701    
        86   0             -146.74935     -1432.2316     -1188.8796     -1188.8796     -1918.9355     -1.7633123e-12  1.1299386e-11  7.0431153e-12  6.3738261      16.559686      20.787311      2194.0706    
        87   0             -146.7498      -1351.5915     -1112.7737     -1112.7737     -1829.2271      3.3094903e-12 -7.6528796e-12 -1.3937364e-11  6.3734289      16.558654      20.785214      2193.5759    
        88   0             -146.75023     -1272.2644     -1037.8558     -1037.8558     -1741.0816      5.0692639e-13 -2.919896e-12   2.0074285e-12  6.3730389      16.557641      20.783117      2193.0862    
        89   0             -146.75063     -1193.6151     -963.99438     -963.99438     -1652.8564     -8.1785283e-12 -3.8940544e-12  3.5695499e-12  6.3726568      16.556648      20.78102       2192.602     
        90   0             -146.751       -1116.3145     -892.01965     -892.01965     -1564.9043      3.0479655e-12  2.8400344e-13 -2.2253698e-11  6.3722829      16.555677      20.778924      2192.1236    
        91   0             -146.75134     -1040.5963     -822.08268     -822.08268     -1477.6236     -2.0036705e-12  3.6319698e-12  1.2884362e-12  6.3719175      16.554727      20.776827      2191.651     
        92   0             -146.75166     -965.40865     -752.81968     -752.81968     -1390.5866     -3.6276693e-12 -5.7230923e-12  3.0888462e-11  6.3715609      16.553801      20.77473       2191.1846    
        93   0             -146.75195     -890.43872     -684.17465     -684.17465     -1302.9669      1.1468886e-12  2.8925951e-12 -4.1003804e-12  6.371214       16.552899      20.772633      2190.7248    
        94   0             -146.75222     -816.80927     -617.40777     -617.40777     -1215.6123     -1.5486195e-11 -1.0121099e-11  2.2932359e-11  6.3708774      16.552025      20.770536      2190.2722    
        95   0             -146.75246     -745.76228     -553.12718     -553.12718     -1131.0325      9.1230237e-12  2.193181e-12  -2.2287186e-11  6.3705519      16.551179      20.76844       2189.8274    
        96   0             -146.75269     -675.71114     -490.41582     -490.41582     -1046.3018      7.3222165e-12 -6.7027225e-13 -7.647197e-12   6.3702385      16.550365      20.766343      2189.3908    
        97   0             -146.75288     -606.83068     -429.2916      -429.2916      -961.90884     -1.4850445e-11  1.4169885e-11  2.4408769e-11  6.3699382      16.549585      20.764246      2188.9634    
        98   0             -146.75306     -539.71267     -370.38405     -370.38405     -878.36991     -6.5732363e-12 -6.0957369e-14 -3.1636874e-11  6.3696522      16.548842      20.762149      2188.5458    
        99   0             -146.75321     -474.0867      -313.88249     -313.88249     -794.49512      4.1966787e-12  5.0705633e-12 -1.4632487e-12  6.369382       16.54814       20.760053      2188.1391    
       100   0             -146.75335     -410.6318      -260.11286     -260.11286     -711.66969     -1.4889211e-12 -5.3662138e-12  2.2664123e-11  6.3691289      16.547482      20.757956      2187.7442    
Loop time of 0.023146 on 1 procs for 100 steps with 96 atoms

135.0% CPU use with 1 MPI tasks x 1 OpenMP threads

Minimization stats:
  Stopping criterion = max iterations
  Energy initial, next-to-last, final = 
     -146.568450621862  -146.753213887664  -146.753348893176
  Force two-norm initial, final = 23.952655 1.1044762
  Force max component initial, final = 14.358205 0.98158851
  Final line search alpha, max atom move = 9.1247978e-05 8.9567967e-05
  Iterations, force evaluations = 100 100

MPI task timing breakdown:
Section |  min time  |  avg time  |  max time  |%varavg| %total
---------------------------------------------------------------
Pair    | 0.017983   | 0.017983   | 0.017983   |   0.0 | 77.69
Neigh   | 0          | 0          | 0          |   0.0 |  0.00
Comm    | 0.000409   | 0.000409   | 0.000409   |   0.0 |  1.77
Output  | 0.00095    | 0.00095    | 0.00095    |   0.0 |  4.10
Modify  | 0          | 0          | 0          |   0.0 |  0.00
Other   |            | 0.003804   |            |       | 16.43

Nlocal:             96 ave          96 max          96 min
Histogram: 1 0 0 0 0 0 0 0 0 0
Nghost:           1310 ave        1310 max        1310 min
Histogram: 1 0 0 0 0 0 0 0 0 0
Neighs:           6144 ave        6144 max        6144 min
Histogram: 1 0 0 0 0 0 0 0 0 0

Total # of neighbors = 6144
Ave neighs/atom = 64
Neighbor list builds = 0
Dangerous builds = 0
Displacing atoms ...
System init for write_restart ...
OMP_NUM_THREADS environment is not set. Defaulting to 1 thread. (src/comm.cpp:98)
  using 1 OpenMP thread(s) per MPI task
Loaded 1 plugins from F:\Lammps\LAMMPS 64-bit 2Aug2023\plugins

The 'box' command has been removed and will be ignored

Reading restart file ...
  restart file = 2 Aug 2023, LAMMPS = 2 Aug 2023
  restoring atom style atomic from restart
  triclinic box = (0.025435542 0.066083476 0.10483816) to (6.3945645 16.613566 20.862794) with tilt (0 0 0)
  1 by 1 by 1 MPI processor grid
  pair style eam/alloy stores no restart info
  96 atoms
  read_restart CPU = 0.000 seconds
Changing box ...
  triclinic box = (0.025435542 0.066083476 0.10483816) to (6.3945644 16.613566 20.862794) with tilt (0 0 0)
  triclinic box = (0.025435542 0.066083476 0.10483816) to (6.3945644 16.613566 20.862794) with tilt (0 0 0)
  triclinic box = (0.025435542 0.066083476 0.10483816) to (6.3945644 16.613566 20.862794) with tilt (0 0 0)
Neighbor list info ...
  update: every = 1 steps, delay = 0 steps, check = yes
  max neighbors/atom: 2000, page size: 100000
  master list distance cutoff = 8.5
  ghost atom cutoff = 8.5
  1 neighbor lists, perpetual/occasional/extra = 1 0 0
  (1) pair eam/alloy, perpetual
      attributes: half, newton on
      pair build: half/nsq/newton
      stencil: none
      bin: none
Setting up cg style minimization ...
  Unit style    : metal
  Current step  : 100
Per MPI rank memory allocation (min/avg/max) = 4.467 | 4.467 | 4.467 Mbytes
   Step          Temp          PotEng         Press           Pxx            Pyy            Pzz            Pxy            Pxz            Pyz             Lx             Ly             Lz           Volume    
       100   0             -146.75335     -410.62799     -260.10245     -260.11341     -711.66812      0.018568732   -1.870434e-06  -5.7688093e-06  6.3691289      16.547482      20.757956      2187.7442    
       101   0             -146.75335     -410.62808     -260.10341     -260.11273     -711.66811      0.014139286   -1.7732289e-06 -2.5325484e-06  6.3691289      16.547482      20.757956      2187.7442    
       102   0             -146.75335     -410.62811     -260.10449     -260.11173     -711.66811      0.0083347474  -6.2193407e-07 -4.0319722e-07  6.3691289      16.547482      20.757956      2187.7442    
       103   0             -146.75335     -410.62811     -260.10518     -260.11105     -711.66811      0.0044971816  -3.0016115e-07 -4.6898214e-08  6.3691289      16.547482      20.757956      2187.7442    
       104   0             -146.75335     -410.62812     -260.1057      -260.11055     -711.66811      0.0016349602  -2.4392931e-07  5.1020614e-08  6.3691289      16.547482      20.757956      2187.7442    
       105   0             -146.75335     -410.62812     -260.10603     -260.11021     -711.66811     -0.00023903123 -1.4294927e-07  4.4032782e-08  6.3691289      16.547482      20.757956      2187.7442    
       106   0             -146.75335     -410.62812     -260.10617     -260.11008     -711.66811     -0.00098360516 -7.1830439e-08  2.3062075e-08  6.3691289      16.547482      20.757956      2187.7442    
       107   0             -146.75335     -410.62812     -260.10614     -260.11011     -711.66811     -0.00083814034 -3.3931014e-08  7.3048641e-09  6.3691289      16.547482      20.757956      2187.7442    
       108   0             -146.75335     -410.62812     -260.10606     -260.11019     -711.66811     -0.00034350803 -4.3861468e-09  6.322638e-09   6.3691289      16.547482      20.757956      2187.7442    
       109   0             -146.75335     -410.62812     -260.10598     -260.11027     -711.66811      8.2412539e-05  2.7278813e-09  4.6313189e-09  6.3691289      16.547482      20.757956      2187.7442    
       110   0             -146.75335     -410.62812     -260.10595     -260.1103      -711.66811      0.00022831661  2.7159839e-09  2.7321435e-09  6.3691289      16.547482      20.757956      2187.7442    
       111   0             -146.75335     -410.62812     -260.10596     -260.11029     -711.66811      0.0001693368   1.0485727e-09  8.3791257e-10  6.3691289      16.547482      20.757956      2187.7442    
       112   0             -146.75335     -410.62812     -260.10599     -260.11026     -711.66811      4.6527429e-05 -5.303697e-10   2.2686482e-10  6.3691289      16.547482      20.757956      2187.7442    
       113   0             -146.75335     -410.62812     -260.10601     -260.11024     -711.66811     -7.0750619e-05 -1.1199126e-09 -3.1071572e-10  6.3691289      16.547482      20.757956      2187.7442    
       114   0             -146.75335     -410.62812     -260.10601     -260.11024     -711.66811     -9.7654718e-05 -7.7240195e-10 -2.566515e-10   6.3691289      16.547482      20.757956      2187.7442    
       115   0             -146.75335     -410.62812     -260.106       -260.11025     -711.66811     -5.9209378e-05 -5.7527744e-10 -2.3799298e-10  6.3691289      16.547482      20.757956      2187.7442    
       116   0             -146.75335     -410.62812     -260.10599     -260.11026     -711.66811      1.0202054e-05 -1.7632789e-10  2.796237e-11   6.3691289      16.547482      20.757956      2187.7442    
       117   0             -146.75335     -410.62812     -260.10598     -260.11027     -711.66811      7.0651315e-05  1.9820944e-11  7.6812829e-11  6.3691289      16.547482      20.757956      2187.7442    
       118   0             -146.75335     -410.62812     -260.10598     -260.11027     -711.66811      6.0220755e-05  1.9723123e-11  6.2884048e-11  6.3691289      16.547482      20.757956      2187.7442    
       119   0             -146.75335     -410.62812     -260.10599     -260.11026     -711.66811      2.2724593e-05  8.5968677e-12  2.6240964e-11  6.3691289      16.547482      20.757956      2187.7442    
       120   0             -146.75335     -410.62812     -260.10599     -260.11026     -711.66811     -2.4385578e-06 -1.2475431e-12 -3.7032465e-13  6.3691289      16.547482      20.757956      2187.7442    
       121   0             -146.75335     -410.62812     -260.106       -260.11025     -711.66811     -1.1645016e-05  1.0900122e-12 -1.7515784e-11  6.3691289      16.547482      20.757956      2187.7442    
       122   0             -146.75335     -410.62812     -260.106       -260.11025     -711.66811     -1.0566164e-05  2.9981687e-13 -1.6151364e-11  6.3691289      16.547482      20.757956      2187.7442    
       123   0             -146.75335     -410.62812     -260.10599     -260.11025     -711.66811     -4.439166e-06   3.2890927e-12 -4.8408991e-12  6.3691289      16.547482      20.757956      2187.7442    
       124   0             -146.75335     -410.62812     -260.10599     -260.11026     -711.66811     -6.2659028e-07 -3.3335571e-12 -4.5004291e-12  6.3691289      16.547482      20.757956      2187.7442    
       125   0             -146.75335     -410.62812     -260.10599     -260.11026     -711.66811      1.6618708e-06  8.3847092e-13 -2.8006199e-12  6.3691289      16.547482      20.757956      2187.7442    
       126   0             -146.75335     -410.62812     -260.10599     -260.11026     -711.66811      2.0213173e-06  7.4141156e-12 -3.7286548e-12  6.3691289      16.547482      20.757956      2187.7442    
       127   0             -146.75335     -410.62812     -260.10599     -260.11026     -711.66811      1.1327209e-06 -2.5268464e-12 -1.1922802e-11  6.3691289      16.547482      20.757956      2187.7442    
       128   0             -146.75335     -410.62812     -260.10599     -260.11026     -711.66811      3.1603159e-07 -6.2986952e-12 -3.5184018e-12  6.3691289      16.547482      20.757956      2187.7442    
       129   0             -146.75335     -410.62812     -260.10599     -260.11026     -711.66811     -1.7777622e-07 -2.8355562e-12 -1.1808465e-12  6.3691289      16.547482      20.757956      2187.7442    
       130   0             -146.75335     -410.62812     -260.10599     -260.11026     -711.66811     -2.2091787e-07 -2.3210399e-12 -5.7327273e-12  6.3691289      16.547482      20.757956      2187.7442    
       131   0             -146.75335     -410.62812     -260.10599     -260.11026     -711.66811     -1.2213389e-07 -2.9219441e-14 -1.7625675e-11  6.3691289      16.547482      20.757956      2187.7442    
       132   0             -146.75335     -410.62812     -260.10599     -260.11026     -711.66811     -3.7943645e-08  3.8938081e-12 -1.0273174e-11  6.3691289      16.547482      20.757956      2187.7442    
       133   0             -146.75335     -410.62812     -260.10599     -260.11026     -711.66811      1.369832e-08  -7.7406111e-12  1.1065275e-11  6.3691289      16.547482      20.757956      2187.7442    
       134   0             -146.75335     -410.62812     -260.10599     -260.11026     -711.66811      2.574621e-08  -9.9943192e-12 -5.5961582e-12  6.3691289      16.547482      20.757956      2187.7442    
       135   0             -146.75335     -410.62812     -260.10599     -260.11026     -711.66811      1.8703123e-08 -4.0564207e-12 -1.4584948e-11  6.3691289      16.547482      20.757956      2187.7442    
Loop time of 0.014546 on 1 procs for 35 steps with 96 atoms

107.4% CPU use with 1 MPI tasks x 1 OpenMP threads

Minimization stats:
  Stopping criterion = force tolerance
  Energy initial, next-to-last, final = 
     -146.753348876515  -146.753348896718  -146.753348896719
  Force two-norm initial, final = 0.00046474102 9.5045594e-11
  Force max component initial, final = 7.1617401e-05 2.0505986e-11
  Final line search alpha, max atom move = 1 2.0505986e-11
  Iterations, force evaluations = 35 70

MPI task timing breakdown:
Section |  min time  |  avg time  |  max time  |%varavg| %total
---------------------------------------------------------------
Pair    | 0.01373    | 0.01373    | 0.01373    |   0.0 | 94.39
Neigh   | 0          | 0          | 0          |   0.0 |  0.00
Comm    | 0.000281   | 0.000281   | 0.000281   |   0.0 |  1.93
Output  | 0.000341   | 0.000341   | 0.000341   |   0.0 |  2.34
Modify  | 0          | 0          | 0          |   0.0 |  0.00
Other   |            | 0.000194   |            |       |  1.33

Nlocal:             96 ave          96 max          96 min
Histogram: 1 0 0 0 0 0 0 0 0 0
Nghost:           1310 ave        1310 max        1310 min
Histogram: 1 0 0 0 0 0 0 0 0 0
Neighs:           6144 ave        6144 max        6144 min
Histogram: 1 0 0 0 0 0 0 0 0 0

Total # of neighbors = 6144
Ave neighs/atom = 64
Neighbor list builds = 0
Dangerous builds = 0
OMP_NUM_THREADS environment is not set. Defaulting to 1 thread. (src/comm.cpp:98)
  using 1 OpenMP thread(s) per MPI task
Loaded 1 plugins from F:\Lammps\LAMMPS 64-bit 2Aug2023\plugins

The 'box' command has been removed and will be ignored

Reading restart file ...
  restart file = 2 Aug 2023, LAMMPS = 2 Aug 2023
  restoring atom style atomic from restart
  triclinic box = (0.025435542 0.066083476 0.10483816) to (6.3945645 16.613566 20.862794) with tilt (0 0 0)
  1 by 1 by 1 MPI processor grid
  pair style eam/alloy stores no restart info
  96 atoms
  read_restart CPU = 0.000 seconds
Changing box ...
  triclinic box = (0.025435542 0.066083476 0.10483816) to (6.3945645 16.613566 20.862794) with tilt (0 0 0)
  triclinic box = (0.025435542 0.066083476 0.10483816) to (6.3945645 16.613566 20.862794) with tilt (0 0 0)
  triclinic box = (0.025435542 0.066083476 0.10483816) to (6.3945645 16.613566 20.862794) with tilt (0 0 0)
Neighbor list info ...
  update: every = 1 steps, delay = 0 steps, check = yes
  max neighbors/atom: 2000, page size: 100000
  master list distance cutoff = 8.5
  ghost atom cutoff = 8.5
  1 neighbor lists, perpetual/occasional/extra = 1 0 0
  (1) pair eam/alloy, perpetual
      attributes: half, newton on
      pair build: half/nsq/newton
      stencil: none
      bin: none
Setting up cg style minimization ...
  Unit style    : metal
  Current step  : 100
Per MPI rank memory allocation (min/avg/max) = 4.467 | 4.467 | 4.467 Mbytes
   Step          Temp          PotEng         Press           Pxx            Pyy            Pzz            Pxy            Pxz            Pyz             Lx             Ly             Lz           Volume    
       100   0             -146.75335     -410.63536     -260.11633     -260.11846     -711.67129      0.018568837   -1.8658834e-06 -5.7691362e-06  6.369129       16.547482      20.757956      2187.7443    
       101   0             -146.75335     -410.63545     -260.11725     -260.11782     -711.67128      0.014139378   -1.7732214e-06 -2.5315909e-06  6.369129       16.547482      20.757956      2187.7443    
       102   0             -146.75335     -410.63548     -260.11829     -260.11687     -711.67128      0.0083348537  -6.2193484e-07 -4.0466716e-07  6.369129       16.547482      20.757956      2187.7443    
       103   0             -146.75335     -410.63548     -260.11895     -260.11622     -711.67128      0.0044972974  -3.001677e-07  -4.6004899e-08  6.369129       16.547482      20.757956      2187.7443    
       104   0             -146.75335     -410.63548     -260.11944     -260.11574     -711.67128      0.0016350521  -2.4393806e-07  5.0246668e-08  6.369129       16.547482      20.757956      2187.7443    
       105   0             -146.75335     -410.63549     -260.11976     -260.11542     -711.67128     -0.00023903666 -1.4296056e-07  4.4706635e-08  6.369129       16.547482      20.757956      2187.7443    
       106   0             -146.75335     -410.63549     -260.11989     -260.11529     -711.67128     -0.00098368312 -7.1826146e-08  2.2263272e-08  6.369129       16.547482      20.757956      2187.7443    
       107   0             -146.75335     -410.63549     -260.11986     -260.11532     -711.67128     -0.00083821464 -3.393462e-08   8.1987743e-09  6.369129       16.547482      20.757956      2187.7443    
       108   0             -146.75335     -410.63549     -260.11978     -260.1154      -711.67128     -0.00034354855 -4.3918051e-09  5.641318e-09   6.369129       16.547482      20.757956      2187.7443    
       109   0             -146.75335     -410.63549     -260.11971     -260.11548     -711.67128      8.2418007e-05  2.7278406e-09  5.0275173e-09  6.369129       16.547482      20.757956      2187.7443    
       110   0             -146.75335     -410.63549     -260.11968     -260.1155      -711.67128      0.0002283443   2.7093968e-09  2.5863893e-09  6.369129       16.547482      20.757956      2187.7443    
       111   0             -146.75335     -410.63549     -260.11969     -260.11549     -711.67128      0.00016936053  1.04452e-09    9.8955065e-10  6.369129       16.547482      20.757956      2187.7443    
       112   0             -146.75335     -410.63549     -260.11972     -260.11547     -711.67128      4.6536799e-05 -5.2156701e-10  1.1366743e-10  6.369129       16.547482      20.757956      2187.7443    
       113   0             -146.75335     -410.63549     -260.11974     -260.11545     -711.67128     -7.0760434e-05 -1.1185812e-09 -1.9912541e-10  6.369129       16.547482      20.757956      2187.7443    
       114   0             -146.75335     -410.63549     -260.11974     -260.11544     -711.67128     -9.7670608e-05 -7.7084695e-10 -3.2796027e-10  6.369129       16.547482      20.757956      2187.7443    
       115   0             -146.75335     -410.63549     -260.11973     -260.11545     -711.67128     -5.9220524e-05 -5.7203534e-10 -1.5900521e-10  6.369129       16.547482      20.757956      2187.7443    
       116   0             -146.75335     -410.63549     -260.11972     -260.11546     -711.67128      1.0202196e-05 -1.8299627e-10 -6.3393482e-13  6.369129       16.547482      20.757956      2187.7443    
       117   0             -146.75335     -410.63549     -260.11971     -260.11547     -711.67128      7.0665254e-05  1.7385567e-11  7.4594691e-11  6.369129       16.547482      20.757956      2187.7443    
       118   0             -146.75335     -410.63549     -260.11971     -260.11547     -711.67128      6.0233702e-05  1.2638043e-11  4.3925077e-11  6.369129       16.547482      20.757956      2187.7443    
       119   0             -146.75335     -410.63549     -260.11972     -260.11547     -711.67128      2.2730707e-05  4.3320997e-12  4.4422442e-11  6.369129       16.547482      20.757956      2187.7443    
       120   0             -146.75335     -410.63549     -260.11972     -260.11546     -711.67128     -2.4387388e-06 -1.7760338e-12  8.7937812e-12  6.369129       16.547482      20.757956      2187.7443    
       121   0             -146.75335     -410.63549     -260.11973     -260.11546     -711.67128     -1.1648178e-05  3.6816495e-12  5.3624025e-12  6.369129       16.547482      20.757956      2187.7443    
       122   0             -146.75335     -410.63549     -260.11972     -260.11546     -711.67128     -1.0569232e-05 -1.8929116e-13 -1.1878973e-11  6.369129       16.547482      20.757956      2187.7443    
       123   0             -146.75335     -410.63549     -260.11972     -260.11546     -711.67128     -4.4407002e-06  6.0801844e-12  1.18993e-11    6.369129       16.547482      20.757956      2187.7443    
       124   0             -146.75335     -410.63549     -260.11972     -260.11546     -711.67128     -6.26941e-07    2.9130512e-12 -4.3657655e-12  6.369129       16.547482      20.757956      2187.7443    
       125   0             -146.75335     -410.63549     -260.11972     -260.11546     -711.67128      1.6624366e-06  2.9257553e-12  4.6204828e-12  6.369129       16.547482      20.757956      2187.7443    
       126   0             -146.75335     -410.63549     -260.11972     -260.11546     -711.67128      2.022098e-06   5.7511481e-12 -1.5670513e-11  6.369129       16.547482      20.757956      2187.7443    
       127   0             -146.75335     -410.63549     -260.11972     -260.11546     -711.67128      1.1332325e-06 -3.0388218e-12  2.9200384e-12  6.369129       16.547482      20.757956      2187.7443    
       128   0             -146.75335     -410.63549     -260.11972     -260.11546     -711.67128      3.1620696e-07  1.8547993e-13 -3.3360979e-12  6.369129       16.547482      20.757956      2187.7443    
       129   0             -146.75335     -410.63549     -260.11972     -260.11546     -711.67128     -1.7783195e-07 -6.5095832e-12  1.3325335e-11  6.369129       16.547482      20.757956      2187.7443    
       130   0             -146.75335     -410.63549     -260.11972     -260.11546     -711.67128     -2.2101001e-07  9.1850676e-13  5.0905347e-12  6.369129       16.547482      20.757956      2187.7443    
       131   0             -146.75335     -410.63549     -260.11972     -260.11546     -711.67128     -1.2218782e-07  5.2607697e-12 -3.8277467e-12  6.369129       16.547482      20.757956      2187.7443    
       132   0             -146.75335     -410.63549     -260.11972     -260.11546     -711.67128     -3.7952316e-08 -8.6832555e-12 -8.7270846e-12  6.369129       16.547482      20.757956      2187.7443    
       133   0             -146.75335     -410.63549     -260.11972     -260.11546     -711.67128      1.3707055e-08  6.5451547e-12  2.0083284e-11  6.369129       16.547482      20.757956      2187.7443    
       134   0             -146.75335     -410.63549     -260.11972     -260.11546     -711.67128      2.5763373e-08  3.1010719e-12  7.4960569e-12  6.369129       16.547482      20.757956      2187.7443    
       135   0             -146.75335     -410.63549     -260.11972     -260.11546     -711.67128      1.8709612e-08 -1.23179e-11   -1.0512647e-12  6.369129       16.547482      20.757956      2187.7443    
Loop time of 0.013668 on 1 procs for 35 steps with 96 atoms

114.3% CPU use with 1 MPI tasks x 1 OpenMP threads

Minimization stats:
  Stopping criterion = force tolerance
  Energy initial, next-to-last, final = 
     -146.753348869413  -146.753348889615  -146.753348889614
  Force two-norm initial, final = 0.00046474063 9.5034805e-11
  Force max component initial, final = 7.1617378e-05 2.0509615e-11
  Final line search alpha, max atom move = 1 2.0509615e-11
  Iterations, force evaluations = 35 70

MPI task timing breakdown:
Section |  min time  |  avg time  |  max time  |%varavg| %total
---------------------------------------------------------------
Pair    | 0.012914   | 0.012914   | 0.012914   |   0.0 | 94.48
Neigh   | 0          | 0          | 0          |   0.0 |  0.00
Comm    | 0.000244   | 0.000244   | 0.000244   |   0.0 |  1.79
Output  | 0.000321   | 0.000321   | 0.000321   |   0.0 |  2.35
Modify  | 0          | 0          | 0          |   0.0 |  0.00
Other   |            | 0.000189   |            |       |  1.38

Nlocal:             96 ave          96 max          96 min
Histogram: 1 0 0 0 0 0 0 0 0 0
Nghost:           1310 ave        1310 max        1310 min
Histogram: 1 0 0 0 0 0 0 0 0 0
Neighs:           6144 ave        6144 max        6144 min
Histogram: 1 0 0 0 0 0 0 0 0 0

Total # of neighbors = 6144
Ave neighs/atom = 64
Neighbor list builds = 0
Dangerous builds = 0
OMP_NUM_THREADS environment is not set. Defaulting to 1 thread. (src/comm.cpp:98)
  using 1 OpenMP thread(s) per MPI task
Loaded 1 plugins from F:\Lammps\LAMMPS 64-bit 2Aug2023\plugins

The 'box' command has been removed and will be ignored

Reading restart file ...
  restart file = 2 Aug 2023, LAMMPS = 2 Aug 2023
  restoring atom style atomic from restart
  triclinic box = (0.025435542 0.066083476 0.10483816) to (6.3945645 16.613566 20.862794) with tilt (0 0 0)
  1 by 1 by 1 MPI processor grid
  pair style eam/alloy stores no restart info
  96 atoms
  read_restart CPU = 0.000 seconds
Changing box ...
  triclinic box = (0.025435542 0.066083476 0.10483816) to (6.3945645 16.613566 20.862794) with tilt (0 0 0)
  triclinic box = (0.025435542 0.066083476 0.10483816) to (6.3945645 16.613566 20.862794) with tilt (0 0 0)
Neighbor list info ...
  update: every = 1 steps, delay = 0 steps, check = yes
  max neighbors/atom: 2000, page size: 100000
  master list distance cutoff = 8.5
  ghost atom cutoff = 8.5
  1 neighbor lists, perpetual/occasional/extra = 1 0 0
  (1) pair eam/alloy, perpetual
      attributes: half, newton on
      pair build: half/nsq/newton
      stencil: none
      bin: none
Setting up cg style minimization ...
  Unit style    : metal
  Current step  : 100
Per MPI rank memory allocation (min/avg/max) = 4.467 | 4.467 | 4.467 Mbytes
   Step          Temp          PotEng         Press           Pxx            Pyy            Pzz            Pxy            Pxz            Pyz             Lx             Ly             Lz           Volume    
       100   0             -146.75335     -410.62799     -260.10686     -260.10899     -711.66812      0.018568766   -1.8669797e-06 -5.7704045e-06  6.3691289      16.547482      20.757956      2187.7442    
       101   0             -146.75335     -410.62808     -260.10779     -260.10835     -711.66811      0.014139323   -1.7732342e-06 -2.5316178e-06  6.3691289      16.547482      20.757956      2187.7442    
       102   0             -146.75335     -410.62811     -260.10882     -260.1074      -711.66811      0.0083348093  -6.2193726e-07 -4.0466417e-07  6.3691289      16.547482      20.757956      2187.7442    
       103   0             -146.75335     -410.62811     -260.10948     -260.10676     -711.66811      0.0044972656  -3.0016636e-07 -4.5993063e-08  6.3691289      16.547482      20.757956      2187.7442    
       104   0             -146.75335     -410.62812     -260.10997     -260.10627     -711.66811      0.0016350339  -2.4393124e-07  5.0227975e-08  6.3691289      16.547482      20.757956      2187.7442    
       105   0             -146.75335     -410.62812     -260.11029     -260.10595     -711.66811     -0.00023904259 -1.4295811e-07  4.469943e-08   6.3691289      16.547482      20.757956      2187.7442    
       106   0             -146.75335     -410.62812     -260.11042     -260.10583     -711.66811     -0.00098367988 -7.1831824e-08  2.2241269e-08  6.3691289      16.547482      20.757956      2187.7442    
       107   0             -146.75335     -410.62812     -260.1104      -260.10585     -711.66811     -0.00083820771 -3.3927031e-08  8.1948451e-09  6.3691289      16.547482      20.757956      2187.7442    
       108   0             -146.75335     -410.62812     -260.11031     -260.10594     -711.66811     -0.00034354278 -4.3948123e-09  5.6093317e-09  6.3691289      16.547482      20.757956      2187.7442    
       109   0             -146.75335     -410.62812     -260.11024     -260.10601     -711.66811      8.2420138e-05  2.733203e-09   4.9893409e-09  6.3691289      16.547482      20.757956      2187.7442    
       110   0             -146.75335     -410.62812     -260.11022     -260.10603     -711.66811      0.00022834348  2.7077745e-09  2.5731599e-09  6.3691289      16.547482      20.757956      2187.7442    
       111   0             -146.75335     -410.62812     -260.11023     -260.10602     -711.66811      0.00016935809  1.0491571e-09  9.857928e-10   6.3691289      16.547482      20.757956      2187.7442    
       112   0             -146.75335     -410.62812     -260.11025     -260.106       -711.66811      4.6534722e-05 -5.3302104e-10  1.0593064e-10  6.3691289      16.547482      20.757956      2187.7442    
       113   0             -146.75335     -410.62812     -260.11027     -260.10598     -711.66811     -7.0760867e-05 -1.1116625e-09 -2.1287252e-10  6.3691289      16.547482      20.757956      2187.7442    
       114   0             -146.75335     -410.62812     -260.11027     -260.10598     -711.66811     -9.7669789e-05 -7.6572467e-10 -3.3881848e-10  6.3691289      16.547482      20.757956      2187.7442    
       115   0             -146.75335     -410.62812     -260.11027     -260.10598     -711.66811     -5.9219247e-05 -5.798217e-10  -1.463894e-10   6.3691289      16.547482      20.757956      2187.7442    
       116   0             -146.75335     -410.62812     -260.11025     -260.106       -711.66811      1.0203427e-05 -1.7888904e-10 -1.2021894e-11  6.3691289      16.547482      20.757956      2187.7442    
       117   0             -146.75335     -410.62812     -260.11024     -260.10601     -711.66811      7.0665107e-05  1.7308072e-11  1.3387014e-10  6.3691289      16.547482      20.757956      2187.7442    
       118   0             -146.75335     -410.62812     -260.11025     -260.106       -711.66811      6.0232875e-05  1.4345475e-11  6.4244023e-11  6.3691289      16.547482      20.757956      2187.7442    
       119   0             -146.75335     -410.62812     -260.11025     -260.106       -711.66811      2.2729998e-05  3.348802e-12   3.4829574e-11  6.3691289      16.547482      20.757956      2187.7442    
       120   0             -146.75335     -410.62812     -260.11026     -260.10599     -711.66811     -2.4390966e-06 -1.018107e-11  -2.9708549e-12  6.3691289      16.547482      20.757956      2187.7442    
       121   0             -146.75335     -410.62812     -260.11026     -260.10599     -711.66811     -1.1648194e-05  3.6232107e-12  5.629824e-12   6.3691289      16.547482      20.757956      2187.7442    
       122   0             -146.75335     -410.62812     -260.11026     -260.10599     -711.66811     -1.0569074e-05 -8.9017662e-12 -2.7942679e-12  6.3691289      16.547482      20.757956      2187.7442    
       123   0             -146.75335     -410.62812     -260.11026     -260.10599     -711.66811     -4.4405713e-06  4.7919883e-12  6.8805432e-12  6.3691289      16.547482      20.757956      2187.7442    
       124   0             -146.75335     -410.62812     -260.11026     -260.10599     -711.66811     -6.2684582e-07  1.0671448e-13 -1.1343495e-11  6.3691289      16.547482      20.757956      2187.7442    
       125   0             -146.75335     -410.62812     -260.11026     -260.10599     -711.66811      1.6624583e-06  1.1830062e-11 -4.6122252e-12  6.3691289      16.547482      20.757956      2187.7442    
       126   0             -146.75335     -410.62812     -260.11026     -260.10599     -711.66811      2.0220593e-06 -6.6772775e-12  8.2684666e-12  6.3691289      16.547482      20.757956      2187.7442    
       127   0             -146.75335     -410.62812     -260.11026     -260.10599     -711.66811      1.1331659e-06  1.1340954e-11 -8.9563939e-14  6.3691289      16.547482      20.757956      2187.7442    
       128   0             -146.75335     -410.62812     -260.11026     -260.10599     -711.66811      3.161829e-07   9.1965015e-12 -6.9612142e-12  6.3691289      16.547482      20.757956      2187.7442    
       129   0             -146.75335     -410.62812     -260.11026     -260.10599     -711.66811     -1.7784756e-07 -4.988902e-12  -2.7691772e-11  6.3691289      16.547482      20.757956      2187.7442    
       130   0             -146.75335     -410.62812     -260.11026     -260.10599     -711.66811     -2.2101398e-07  4.435003e-12   1.7257891e-11  6.3691289      16.547482      20.757956      2187.7442    
       131   0             -146.75335     -410.62812     -260.11026     -260.10599     -711.66811     -1.2217762e-07 -2.1546162e-12  1.4226692e-11  6.3691289      16.547482      20.757956      2187.7442    
       132   0             -146.75335     -410.62812     -260.11026     -260.10599     -711.66811     -3.7962335e-08 -1.5626049e-12 -5.7416202e-12  6.3691289      16.547482      20.757956      2187.7442    
       133   0             -146.75335     -410.62812     -260.11026     -260.10599     -711.66811      1.3700927e-08 -2.7593316e-12  1.5374508e-11  6.3691289      16.547482      20.757956      2187.7442    
       134   0             -146.75335     -410.62812     -260.11026     -260.10599     -711.66811      2.5759453e-08  2.3388257e-12  1.8401896e-12  6.3691289      16.547482      20.757956      2187.7442    
       135   0             -146.75335     -410.62812     -260.11026     -260.10599     -711.66811      1.8722972e-08 -4.36386e-12   -1.0101669e-11  6.3691289      16.547482      20.757956      2187.7442    
Loop time of 0.013165 on 1 procs for 35 steps with 96 atoms

118.7% CPU use with 1 MPI tasks x 1 OpenMP threads

Minimization stats:
  Stopping criterion = force tolerance
  Energy initial, next-to-last, final = 
     -146.753348876515  -146.753348896717  -146.753348896718
  Force two-norm initial, final = 0.00046474072 9.5043716e-11
  Force max component initial, final = 7.1617391e-05 2.051341e-11
  Final line search alpha, max atom move = 1 2.051341e-11
  Iterations, force evaluations = 35 70

MPI task timing breakdown:
Section |  min time  |  avg time  |  max time  |%varavg| %total
---------------------------------------------------------------
Pair    | 0.012394   | 0.012394   | 0.012394   |   0.0 | 94.14
Neigh   | 0          | 0          | 0          |   0.0 |  0.00
Comm    | 0.000259   | 0.000259   | 0.000259   |   0.0 |  1.97
Output  | 0.000362   | 0.000362   | 0.000362   |   0.0 |  2.75
Modify  | 0          | 0          | 0          |   0.0 |  0.00
Other   |            | 0.00015    |            |       |  1.14

Nlocal:             96 ave          96 max          96 min
Histogram: 1 0 0 0 0 0 0 0 0 0
Nghost:           1310 ave        1310 max        1310 min
Histogram: 1 0 0 0 0 0 0 0 0 0
Neighs:           6144 ave        6144 max        6144 min
Histogram: 1 0 0 0 0 0 0 0 0 0

Total # of neighbors = 6144
Ave neighs/atom = 64
Neighbor list builds = 0
Dangerous builds = 0
OMP_NUM_THREADS environment is not set. Defaulting to 1 thread. (src/comm.cpp:98)
  using 1 OpenMP thread(s) per MPI task
Loaded 1 plugins from F:\Lammps\LAMMPS 64-bit 2Aug2023\plugins

The 'box' command has been removed and will be ignored

Reading restart file ...
  restart file = 2 Aug 2023, LAMMPS = 2 Aug 2023
  restoring atom style atomic from restart
  triclinic box = (0.025435542 0.066083476 0.10483816) to (6.3945645 16.613566 20.862794) with tilt (0 0 0)
  1 by 1 by 1 MPI processor grid
  pair style eam/alloy stores no restart info
  96 atoms
  read_restart CPU = 0.000 seconds
Changing box ...
  triclinic box = (0.025435542 0.066083476 0.10483816) to (6.3945645 16.613566 20.862794) with tilt (0 0 0)
  triclinic box = (0.025435542 0.066083476 0.10483816) to (6.3945645 16.613566 20.862794) with tilt (0 0 0)
Neighbor list info ...
  update: every = 1 steps, delay = 0 steps, check = yes
  max neighbors/atom: 2000, page size: 100000
  master list distance cutoff = 8.5
  ghost atom cutoff = 8.5
  1 neighbor lists, perpetual/occasional/extra = 1 0 0
  (1) pair eam/alloy, perpetual
      attributes: half, newton on
      pair build: half/nsq/newton
      stencil: none
      bin: none
Setting up cg style minimization ...
  Unit style    : metal
  Current step  : 100
Per MPI rank memory allocation (min/avg/max) = 4.467 | 4.467 | 4.467 Mbytes
   Step          Temp          PotEng         Press           Pxx            Pyy            Pzz            Pxy            Pxz            Pyz             Lx             Ly             Lz           Volume    
       100   0             -146.75335     -410.63536     -260.11191     -260.12288     -711.67129      0.018568803   -1.8693128e-06 -5.7675434e-06  6.3691289      16.547482      20.757956      2187.7443    
       101   0             -146.75335     -410.63545     -260.11287     -260.1222      -711.67128      0.014139342   -1.7732263e-06 -2.5325441e-06  6.3691289      16.547482      20.757956      2187.7443    
       102   0             -146.75335     -410.63548     -260.11395     -260.1212      -711.67128      0.0083347918  -6.2193393e-07 -4.0319836e-07  6.3691289      16.547482      20.757956      2187.7443    
       103   0             -146.75335     -410.63548     -260.11465     -260.12052     -711.67128      0.0044972133  -3.0016487e-07 -4.6923496e-08  6.3691289      16.547482      20.757956      2187.7443    
       104   0             -146.75335     -410.63548     -260.11516     -260.12001     -711.67128      0.0016349783  -2.4393238e-07  5.1004089e-08  6.3691289      16.547482      20.757956      2187.7443    
       105   0             -146.75335     -410.63549     -260.1155      -260.11968     -711.67128     -0.00023902528 -1.4296891e-07  4.4055914e-08  6.3691289      16.547482      20.757956      2187.7443    
       106   0             -146.75335     -410.63549     -260.11564     -260.11955     -711.67128     -0.00098360838 -7.1830012e-08  2.3094122e-08  6.3691289      16.547482      20.757956      2187.7443    
       107   0             -146.75335     -410.63549     -260.11561     -260.11957     -711.67128     -0.00083814728 -3.3927467e-08  7.2972161e-09  6.3691289      16.547482      20.757956      2187.7443    
       108   0             -146.75335     -410.63549     -260.11552     -260.11966     -711.67128     -0.0003435138  -4.398706e-09   6.3088939e-09  6.3691289      16.547482      20.757956      2187.7443    
       109   0             -146.75335     -410.63549     -260.11545     -260.11974     -711.67128      8.2410391e-05  2.7257228e-09  4.628287e-09   6.3691289      16.547482      20.757956      2187.7443    
       110   0             -146.75335     -410.63549     -260.11542     -260.11976     -711.67128      0.00022831744  2.7081848e-09  2.7522579e-09  6.3691289      16.547482      20.757956      2187.7443    
       111   0             -146.75335     -410.63549     -260.11543     -260.11975     -711.67128      0.00016933924  1.0476516e-09  8.8563616e-10  6.3691289      16.547482      20.757956      2187.7443    
       112   0             -146.75335     -410.63549     -260.11545     -260.11973     -711.67128      4.6529498e-05 -5.1953563e-10  2.2398416e-10  6.3691289      16.547482      20.757956      2187.7443    
       113   0             -146.75335     -410.63549     -260.11547     -260.11971     -711.67128     -7.0750167e-05 -1.1178812e-09 -3.4227271e-10  6.3691289      16.547482      20.757956      2187.7443    
       114   0             -146.75335     -410.63549     -260.11548     -260.11971     -711.67128     -9.765552e-05  -7.7217707e-10 -2.6531824e-10  6.3691289      16.547482      20.757956      2187.7443    
       115   0             -146.75335     -410.63549     -260.11547     -260.11971     -711.67128     -5.9210668e-05 -5.7621753e-10 -2.2429033e-10  6.3691289      16.547482      20.757956      2187.7443    
       116   0             -146.75335     -410.63549     -260.11546     -260.11972     -711.67128      1.020082e-05  -1.7801499e-10  2.0871573e-11  6.3691289      16.547482      20.757956      2187.7443    
       117   0             -146.75335     -410.63549     -260.11545     -260.11974     -711.67128      7.0651438e-05  2.5169372e-11  5.6956312e-11  6.3691289      16.547482      20.757956      2187.7443    
       118   0             -146.75335     -410.63549     -260.11545     -260.11973     -711.67128      6.0221578e-05  1.2718079e-11  6.1424981e-11  6.3691289      16.547482      20.757956      2187.7443    
       119   0             -146.75335     -410.63549     -260.11546     -260.11973     -711.67128      2.2725344e-05 -8.3186477e-12  4.3519816e-11  6.3691289      16.547482      20.757956      2187.7443    
       120   0             -146.75335     -410.63549     -260.11546     -260.11972     -711.67128     -2.4382078e-06 -1.6731306e-12  4.9729582e-11  6.3691289      16.547482      20.757956      2187.7443    
       121   0             -146.75335     -410.63549     -260.11546     -260.11972     -711.67128     -1.164501e-05   3.355154e-12   5.8146687e-12  6.3691289      16.547482      20.757956      2187.7443    
       122   0             -146.75335     -410.63549     -260.11546     -260.11972     -711.67128     -1.056632e-05   9.5814356e-12 -1.4495383e-12  6.3691289      16.547482      20.757956      2187.7443    
       123   0             -146.75335     -410.63549     -260.11546     -260.11972     -711.67128     -4.4393132e-06  4.1466197e-12 -1.9202889e-11  6.3691289      16.547482      20.757956      2187.7443    
       124   0             -146.75335     -410.63549     -260.11546     -260.11972     -711.67128     -6.2669549e-07 -7.9934226e-12 -1.4147291e-11  6.3691289      16.547482      20.757956      2187.7443    
       125   0             -146.75335     -410.63549     -260.11546     -260.11972     -711.67128      1.6618517e-06  2.9397298e-12  6.1735596e-12  6.3691289      16.547482      20.757956      2187.7443    
       126   0             -146.75335     -410.63549     -260.11546     -260.11972     -711.67128      2.0213629e-06 -1.0966183e-11 -1.6566152e-11  6.3691289      16.547482      20.757956      2187.7443    
       127   0             -146.75335     -410.63549     -260.11546     -260.11972     -711.67128      1.1327755e-06  5.9950669e-12  2.8997119e-11  6.3691289      16.547482      20.757956      2187.7443    
       128   0             -146.75335     -410.63549     -260.11546     -260.11972     -711.67128      3.1606884e-07 -6.518476e-12  -1.3253557e-11  6.3691289      16.547482      20.757956      2187.7443    
       129   0             -146.75335     -410.63549     -260.11546     -260.11972     -711.67128     -1.777594e-07   6.0623987e-12  1.4039306e-11  6.3691289      16.547482      20.757956      2187.7443    
       130   0             -146.75335     -410.63549     -260.11546     -260.11972     -711.67128     -2.2092363e-07  8.9475008e-12  1.8918317e-11  6.3691289      16.547482      20.757956      2187.7443    
       131   0             -146.75335     -410.63549     -260.11546     -260.11972     -711.67128     -1.2214627e-07 -4.2177627e-12  4.2812832e-12  6.3691289      16.547482      20.757956      2187.7443    
       132   0             -146.75335     -410.63549     -260.11546     -260.11972     -711.67128     -3.7933544e-08  4.9050548e-12 -1.0072449e-11  6.3691289      16.547482      20.757956      2187.7443    
       133   0             -146.75335     -410.63549     -260.11546     -260.11972     -711.67128      1.3695609e-08  1.2202292e-11  1.671352e-11   6.3691289      16.547482      20.757956      2187.7443    
       134   0             -146.75335     -410.63549     -260.11546     -260.11972     -711.67128      2.5742103e-08  5.3954332e-12 -1.5833761e-11  6.3691289      16.547482      20.757956      2187.7443    
       135   0             -146.75335     -410.63549     -260.11546     -260.11972     -711.67128      1.8702754e-08 -9.6004918e-12  8.1007723e-12  6.3691289      16.547482      20.757956      2187.7443    
Loop time of 0.013303 on 1 procs for 35 steps with 96 atoms

117.5% CPU use with 1 MPI tasks x 1 OpenMP threads

Minimization stats:
  Stopping criterion = force tolerance
  Energy initial, next-to-last, final = 
     -146.753348869413  -146.753348889615  -146.753348889614
  Force two-norm initial, final = 0.00046474093 9.5039674e-11
  Force max component initial, final = 7.1617388e-05 2.0509067e-11
  Final line search alpha, max atom move = 1 2.0509067e-11
  Iterations, force evaluations = 35 70

MPI task timing breakdown:
Section |  min time  |  avg time  |  max time  |%varavg| %total
---------------------------------------------------------------
Pair    | 0.012555   | 0.012555   | 0.012555   |   0.0 | 94.38
Neigh   | 0          | 0          | 0          |   0.0 |  0.00
Comm    | 0.000257   | 0.000257   | 0.000257   |   0.0 |  1.93
Output  | 0.00032    | 0.00032    | 0.00032    |   0.0 |  2.41
Modify  | 0          | 0          | 0          |   0.0 |  0.00
Other   |            | 0.000171   |            |       |  1.29

Nlocal:             96 ave          96 max          96 min
Histogram: 1 0 0 0 0 0 0 0 0 0
Nghost:           1310 ave        1310 max        1310 min
Histogram: 1 0 0 0 0 0 0 0 0 0
Neighs:           6144 ave        6144 max        6144 min
Histogram: 1 0 0 0 0 0 0 0 0 0

Total # of neighbors = 6144
Ave neighs/atom = 64
Neighbor list builds = 0
Dangerous builds = 0
OMP_NUM_THREADS environment is not set. Defaulting to 1 thread. (src/comm.cpp:98)
  using 1 OpenMP thread(s) per MPI task
Loaded 1 plugins from F:\Lammps\LAMMPS 64-bit 2Aug2023\plugins

The 'box' command has been removed and will be ignored

Reading restart file ...
  restart file = 2 Aug 2023, LAMMPS = 2 Aug 2023
  restoring atom style atomic from restart
  triclinic box = (0.025435542 0.066083476 0.10483816) to (6.3945645 16.613566 20.862794) with tilt (0 0 0)
  1 by 1 by 1 MPI processor grid
  pair style eam/alloy stores no restart info
  96 atoms
  read_restart CPU = 0.000 seconds
Changing box ...
  triclinic box = (0.025435542 0.066083476 0.10483816) to (6.3945645 16.613566 20.862794) with tilt (0 0 0)
Neighbor list info ...
  update: every = 1 steps, delay = 0 steps, check = yes
  max neighbors/atom: 2000, page size: 100000
  master list distance cutoff = 8.5
  ghost atom cutoff = 8.5
  1 neighbor lists, perpetual/occasional/extra = 1 0 0
  (1) pair eam/alloy, perpetual
      attributes: half, newton on
      pair build: half/nsq/newton
      stencil: none
      bin: none
Setting up cg style minimization ...
  Unit style    : metal
  Current step  : 100
Per MPI rank memory allocation (min/avg/max) = 4.467 | 4.467 | 4.467 Mbytes
   Step          Temp          PotEng         Press           Pxx            Pyy            Pzz            Pxy            Pxz            Pyz             Lx             Ly             Lz           Volume    
       100   0             -146.75335     -410.62832     -260.1078      -260.11435     -711.66283      0.018568784   -1.8684632e-06 -5.7693326e-06  6.3691289      16.547482      20.757956      2187.7442    
       101   0             -146.75335     -410.62841     -260.10874     -260.11369     -711.66282      0.014139331   -1.7732418e-06 -2.532085e-06   6.3691289      16.547482      20.757956      2187.7442    
       102   0             -146.75335     -410.62844     -260.1098      -260.11271     -711.66281      0.0083347955  -6.2193337e-07 -4.039126e-07   6.3691289      16.547482      20.757956      2187.7442    
       103   0             -146.75335     -410.62845     -260.11048     -260.11205     -711.66281      0.0044972336  -3.0016404e-07 -4.6478011e-08  6.3691289      16.547482      20.757956      2187.7442    
       104   0             -146.75335     -410.62845     -260.11098     -260.11155     -711.66281      0.001635002   -2.439414e-07   5.0624757e-08  6.3691289      16.547482      20.757956      2187.7442    
       105   0             -146.75335     -410.62845     -260.11131     -260.11123     -711.66281     -0.00023903631 -1.4295938e-07  4.4377344e-08  6.3691289      16.547482      20.757956      2187.7442    
       106   0             -146.75335     -410.62845     -260.11144     -260.1111      -711.66281     -0.00098364423 -7.1836016e-08  2.2658008e-08  6.3691289      16.547482      20.757956      2187.7442    
       107   0             -146.75335     -410.62845     -260.11141     -260.11112     -711.66281     -0.00083817641 -3.3930579e-08  7.7531678e-09  6.3691289      16.547482      20.757956      2187.7442    
       108   0             -146.75335     -410.62845     -260.11133     -260.11121     -711.66281     -0.000343527   -4.3890027e-09  5.963465e-09   6.3691289      16.547482      20.757956      2187.7442    
       109   0             -146.75335     -410.62845     -260.11125     -260.11128     -711.66281      8.2416026e-05  2.7254497e-09  4.81069e-09    6.3691289      16.547482      20.757956      2187.7442    
       110   0             -146.75335     -410.62845     -260.11123     -260.11131     -711.66281      0.00022833055  2.7079765e-09  2.6688955e-09  6.3691289      16.547482      20.757956      2187.7442    
       111   0             -146.75335     -410.62845     -260.11124     -260.1113      -711.66281      0.00016934802  1.0470774e-09  9.4259503e-10  6.3691289      16.547482      20.757956      2187.7442    
       112   0             -146.75335     -410.62845     -260.11126     -260.11128     -711.66281      4.6531523e-05 -5.1948609e-10  1.3849062e-10  6.3691289      16.547482      20.757956      2187.7442    
       113   0             -146.75335     -410.62845     -260.11128     -260.11126     -711.66281     -7.0755796e-05 -1.1054248e-09 -2.6776124e-10  6.3691289      16.547482      20.757956      2187.7442    
       114   0             -146.75335     -410.62845     -260.11129     -260.11125     -711.66281     -9.7662658e-05 -7.8262367e-10 -2.9753903e-10  6.3691289      16.547482      20.757956      2187.7442    
       115   0             -146.75335     -410.62845     -260.11128     -260.11126     -711.66281     -5.9214788e-05 -5.8371804e-10 -1.7809503e-10  6.3691289      16.547482      20.757956      2187.7442    
       116   0             -146.75335     -410.62845     -260.11127     -260.11127     -711.66281      1.0202592e-05 -1.7658325e-10  3.4785109e-11  6.3691289      16.547482      20.757956      2187.7442    
       117   0             -146.75335     -410.62845     -260.11126     -260.11128     -711.66281      7.0658515e-05  2.5190969e-11  8.4108796e-11  6.3691289      16.547482      20.757956      2187.7442    
       118   0             -146.75335     -410.62845     -260.11126     -260.11128     -711.66281      6.0227235e-05  1.1291408e-11  4.7390122e-11  6.3691289      16.547482      20.757956      2187.7442    
       119   0             -146.75335     -410.62845     -260.11126     -260.11127     -711.66281      2.2727525e-05  7.4992331e-12  2.7808015e-11  6.3691289      16.547482      20.757956      2187.7442    
       120   0             -146.75335     -410.62845     -260.11127     -260.11127     -711.66281     -2.4388117e-06 -9.3387874e-12  4.8180317e-12  6.3691289      16.547482      20.757956      2187.7442    
       121   0             -146.75335     -410.62845     -260.11127     -260.11127     -711.66281     -1.1646701e-05  1.0849305e-12  1.5071515e-11  6.3691289      16.547482      20.757956      2187.7442    
       122   0             -146.75335     -410.62845     -260.11127     -260.11127     -711.66281     -1.0567728e-05  2.9282962e-12  9.1412386e-12  6.3691289      16.547482      20.757956      2187.7442    
       123   0             -146.75335     -410.62845     -260.11127     -260.11127     -711.66281     -4.4399004e-06  2.0186823e-12  2.4250866e-11  6.3691289      16.547482      20.757956      2187.7442    
       124   0             -146.75335     -410.62845     -260.11127     -260.11127     -711.66281     -6.2672953e-07 -9.7948648e-13 -7.8003203e-12  6.3691289      16.547482      20.757956      2187.7442    
       125   0             -146.75335     -410.62845     -260.11127     -260.11127     -711.66281      1.6621763e-06  1.7607889e-12 -7.1936993e-12  6.3691289      16.547482      20.757956      2187.7442    
       126   0             -146.75335     -410.62845     -260.11127     -260.11127     -711.66281      2.0217244e-06 -3.5253891e-12 -1.5429135e-12  6.3691289      16.547482      20.757956      2187.7442    
       127   0             -146.75335     -410.62845     -260.11127     -260.11127     -711.66281      1.132962e-06   3.1633221e-12 -4.0989794e-12  6.3691289      16.547482      20.757956      2187.7442    
       128   0             -146.75335     -410.62845     -260.11127     -260.11127     -711.66281      3.1610157e-07  1.3288494e-12 -7.8257286e-12  6.3691289      16.547482      20.757956      2187.7442    
       129   0             -146.75335     -410.62845     -260.11127     -260.11127     -711.66281     -1.7782256e-07  1.2450023e-13 -2.8767175e-11  6.3691289      16.547482      20.757956      2187.7442    
       130   0             -146.75335     -410.62845     -260.11127     -260.11127     -711.66281     -2.2096772e-07  7.4700136e-13 -3.7458053e-12  6.3691289      16.547482      20.757956      2187.7442    
       131   0             -146.75335     -410.62845     -260.11127     -260.11127     -711.66281     -1.2217221e-07 -3.1493476e-12 -2.2972833e-11  6.3691289      16.547482      20.757956      2187.7442    
       132   0             -146.75335     -410.62845     -260.11127     -260.11127     -711.66281     -3.7944552e-08 -5.2569586e-12  3.0357094e-11  6.3691289      16.547482      20.757956      2187.7442    
       133   0             -146.75335     -410.62845     -260.11127     -260.11127     -711.66281      1.3698554e-08  4.6039676e-12 -1.6301907e-11  6.3691289      16.547482      20.757956      2187.7442    
       134   0             -146.75335     -410.62845     -260.11127     -260.11127     -711.66281      2.5750938e-08 -4.243171e-12   2.0354517e-11  6.3691289      16.547482      20.757956      2187.7442    
       135   0             -146.75335     -410.62845     -260.11127     -260.11127     -711.66281      1.8709704e-08  5.5821836e-12 -2.4061574e-12  6.3691289      16.547482      20.757956      2187.7442    
Loop time of 0.013476 on 1 procs for 35 steps with 96 atoms

0.0% CPU use with 1 MPI tasks x 1 OpenMP threads

Minimization stats:
  Stopping criterion = force tolerance
  Energy initial, next-to-last, final = 
     -146.753348882681  -146.753348902883  -146.753348902884
  Force two-norm initial, final = 0.00046474083 9.5035817e-11
  Force max component initial, final = 7.1617394e-05 2.0508706e-11
  Final line search alpha, max atom move = 1 2.0508706e-11
  Iterations, force evaluations = 35 70

MPI task timing breakdown:
Section |  min time  |  avg time  |  max time  |%varavg| %total
---------------------------------------------------------------
Pair    | 0.012713   | 0.012713   | 0.012713   |   0.0 | 94.34
Neigh   | 0          | 0          | 0          |   0.0 |  0.00
Comm    | 0.00027    | 0.00027    | 0.00027    |   0.0 |  2.00
Output  | 0.000334   | 0.000334   | 0.000334   |   0.0 |  2.48
Modify  | 0          | 0          | 0          |   0.0 |  0.00
Other   |            | 0.000159   |            |       |  1.18

Nlocal:             96 ave          96 max          96 min
Histogram: 1 0 0 0 0 0 0 0 0 0
Nghost:           1310 ave        1310 max        1310 min
Histogram: 1 0 0 0 0 0 0 0 0 0
Neighs:           6144 ave        6144 max        6144 min
Histogram: 1 0 0 0 0 0 0 0 0 0

Total # of neighbors = 6144
Ave neighs/atom = 64
Neighbor list builds = 0
Dangerous builds = 0
OMP_NUM_THREADS environment is not set. Defaulting to 1 thread. (src/comm.cpp:98)
  using 1 OpenMP thread(s) per MPI task
Loaded 1 plugins from F:\Lammps\LAMMPS 64-bit 2Aug2023\plugins

The 'box' command has been removed and will be ignored

Reading restart file ...
  restart file = 2 Aug 2023, LAMMPS = 2 Aug 2023
  restoring atom style atomic from restart
  triclinic box = (0.025435542 0.066083476 0.10483816) to (6.3945645 16.613566 20.862794) with tilt (0 0 0)
  1 by 1 by 1 MPI processor grid
  pair style eam/alloy stores no restart info
  96 atoms
  read_restart CPU = 0.000 seconds
Changing box ...
  triclinic box = (0.025435542 0.066083476 0.10483816) to (6.3945645 16.613566 20.862794) with tilt (0 0 0)
Neighbor list info ...
  update: every = 1 steps, delay = 0 steps, check = yes
  max neighbors/atom: 2000, page size: 100000
  master list distance cutoff = 8.5
  ghost atom cutoff = 8.5
  1 neighbor lists, perpetual/occasional/extra = 1 0 0
  (1) pair eam/alloy, perpetual
      attributes: half, newton on
      pair build: half/nsq/newton
      stencil: none
      bin: none
Setting up cg style minimization ...
  Unit style    : metal
  Current step  : 100
Per MPI rank memory allocation (min/avg/max) = 4.467 | 4.467 | 4.467 Mbytes
   Step          Temp          PotEng         Press           Pxx            Pyy            Pzz            Pxy            Pxz            Pyz             Lx             Ly             Lz           Volume    
       100   0             -146.75335     -410.63503     -260.11098     -260.11753     -711.67659      0.018568786   -1.8678402e-06 -5.7685697e-06  6.3691289      16.547482      20.757956      2187.7443    
       101   0             -146.75335     -410.63512     -260.11192     -260.11687     -711.67658      0.014139334   -1.7732265e-06 -2.5320828e-06  6.3691289      16.547482      20.757956      2187.7443    
       102   0             -146.75335     -410.63515     -260.11298     -260.11589     -711.67657      0.008334806   -6.2193365e-07 -4.0394854e-07  6.3691289      16.547482      20.757956      2187.7443    
       103   0             -146.75335     -410.63515     -260.11365     -260.11523     -711.67657      0.0044972461  -3.0017724e-07 -4.6460846e-08  6.3691289      16.547482      20.757956      2187.7443    
       104   0             -146.75335     -410.63515     -260.11416     -260.11473     -711.67657      0.001635011   -2.4392495e-07  5.06121e-08    6.3691289      16.547482      20.757956      2187.7443    
       105   0             -146.75335     -410.63515     -260.11449     -260.11441     -711.67657     -0.00023903176 -1.4296151e-07  4.4397323e-08  6.3691289      16.547482      20.757956      2187.7443    
       106   0             -146.75335     -410.63516     -260.11462     -260.11428     -711.67657     -0.00098364492 -7.1836223e-08  2.2643782e-08  6.3691289      16.547482      20.757956      2187.7443    
       107   0             -146.75335     -410.63516     -260.11459     -260.1143      -711.67657     -0.00083817932 -3.3924877e-08  7.7389943e-09  6.3691289      16.547482      20.757956      2187.7443    
       108   0             -146.75335     -410.63516     -260.11451     -260.11439     -711.67657     -0.00034352993 -4.3926055e-09  5.9602653e-09  6.3691289      16.547482      20.757956      2187.7443    
       109   0             -146.75335     -410.63516     -260.11443     -260.11446     -711.67657      8.2414603e-05  2.7233446e-09  4.8047343e-09  6.3691289      16.547482      20.757956      2187.7443    
       110   0             -146.75335     -410.63516     -260.11441     -260.11449     -711.67657      0.00022833068  2.7020157e-09  2.6518389e-09  6.3691289      16.547482      20.757956      2187.7443    
       111   0             -146.75335     -410.63516     -260.11442     -260.11448     -711.67657      0.00016934956  1.0366765e-09  9.0467199e-10  6.3691289      16.547482      20.757956      2187.7443    
[...]
       104   0             -146.75335     -410.6318      -260.11257     -260.11314     -711.66969      0.0037724428  -2.4354159e-07  5.0631399e-08  6.3691289      16.547482      20.757956      2187.7442    
       105   0             -146.75335     -410.6318      -260.1129      -260.11282     -711.66969      0.001890769   -1.4328167e-07  4.438446e-08   6.3691289      16.547482      20.757956      2187.7442    
       106   0             -146.75335     -410.6318      -260.11303     -260.11269     -711.66969      0.0011432013  -7.1423739e-08  2.2651285e-08  6.3691289      16.547482      20.757956      2187.7442    
       107   0             -146.75335     -410.6318      -260.113       -260.11271     -711.66969      0.0012892489  -3.436824e-08   7.763775e-09   6.3691289      16.547482      20.757956      2187.7442    
       108   0             -146.75335     -410.6318      -260.11292     -260.1128      -711.66969      0.0017858809  -4.0302095e-09  5.9628799e-09  6.3691289      16.547482      20.757956      2187.7442    
       109   0             -146.75335     -410.6318      -260.11284     -260.11287     -711.66969      0.0022134963   2.5473712e-09  4.8277757e-09  6.3691289      16.547482      20.757956      2187.7442    
       110   0             -146.75335     -410.6318      -260.11282     -260.1129      -711.66969      0.0023599735   2.8025738e-09  2.6762029e-09  6.3691289      16.547482      20.757956      2187.7442    
       111   0             -146.75335     -410.6318      -260.11283     -260.11289     -711.66969      0.002300763    9.7686815e-10  9.3941582e-10  6.3691289      16.547482      20.757956      2187.7442    
       112   0             -146.75335     -410.6318      -260.11285     -260.11287     -711.66969      0.0021774709  -4.5880112e-10  1.6047571e-10  6.3691289      16.547482      20.757956      2187.7442    
       113   0             -146.75335     -410.6318      -260.11287     -260.11285     -711.66969      0.0020597392  -1.1637366e-09 -2.7181448e-10  6.3691289      16.547482      20.757956      2187.7442    
       114   0             -146.75335     -410.6318      -260.11288     -260.11284     -711.66969      0.0020327313  -7.264512e-10  -3.0973814e-10  6.3691289      16.547482      20.757956      2187.7442    
       115   0             -146.75335     -410.6318      -260.11287     -260.11285     -711.66969      0.0020713246  -6.0600993e-10 -1.8310998e-10  6.3691289      16.547482      20.757956      2187.7442    
       116   0             -146.75335     -410.6318      -260.11286     -260.11286     -711.66969      0.0021410009  -1.6054558e-10  2.188282e-12   6.3691289      16.547482      20.757956      2187.7442    
       117   0             -146.75335     -410.6318      -260.11285     -260.11287     -711.66969      0.0022016763   2.8148485e-11  7.8717809e-11  6.3691289      16.547482      20.757956      2187.7442    
       118   0             -146.75335     -410.6318      -260.11285     -260.11287     -711.66969      0.0021912072   1.9594811e-11  8.0369342e-11  6.3691289      16.547482      20.757956      2187.7442    
       119   0             -146.75335     -410.6318      -260.11285     -260.11286     -711.66969      0.0021535695  -6.9466044e-12  9.3724532e-12  6.3691289      16.547482      20.757956      2187.7442    
       120   0             -146.75335     -410.6318      -260.11286     -260.11286     -711.66969      0.0021283143  -1.8459064e-12 -8.1077596e-12  6.3691289      16.547482      20.757956      2187.7442    
       121   0             -146.75335     -410.6318      -260.11286     -260.11286     -711.66969      0.0021190749   1.6718602e-12  9.0675547e-12  6.3691289      16.547482      20.757956      2187.7442    
       122   0             -146.75335     -410.6318      -260.11286     -260.11286     -711.66969      0.0021201575   8.5053981e-12 -1.8598809e-12  6.3691289      16.547482      20.757956      2187.7442    
       123   0             -146.75335     -410.6318      -260.11286     -260.11286     -711.66969      0.0021263066  -4.1593239e-12 -1.0816275e-11  6.3691289      16.547482      20.757956      2187.7442    
       124   0             -146.75335     -410.6318      -260.11286     -260.11286     -711.66969      0.0021301325   1.5778498e-12  3.9827368e-12  6.3691289      16.547482      20.757956      2187.7442    
       125   0             -146.75335     -410.6318      -260.11286     -260.11286     -711.66969      0.0021324287   1.7620593e-12 -4.3816457e-12  6.3691289      16.547482      20.757956      2187.7442    
       126   0             -146.75335     -410.6318      -260.11286     -260.11286     -711.66969      0.0021327893   6.5426139e-13  9.7611988e-12  6.3691289      16.547482      20.757956      2187.7442    
       127   0             -146.75335     -410.6318      -260.11286     -260.11286     -711.66969      0.0021318978   8.2640201e-12  6.8907064e-12  6.3691289      16.547482      20.757956      2187.7442    
       128   0             -146.75335     -410.6318      -260.11286     -260.11286     -711.66969      0.0021310784  -1.7074317e-12 -1.4268615e-11  6.3691289      16.547482      20.757956      2187.7442    
       129   0             -146.75335     -410.6318      -260.11286     -260.11286     -711.66969      0.0021305829   1.5562528e-12 -2.2590439e-11  6.3691289      16.547482      20.757956      2187.7442    
       130   0             -146.75335     -410.6318      -260.11286     -260.11286     -711.66969      0.0021305397  -2.794903e-13   2.627717e-11   6.3691289      16.547482      20.757956      2187.7442    
       131   0             -146.75335     -410.6318      -260.11286     -260.11286     -711.66969      0.0021306388  -9.5788949e-12 -2.033546e-11   6.3691289      16.547482      20.757956      2187.7442    
       132   0             -146.75335     -410.6318      -260.11286     -260.11286     -711.66969      0.0021307232  -1.3631504e-12 -2.1114222e-12  6.3691289      16.547482      20.757956      2187.7442    
       133   0             -146.75335     -410.6318      -260.11286     -260.11286     -711.66969      0.002130775   -9.6259001e-12 -8.5511329e-12  6.3691289      16.547482      20.757956      2187.7442    
       134   0             -146.75335     -410.6318      -260.11286     -260.11286     -711.66969      0.0021307871  -5.9201128e-13 -1.2354742e-12  6.3691289      16.547482      20.757956      2187.7442    
       135   0             -146.75335     -410.6318      -260.11286     -260.11286     -711.66969      0.00213078    -3.057878e-12  -4.5950747e-12  6.3691289      16.547482      20.757956      2187.7442    
Loop time of 0.015336 on 1 procs for 35 steps with 96 atoms

101.9% CPU use with 1 MPI tasks x 1 OpenMP threads

Minimization stats:
  Stopping criterion = force tolerance
  Energy initial, next-to-last, final = 
     -146.753348872964  -146.753348893164  -146.753348893167
  Force two-norm initial, final = 0.00046474163 9.5050535e-11
  Force max component initial, final = 7.1613342e-05 2.0498173e-11
  Final line search alpha, max atom move = 1 2.0498173e-11
  Iterations, force evaluations = 35 70

MPI task timing breakdown:
Section |  min time  |  avg time  |  max time  |%varavg| %total
---------------------------------------------------------------
Pair    | 0.0142     | 0.0142     | 0.0142     |   0.0 | 92.59
Neigh   | 0          | 0          | 0          |   0.0 |  0.00
Comm    | 0.000346   | 0.000346   | 0.000346   |   0.0 |  2.26
Output  | 0.000572   | 0.000572   | 0.000572   |   0.0 |  3.73
Modify  | 0          | 0          | 0          |   0.0 |  0.00
Other   |            | 0.000218   |            |       |  1.42

Nlocal:             96 ave          96 max          96 min
Histogram: 1 0 0 0 0 0 0 0 0 0
Nghost:           1310 ave        1310 max        1310 min
Histogram: 1 0 0 0 0 0 0 0 0 0
Neighs:           6144 ave        6144 max        6144 min
Histogram: 1 0 0 0 0 0 0 0 0 0

Total # of neighbors = 6144
Ave neighs/atom = 64
Neighbor list builds = 0
Dangerous builds = 0
OMP_NUM_THREADS environment is not set. Defaulting to 1 thread. (src/comm.cpp:98)
  using 1 OpenMP thread(s) per MPI task
Loaded 1 plugins from F:\Lammps\LAMMPS 64-bit 2Aug2023\plugins

The 'box' command has been removed and will be ignored

Reading restart file ...
  restart file = 2 Aug 2023, LAMMPS = 2 Aug 2023
  restoring atom style atomic from restart
  triclinic box = (0.025435542 0.066083476 0.10483816) to (6.3945645 16.613566 20.862794) with tilt (0 0 0)
  1 by 1 by 1 MPI processor grid
  pair style eam/alloy stores no restart info
  96 atoms
  read_restart CPU = 0.000 seconds
Changing box ...
  triclinic box = (0.025435542 0.066083476 0.10483816) to (6.3945645 16.613566 20.862794) with tilt (1.6547482e-07 0 0)
Neighbor list info ...
  update: every = 1 steps, delay = 0 steps, check = yes
  max neighbors/atom: 2000, page size: 100000
  master list distance cutoff = 8.5
  ghost atom cutoff = 8.5
  1 neighbor lists, perpetual/occasional/extra = 1 0 0
  (1) pair eam/alloy, perpetual
      attributes: half, newton on
      pair build: half/nsq/newton
      stencil: none
      bin: none
Setting up cg style minimization ...
  Unit style    : metal
  Current step  : 100
Per MPI rank memory allocation (min/avg/max) = 4.467 | 4.467 | 4.467 Mbytes
   Step          Temp          PotEng         Press           Pxx            Pyy            Pzz            Pxy            Pxz            Pyz             Lx             Ly             Lz           Volume    
       100   0             -146.75335     -410.63168     -260.10939     -260.11594     -711.66971      0.01636021    -1.8683235e-06 -5.7701003e-06  6.3691289      16.547482      20.757956      2187.7442    
       101   0             -146.75335     -410.63177     -260.11033     -260.11528     -711.6697       0.011949309   -1.7727513e-06 -2.5320735e-06  6.3691289      16.547482      20.757956      2187.7442    
       102   0             -146.75335     -410.63179     -260.11139     -260.1143      -711.66969      0.0061691981  -6.2267533e-07 -4.0390681e-07  6.3691289      16.547482      20.757956      2187.7442    
       103   0             -146.75335     -410.6318      -260.11207     -260.11364     -711.66969      0.0023478093  -2.9972136e-07 -4.6458745e-08  6.3691289      16.547482      20.757956      2187.7442    
       104   0             -146.75335     -410.6318      -260.11257     -260.11314     -711.66969     -0.00050243193 -2.4430813e-07  5.0625634e-08  6.3691289      16.547482      20.757956      2187.7442    
       105   0             -146.75335     -410.6318      -260.1129      -260.11282     -711.66969     -0.0023688366  -1.426359e-07   4.4356376e-08  6.3691289      16.547482      20.757956      2187.7442    
       106   0             -146.75335     -410.6318      -260.11303     -260.11269     -711.66969     -0.0031104879  -7.2232099e-08  2.2647602e-08  6.3691289      16.547482      20.757956      2187.7442    
       107   0             -146.75335     -410.6318      -260.113       -260.11271     -711.66969     -0.0029656025  -3.3484648e-08  7.7165932e-09  6.3691289      16.547482      20.757956      2187.7442    
       108   0             -146.75335     -410.6318      -260.11292     -260.1128      -711.66969     -0.0024729368  -4.7327846e-09  5.9726665e-09  6.3691289      16.547482      20.757956      2187.7442    
       109   0             -146.75335     -410.6318      -260.11284     -260.11287     -711.66969     -0.002048666    2.9165245e-09  4.8209575e-09  6.3691289      16.547482      20.757956      2187.7442    
       110   0             -146.75335     -410.6318      -260.11282     -260.1129      -711.66969     -0.0019033132   2.6164421e-09  2.6653764e-09  6.3691289      16.547482      20.757956      2187.7442    
       111   0             -146.75335     -410.6318      -260.11283     -260.11289     -711.66969     -0.0019620662   1.0974263e-09  9.1346387e-10  6.3691289      16.547482      20.757956      2187.7442    
       112   0             -146.75335     -410.6318      -260.11285     -260.11287     -711.66969     -0.0020844068  -5.8726121e-10  1.4673876e-10  6.3691289      16.547482      20.757956      2187.7442    
       113   0             -146.75335     -410.6318      -260.11287     -260.11285     -711.66969     -0.0022012501  -1.0536607e-09 -2.6828084e-10  6.3691289      16.547482      20.757956      2187.7442    
       114   0             -146.75335     -410.6318      -260.11288     -260.11284     -711.66969     -0.0022280563  -8.2950308e-10 -2.8965232e-10  6.3691289      16.547482      20.757956      2187.7442    
       115   0             -146.75335     -410.6318      -260.11287     -260.11285     -711.66969     -0.0021897543  -5.4037163e-10 -1.8300898e-10  6.3691289      16.547482      20.757956      2187.7442    
       116   0             -146.75335     -410.6318      -260.11286     -260.11286     -711.66969     -0.0021205967  -1.9485556e-10  5.9467914e-12  6.3691289      16.547482      20.757956      2187.7442    
       117   0             -146.75335     -410.6318      -260.11285     -260.11287     -711.66969     -0.00206036     4.1440789e-11  7.8003838e-11  6.3691289      16.547482      20.757956      2187.7442    
       118   0             -146.75335     -410.6318      -260.11285     -260.11287     -711.66969     -0.002070753    1.7033664e-11  5.7874819e-11  6.3691289      16.547482      20.757956      2187.7442    
       119   0             -146.75335     -410.6318      -260.11285     -260.11286     -711.66969     -0.0021081143   2.794903e-14   1.6182489e-11  6.3691289      16.547482      20.757956      2187.7442    
       120   0             -146.75335     -410.6318      -260.11286     -260.11286     -711.66969     -0.0021331915   1.0087059e-12  3.6022489e-12  6.3691289      16.547482      20.757956      2187.7442    
       121   0             -146.75335     -410.6318      -260.11286     -260.11286     -711.66969     -0.002142368   -6.0966998e-12  7.8174708e-12  6.3691289      16.547482      20.757956      2187.7442    
       122   0             -146.75335     -410.6318      -260.11286     -260.11286     -711.66969     -0.0021412928   5.6164847e-12 -5.5135814e-13  6.3691289      16.547482      20.757956      2187.7442    
       123   0             -146.75335     -410.6318      -260.11286     -260.11286     -711.66969     -0.0021351864   1.2320441e-11  9.0904221e-12  6.3691289      16.547482      20.757956      2187.7442    
       124   0             -146.75335     -410.6318      -260.11286     -260.11286     -711.66969     -0.002131386    3.8302876e-12 -1.2849567e-11  6.3691289      16.547482      20.757956      2187.7442    
       125   0             -146.75335     -410.6318      -260.11286     -260.11286     -711.66969     -0.0021291044   8.5524033e-12  5.1451624e-14  6.3691289      16.547482      20.757956      2187.7442    
       126   0             -146.75335     -410.6318      -260.11286     -260.11286     -711.66969     -0.0021287459  -3.6587821e-13 -1.053869e-11   6.3691289      16.547482      20.757956      2187.7442    
       127   0             -146.75335     -410.6318      -260.11286     -260.11286     -711.66969     -0.0021296319  -1.7315695e-12 -5.6222015e-12  6.3691289      16.547482      20.757956      2187.7442    
       128   0             -146.75335     -410.6318      -260.11286     -260.11286     -711.66969     -0.0021304461  -1.9615138e-12  2.1580463e-11  6.3691289      16.547482      20.757956      2187.7442    
       129   0             -146.75335     -410.6318      -260.11286     -260.11286     -711.66969     -0.0021309385  -7.598325e-12  -1.5966519e-11  6.3691289      16.547482      20.757956      2187.7442    
       130   0             -146.75335     -410.6318      -260.11286     -260.11286     -711.66969     -0.0021309816   2.1914581e-12 -6.9199258e-12  6.3691289      16.547482      20.757956      2187.7442    
       131   0             -146.75335     -410.6318      -260.11286     -260.11286     -711.66969     -0.0021308831   1.9208606e-12 -9.5865174e-12  6.3691289      16.547482      20.757956      2187.7442    
       132   0             -146.75335     -410.6318      -260.11286     -260.11286     -711.66969     -0.0021307991  -4.6458911e-12  4.0570558e-12  6.3691289      16.547482      20.757956      2187.7442    
       133   0             -146.75335     -410.6318      -260.11286     -260.11286     -711.66969     -0.0021307476  -5.462765e-12   6.0331793e-12  6.3691289      16.547482      20.757956      2187.7442    
       134   0             -146.75335     -410.6318      -260.11286     -260.11286     -711.66969     -0.0021307356  -3.4174042e-12 -1.0881066e-12  6.3691289      16.547482      20.757956      2187.7442    
       135   0             -146.75335     -410.6318      -260.11286     -260.11286     -711.66969     -0.0021307426   6.0344497e-13 -1.5403727e-12  6.3691289      16.547482      20.757956      2187.7442    
Loop time of 0.015408 on 1 procs for 35 steps with 96 atoms

101.4% CPU use with 1 MPI tasks x 1 OpenMP threads

Minimization stats:
  Stopping criterion = force tolerance
  Energy initial, next-to-last, final = 
     -146.753348872964  -146.753348893167  -146.753348893167
  Force two-norm initial, final = 0.00046474001 9.5032183e-11
  Force max component initial, final = 7.1621437e-05 2.0504987e-11
  Final line search alpha, max atom move = 1 2.0504987e-11
  Iterations, force evaluations = 35 70

MPI task timing breakdown:
Section |  min time  |  avg time  |  max time  |%varavg| %total
---------------------------------------------------------------
Pair    | 0.014334   | 0.014334   | 0.014334   |   0.0 | 93.03
Neigh   | 0          | 0          | 0          |   0.0 |  0.00
Comm    | 0.0003     | 0.0003     | 0.0003     |   0.0 |  1.95
Output  | 0.000517   | 0.000517   | 0.000517   |   0.0 |  3.36
Modify  | 0          | 0          | 0          |   0.0 |  0.00
Other   |            | 0.000257   |            |       |  1.67

Nlocal:             96 ave          96 max          96 min
Histogram: 1 0 0 0 0 0 0 0 0 0
Nghost:           1310 ave        1310 max        1310 min
Histogram: 1 0 0 0 0 0 0 0 0 0
Neighs:           6144 ave        6144 max        6144 min
Histogram: 1 0 0 0 0 0 0 0 0 0

Total # of neighbors = 6144
Ave neighs/atom = 64
Neighbor list builds = 0
Dangerous builds = 0
=========================================
Components of the Elastic Constant Tensor
=========================================
Elastic Constant C11all = 68.6447121901779 GPa
Elastic Constant C22all = 68.6447117800526 GPa
Elastic Constant C33all = 68.7957702598397 GPa
Elastic Constant C12all = 26.0294846074772 GPa
Elastic Constant C13all = 15.8751339176888 GPa
Elastic Constant C23all = 15.8751338048546 GPa
Elastic Constant C44all = 12.7672941797807 GPa
Elastic Constant C55all = 12.7672941867521 GPa
Elastic Constant C66all = 21.3076134059916 GPa
Elastic Constant C14all = -3.38342071623365e-08 GPa
Elastic Constant C15all = 2.80433422153212e-08 GPa
Elastic Constant C16all = -1.18824577393519e-07 GPa
Elastic Constant C24all = -5.80116551395147e-08 GPa
Elastic Constant C25all = 1.5649533365554e-08 GPa
Elastic Constant C26all = 3.54807100881282e-08 GPa
Elastic Constant C34all = -3.56335067468425e-08 GPa
Elastic Constant C35all = -1.06218510198555e-07 GPa
Elastic Constant C36all = 6.78903972324178e-08 GPa
Elastic Constant C45all = 5.55423456321028e-08 GPa
Elastic Constant C46all = -3.8774515476294e-08 GPa
Elastic Constant C56all = -3.32911062964372e-08 GPa
=========================================
Average properties for a cubic crystal
=========================================
Bulk Modulus = 35.738299876679 GPa
Shear Modulus 1 = 15.6140672575081 GPa
Shear Modulus 2 = 24.7175736500082 GPa
Poisson Ratio = 0.218974718253689
Total wall time: 0:00:00
