 TITLE = "Tecplot data"
 VARIABLES = "X", "Y", "Z" "U", "V", "p", "dispX", "dispY"
 ZONE SOLUTIONTIME=102.900000, NODES=26114 , ELEMENTS=25916, DATAPACKING=POINT, ZONETYPE=FEQUADRILATERAL
0.8158469887 2.0584239173 0.0000000000 0.0000000000 0.0000000000 -486.4467818663 0.4622935982 1.7048705267
0.8158469890 1.3513171363 0.0000000000 0.0000000000 0.0000000000 -1946.1331438972 0.4622935982 1.7048705267
0.1087402075 2.0584239171 0.0000000000 0.0000000000 0.0000000000 450.4031343305 0.4622935982 1.7048705267
0.1087402078 1.3513171359 0.0000000000 0.0000000000 0.0000000000 2068.4278386864 0.4622935982 1.7048705267
0.9974219003 2.2284473121 0.0000000000 -0.0244738858 0.0154417929 -473.3551977909 0.4670918145 1.6981172261
0.9807567008 1.1648064942 0.0000000000 0.4680162384 0.2523210254 -1166.6197424104 0.4504266145 1.6951365797
-0.0665054139 2.2345436212 0.0000000000 0.2327221693 0.5526595798 446.4376465544 0.4638246721 1.7042135355
-0.0718107229 1.1766598049 0.0000000000 0.6140671182 -0.2244080304 1124.7197227099 0.4585193627 1.7069898911
1.5536566395 2.7128285580 0.0000000000 0.3140350065 -0.2702545139 -281.9438162640 0.4929964679 1.6521683861
1.4520910729 0.5827018363 0.0000000000 0.4970714829 0.3380025683 -477.7460906700 0.3914309004 1.6433620073
-0.5900321525 2.7586120240 0.0000000000 0.7390990533 0.5261401205 399.9487661169 0.4706280196 1.6979518525
-0.6275290175 0.6527642857 0.0000000000 0.6817448546 -0.0570991532 510.0774424786 0.4331311537 1.7134244580
4.8290366299 4.6732105067 0.0000000000 1.4560297239 0.0451125392 -208.8431597991 0.6290366299 1.3732105067
4.3211940296 -1.9788942949 0.0000000000 0.3004817802 -0.0343836232 -183.5491057133 0.1211940296 1.3211057051
20.0000000000 4.7000000000 0.0000000000 1.1922802478 -0.0539868344 -0.1795450721 0.0000000000 0.0000000000
20.0000000000 -4.7000000000 0.0000000000 0.9641492231 -0.0513117071 1.5047492008 0.0000000000 0.0000000000
-10.0000000000 15.0000000000 0.0000000000 1.0000000000 0.0000000000 154.4580262842 0.0000000000 0.0000000000
20.0000000000 15.0000000000 0.0000000000 1.0559347302 0.0000000000 -0.0544903270 0.0000000000 0.0000000000
20.0000000000 -15.0000000000 0.0000000000 1.0487653814 0.0000000000 0.0601700644 0.0000000000 0.0000000000
-10.0000000000 -15.0000000000 0.0000000000 1.0000000000 0.0000000000 120.0783464316 0.0000000000 0.0000000000
0.8288195343 1.3647841580 0.0000000000 0.0000000000 0.0000000000 -1920.7456841678 0.4622935982 1.7048705267
0.8412794600 1.3787268213 0.0000000000 0.0000000000 0.0000000000 -1882.2678434906 0.4622935982 1.7048705267
0.8532093396 1.3931256260 0.0000000000 0.0000000000 0.0000000000 -1846.9536916320 0.4622935982 1.7048705267
0.8645924883 1.4079604341 0.0000000000 0.0000000000 0.0000000000 -1806.0458578008 0.4622935982 1.7048705267
0.8754129855 1.4232104979 0.0000000000 0.0000000000 0.0000000000 -1764.2853678674 0.4622935982 1.7048705267
0.8856556980 1.4388544887 0.0000000000 0.0000000000 0.0000000000 -1719.5663731915 0.4622935982 1.7048705267
0.8953063002 1.4548705269 0.0000000000 0.0000000000 0.0000000000 -1673.3648713913 0.4622935982 1.7048705267
0.9043512951 1.4712362128 0.0000000000 0.0000000000 0.0000000000 -1625.2464233499 0.4622935982 1.7048705267
0.9127780323 1.4879286574 0.0000000000 0.0000000000 0.0000000000 -1575.7979038506 0.4622935982 1.7048705267
0.9205747262 1.5049245148 0.0000000000 0.0000000000 0.0000000000 -1525.0351398227 0.4622935982 1.7048705267
0.9277304726 1.5222000147 0.0000000000 0.0000000000 0.0000000000 -1473.2767156906 0.4622935982 1.7048705267
0.9342352634 1.5397309959 0.0000000000 0.0000000000 0.0000000000 -1420.6695778929 0.4622935982 1.7048705267
0.9400800012 1.5574929397 0.0000000000 0.0000000000 0.0000000000 -1367.4661735181 0.4622935982 1.7048705267
0.9452565114 1.5754610044 0.0000000000 0.0000000000 0.0000000000 -1313.8865364365 0.4622935982 1.7048705267
0.9497575543 1.5936100599 0.0000000000 0.0000000000 0.0000000000 -1260.2152671617 0.4622935982 1.7048705267
0.9535768348 1.6119147233 0.0000000000 0.0000000000 0.0000000000 -1206.7640257511 0.4622935982 1.7048705267
0.9567090113 1.6303493938 0.0000000000 0.0000000000 0.0000000000 -1153.9048663292 0.4622935982 1.7048705267
0.9591497032 1.6488882888 0.0000000000 0.0000000000 0.0000000000 -1102.0523069563 0.4622935982 1.7048705267
0.9608954968 1.6675054801 0.0000000000 0.0000000000 0.0000000000 -1051.6598698392 0.4622935982 1.7048705267
0.9619439506 1.6861749297 0.0000000000 0.0000000000 0.0000000000 -1003.1901127019 0.4622935982 1.7048705267
0.9622935982 1.7048705269 0.0000000000 0.0000000000 0.0000000000 -957.0825348473 0.4622935982 1.7048705267
0.9619439506 1.7235661240 0.0000000000 0.0000000000 0.0000000000 -913.7103874951 0.4622935982 1.7048705267
0.9608954968 1.7422355736 0.0000000000 0.0000000000 0.0000000000 -873.3421406611 0.4622935982 1.7048705267
0.9591497031 1.7608527649 0.0000000000 0.0000000000 0.0000000000 -836.1120326583 0.4622935982 1.7048705267
0.9567090113 1.7793916599 0.0000000000 0.0000000000 0.0000000000 -802.0103062455 0.4622935982 1.7048705267
0.9535768348 1.7978263304 0.0000000000 0.0000000000 0.0000000000 -770.8947993541 0.4622935982 1.7048705267
0.9497575542 1.8161309938 0.0000000000 0.0000000000 0.0000000000 -742.5221852855 0.4622935982 1.7048705267
0.9452565113 1.8342800494 0.0000000000 0.0000000000 0.0000000000 -716.5902006449 0.4622935982 1.7048705267
0.9400800010 1.8522481140 0.0000000000 0.0000000000 0.0000000000 -692.7805421881 0.4622935982 1.7048705267
0.9342352633 1.8700100578 0.0000000000 0.0000000000 0.0000000000 -670.7930621414 0.4622935982 1.7048705267
0.9277304725 1.8875410390 0.0000000000 0.0000000000 0.0000000000 -650.3661177052 0.4622935982 1.7048705267
0.9205747261 1.9048165389 0.0000000000 0.0000000000 0.0000000000 -631.2831933757 0.4622935982 1.7048705267
0.9127780321 1.9218123963 0.0000000000 0.0000000000 0.0000000000 -613.3696579575 0.4622935982 1.7048705267
0.9043512949 1.9385048409 0.0000000000 0.0000000000 0.0000000000 -596.4834240810 0.4622935982 1.7048705267
0.8953063000 1.9548705268 0.0000000000 0.0000000000 0.0000000000 -580.5080574017 0.4622935982 1.7048705267
0.8856556977 1.9708865650 0.0000000000 0.0000000000 0.0000000000 -565.3385726385 0.4622935982 1.7048705267
0.8754129853 1.9865305558 0.0000000000 0.0000000000 0.0000000000 -550.8902902698 0.4622935982 1.7048705267
0.8645924880 2.0017806195 0.0000000000 0.0000000000 0.0000000000 -537.0634794704 0.4622935982 1.7048705267
0.8532093394 2.0166154277 0.0000000000 0.0000000000 0.0000000000 -523.8051711377 0.4622935982 1.7048705267
0.8412794597 2.0310142324 0.0000000000 0.0000000000 0.0000000000 -510.9823084891 0.4622935982 1.7048705267
0.8288195341 2.0449568956 0.0000000000 0.0000000000 0.0000000000 -498.6127235536 0.4622935982 1.7048705267
0.8009343840 2.0727324820 0.0000000000 0.0000000000 0.0000000000 -473.4225759913 0.4622935982 1.7048705267
0.7854432171 2.0864125608 0.0000000000 0.0000000000 0.0000000000 -460.4671430451 0.4622935982 1.7048705267
0.7693999545 2.0994407814 0.0000000000 0.0000000000 0.0000000000 -447.6467426736 0.4622935982 1.7048705267
0.7528320058 2.1117948853 0.0000000000 0.0000000000 0.0000000000 -434.7423823276 0.4622935982 1.7048705267
0.7357676772 2.1234537658 0.0000000000 0.0000000000 0.0000000000 -421.7115714022 0.4622935982 1.7048705267
0.7182361227 2.1343975039 0.0000000000 0.0000000000 0.0000000000 -408.4024947484 0.4622935982 1.7048705267
0.7002672946 2.1446074023 0.0000000000 0.0000000000 0.0000000000 -394.7340768457 0.4622935982 1.7048705267
0.6818918925 2.1540660176 0.0000000000 0.0000000000 0.0000000000 -380.5874257515 0.4622935982 1.7048705267
0.6631413104 2.1627571900 0.0000000000 0.0000000000 0.0000000000 -365.8748303865 0.4622935982 1.7048705267
0.6440475834 2.1706660707 0.0000000000 0.0000000000 0.0000000000 -350.5001891030 0.4622935982 1.7048705267
0.6246433327 2.1777791475 0.0000000000 0.0000000000 0.0000000000 -334.3848931379 0.4622935982 1.7048705267
0.6049617102 2.1840842679 0.0000000000 0.0000000000 0.0000000000 -317.4539190779 0.4622935982 1.7048705267
0.5850363417 2.1895706597 0.0000000000 0.0000000000 0.0000000000 -299.6452069653 0.4622935982 1.7048705267
0.5649012692 2.1942289493 0.0000000000 0.0000000000 0.0000000000 -280.9047856356 0.4622935982 1.7048705267
0.5445908932 2.1980511784 0.0000000000 0.0000000000 0.0000000000 -261.1898521384 0.4622935982 1.7048705267
0.5241399137 2.2010308165 0.0000000000 0.0000000000 0.0000000000 -240.4668588287 0.4622935982 1.7048705267
0.5035832708 2.2031627732 0.0000000000 0.0000000000 0.0000000000 -218.7121929703 0.4622935982 1.7048705267
0.4829560852 2.2044434059 0.0000000000 0.0000000000 0.0000000000 -195.9111544876 0.4622935982 1.7048705267
0.4622935981 2.2048705267 0.0000000000 0.0000000000 0.0000000000 -172.0577375300 0.4622935982 1.7048705267
0.4416311110 2.2044434059 0.0000000000 0.0000000000 0.0000000000 -147.1538536393 0.4622935982 1.7048705267
0.4210039253 2.2031627732 0.0000000000 0.0000000000 0.0000000000 -121.2087897201 0.4622935982 1.7048705267
0.4004472824 2.2010308165 0.0000000000 0.0000000000 0.0000000000 -94.2384858131 0.4622935982 1.7048705267
0.3799963029 2.1980511783 0.0000000000 0.0000000000 0.0000000000 -66.2648652733 0.4622935982 1.7048705267
0.3596859270 2.1942289493 0.0000000000 0.0000000000 0.0000000000 -37.3150904798 0.4622935982 1.7048705267
0.3395508545 2.1895706596 0.0000000000 0.0000000000 0.0000000000 -7.4208009648 0.4622935982 1.7048705267
0.3196254859 2.1840842679 0.0000000000 0.0000000000 0.0000000000 23.3827078733 0.4622935982 1.7048705267
0.2999438635 2.1777791475 0.0000000000 0.0000000000 0.0000000000 55.0573564587 0.4622935982 1.7048705267
0.2805396128 2.1706660706 0.0000000000 0.0000000000 0.0000000000 87.5632180083 0.4622935982 1.7048705267
0.2614458857 2.1627571899 0.0000000000 0.0000000000 0.0000000000 120.8595239389 0.4622935982 1.7048705267
0.2426953036 2.1540660176 0.0000000000 0.0000000000 0.0000000000 154.9057484471 0.4622935982 1.7048705267
0.2243199015 2.1446074022 0.0000000000 0.0000000000 0.0000000000 189.6627771356 0.4622935982 1.7048705267
0.2063510735 2.1343975038 0.0000000000 0.0000000000 0.0000000000 225.0941460549 0.4622935982 1.7048705267
0.1888195190 2.1234537657 0.0000000000 0.0000000000 0.0000000000 261.1672923308 0.4622935982 1.7048705267
0.1717551904 2.1117948852 0.0000000000 0.0000000000 0.0000000000 297.8546943578 0.4622935982 1.7048705267
0.1551872417 2.0994407813 0.0000000000 0.0000000000 0.0000000000 335.1347159266 0.4622935982 1.7048705267
0.1391439791 2.0864125607 0.0000000000 0.0000000000 0.0000000000 372.9919186717 0.4622935982 1.7048705267
0.1236528123 2.0727324819 0.0000000000 0.0000000000 0.0000000000 411.4165759457 0.4622935982 1.7048705267
0.0944316427 2.0435113124 0.0000000000 0.0000000000 0.0000000000 489.9475177183 0.4622935982 1.7048705267
0.0807515640 2.0280201455 0.0000000000 0.0000000000 0.0000000000 530.0435963432 0.4622935982 1.7048705267
0.0677233434 2.0119768829 0.0000000000 0.0000000000 0.0000000000 570.6799498713 0.4622935982 1.7048705267
0.0553692394 1.9954089342 0.0000000000 0.0000000000 0.0000000000 611.8392160171 0.4622935982 1.7048705267
0.0437103590 1.9783446056 0.0000000000 0.0000000000 0.0000000000 653.5036352716 0.4622935982 1.7048705267
0.0327666209 1.9608130511 0.0000000000 0.0000000000 0.0000000000 695.6713470888 0.4622935982 1.7048705267
0.0225567225 1.9428442230 0.0000000000 0.0000000000 0.0000000000 738.3873582878 0.4622935982 1.7048705267
0.0130981072 1.9244688209 0.0000000000 0.0000000000 0.0000000000 781.7891409122 0.4622935982 1.7048705267
0.0044069348 1.9057182388 0.0000000000 0.0000000000 0.0000000000 826.1586713123 0.4622935982 1.7048705267
-0.0035019459 1.8866245118 0.0000000000 0.0000000000 0.0000000000 871.9627359047 0.4622935982 1.7048705267
-0.0106150227 1.8672202611 0.0000000000 0.0000000000 0.0000000000 919.8577253864 0.4622935982 1.7048705267
-0.0169201431 1.8475386386 0.0000000000 0.0000000000 0.0000000000 970.6406419515 0.4622935982 1.7048705267
-0.0224065348 1.8276132701 0.0000000000 0.0000000000 0.0000000000 1025.1457638313 0.4622935982 1.7048705267
-0.0270648245 1.8074781976 0.0000000000 0.0000000000 0.0000000000 1084.1085504300 0.4622935982 1.7048705267
-0.0308870536 1.7871678216 0.0000000000 0.0000000000 0.0000000000 1148.0324370782 0.4622935982 1.7048705267
-0.0338666917 1.7667168421 0.0000000000 0.0000000000 0.0000000000 1217.0922184274 0.4622935982 1.7048705267
-0.0359986483 1.7461601992 0.0000000000 0.0000000000 0.0000000000 1291.0921929508 0.4622935982 1.7048705267
-0.0372792810 1.7255330136 0.0000000000 0.0000000000 0.0000000000 1369.4780449932 0.4622935982 1.7048705267
-0.0377064018 1.7048705265 0.0000000000 0.0000000000 0.0000000000 1451.3879369998 0.4622935982 1.7048705267
-0.0372792810 1.6842080393 0.0000000000 0.0000000000 0.0000000000 1535.7238929816 0.4622935982 1.7048705267
-0.0359986483 1.6635808537 0.0000000000 0.0000000000 0.0000000000 1621.2271927530 0.4622935982 1.7048705267
-0.0338666917 1.6430242108 0.0000000000 0.0000000000 0.0000000000 1706.5471259399 0.4622935982 1.7048705267
-0.0308870535 1.6225732313 0.0000000000 0.0000000000 0.0000000000 1790.2979229392 0.4622935982 1.7048705267
-0.0270648244 1.6022628554 0.0000000000 0.0000000000 0.0000000000 1871.1025627676 0.4622935982 1.7048705267
-0.0224065347 1.5821277829 0.0000000000 0.0000000000 0.0000000000 1947.6243139317 0.4622935982 1.7048705267
-0.0169201430 1.5622024143 0.0000000000 0.0000000000 0.0000000000 2018.5877360995 0.4622935982 1.7048705267
-0.0106150226 1.5425207918 0.0000000000 0.0000000000 0.0000000000 2082.7909880707 0.4622935982 1.7048705267
-0.0035019458 1.5231165412 0.0000000000 0.0000000000 0.0000000000 2139.1110803575 0.4622935982 1.7048705267
0.0044069349 1.5040228141 0.0000000000 0.0000000000 0.0000000000 2186.5034387934 0.4622935982 1.7048705267
0.0130981073 1.4852722320 0.0000000000 0.0000000000 0.0000000000 2223.9969754066 0.4622935982 1.7048705267
0.0225567227 1.4668968299 0.0000000000 0.0000000000 0.0000000000 2250.6858346153 0.4622935982 1.7048705267
0.0327666211 1.4489280019 0.0000000000 0.0000000000 0.0000000000 2265.7191556146 0.4622935982 1.7048705267
0.0437103592 1.4313964474 0.0000000000 0.0000000000 0.0000000000 2268.2904753076 0.4622935982 1.7048705267
0.0553692397 1.4143321188 0.0000000000 0.0000000000 0.0000000000 2257.6288448800 0.4622935982 1.7048705267
0.0677233436 1.3977641701 0.0000000000 0.0000000000 0.0000000000 2232.9940854260 0.4622935982 1.7048705267
0.0807515642 1.3817209075 0.0000000000 0.0000000000 0.0000000000 2193.6790145606 0.4622935982 1.7048705267
0.0944316430 1.3662297407 0.0000000000 0.0000000000 0.0000000000 2139.0213474943 0.4622935982 1.7048705267
0.1236528126 1.3370085712 0.0000000000 0.0000000000 0.0000000000 1981.4118601793 0.4622935982 1.7048705267
0.1391439794 1.3233284924 0.0000000000 0.0000000000 0.0000000000 1877.6445334278 0.4622935982 1.7048705267
0.1551872420 1.3103002718 0.0000000000 0.0000000000 0.0000000000 1757.0165820989 0.4622935982 1.7048705267
0.1717551907 1.2979461679 0.0000000000 0.0000000000 0.0000000000 1619.7061849575 0.4622935982 1.7048705267
0.1888195193 1.2862872874 0.0000000000 0.0000000000 0.0000000000 1466.2447756064 0.4622935982 1.7048705267
0.2063510739 1.2753435493 0.0000000000 0.0000000000 0.0000000000 1297.5714451465 0.4622935982 1.7048705267
0.2243199019 1.2651336509 0.0000000000 0.0000000000 0.0000000000 1115.0658210568 0.4622935982 1.7048705267
0.2426953040 1.2556750356 0.0000000000 0.0000000000 0.0000000000 920.5510604729 0.4622935982 1.7048705267
0.2614458861 1.2469838632 0.0000000000 0.0000000000 0.0000000000 716.2621214026 0.4622935982 1.7048705267
0.2805396132 1.2390749825 0.0000000000 0.0000000000 0.0000000000 504.7796016563 0.4622935982 1.7048705267
0.2999438638 1.2319619057 0.0000000000 0.0000000000 0.0000000000 288.9347963898 0.4622935982 1.7048705267
0.3196254863 1.2256567854 0.0000000000 0.0000000000 0.0000000000 71.6958051785 0.4622935982 1.7048705267
0.3395508549 1.2201703936 0.0000000000 0.0000000000 0.0000000000 -143.9535109490 0.4622935982 1.7048705267
0.3596859274 1.2155121039 0.0000000000 0.0000000000 0.0000000000 -355.1309264359 0.4622935982 1.7048705267
0.3799963033 1.2116898749 0.0000000000 0.0000000000 0.0000000000 -559.1613481151 0.4622935982 1.7048705267
0.4004472828 1.2087102368 0.0000000000 0.0000000000 0.0000000000 -753.6661415053 0.4622935982 1.7048705267
0.4210039257 1.2065782801 0.0000000000 0.0000000000 0.0000000000 -936.6331518573 0.4622935982 1.7048705267
0.4416311114 1.2052976475 0.0000000000 0.0000000000 0.0000000000 -1106.4655867058 0.4622935982 1.7048705267
0.4622935985 1.2048705267 0.0000000000 0.0000000000 0.0000000000 -1262.0083916999 0.4622935982 1.7048705267
0.4829560856 1.2052976475 0.0000000000 0.0000000000 0.0000000000 -1402.5508540089 0.4622935982 1.7048705267
0.5035832712 1.2065782802 0.0000000000 0.0000000000 0.0000000000 -1527.8047270224 0.4622935982 1.7048705267
0.5241399141 1.2087102368 0.0000000000 0.0000000000 0.0000000000 -1637.8594546402 0.4622935982 1.7048705267
0.5445908936 1.2116898750 0.0000000000 0.0000000000 0.0000000000 -1733.1198868374 0.4622935982 1.7048705267
0.5649012696 1.2155121041 0.0000000000 0.0000000000 0.0000000000 -1814.2342847881 0.4622935982 1.7048705267
0.5850363421 1.2201703938 0.0000000000 0.0000000000 0.0000000000 -1882.0221358171 0.4622935982 1.7048705267
0.6049617106 1.2256567855 0.0000000000 0.0000000000 0.0000000000 -1937.4075667699 0.4622935982 1.7048705267
0.6246433331 1.2319619059 0.0000000000 0.0000000000 0.0000000000 -1981.3643576487 0.4622935982 1.7048705267
0.6440475838 1.2390749828 0.0000000000 0.0000000000 0.0000000000 -2014.8722822212 0.4622935982 1.7048705267
0.6631413108 1.2469838635 0.0000000000 0.0000000000 0.0000000000 -2038.8789122979 0.4622935982 1.7048705267
0.6818918929 1.2556750359 0.0000000000 0.0000000000 0.0000000000 -2054.2945341178 0.4622935982 1.7048705267
0.7002672950 1.2651336512 0.0000000000 0.0000000000 0.0000000000 -2061.9123288917 0.4622935982 1.7048705267
0.7182361230 1.2753435497 0.0000000000 0.0000000000 0.0000000000 -2062.5609332549 0.4622935982 1.7048705267
0.7357676775 1.2862872877 0.0000000000 0.0000000000 0.0000000000 -2056.7064467374 0.4622935982 1.7048705267
0.7528320062 1.2979461682 0.0000000000 0.0000000000 0.0000000000 -2045.2690466486 0.4622935982 1.7048705267
0.7693999548 1.3103002722 0.0000000000 0.0000000000 0.0000000000 -2028.1516592032 0.4622935982 1.7048705267
0.7854432174 1.3233284928 0.0000000000 0.0000000000 0.0000000000 -2006.3220234011 0.4622935982 1.7048705267
0.8009343843 1.3370085716 0.0000000000 0.0000000000 0.0000000000 -1980.5530701468 0.4622935982 1.7048705267
1.0008720788 1.1843369383 0.0000000000 0.4473846369 0.2669970251 -1164.8025865271 0.4510831746 1.6944664912
1.0202225868 1.2046035272 0.0000000000 0.4270172965 0.2810565728 -1160.5206451717 0.4517437941 1.6938190853
1.0387788649 1.2255784873 0.0000000000 0.4069548346 0.2943344859 -1153.7761141992 0.4524052527 1.6931958383
1.0565122215 1.2472342794 0.0000000000 0.3872714752 0.3066422673 -1144.7385738494 0.4530638864 1.6925994182
1.0733951953 1.2695427859 0.0000000000 0.3680389285 0.3177650888 -1133.5459892879 0.4537161143 1.6920328290
1.0894018341 1.2924750975 0.0000000000 0.3493287079 0.3274948856 -1120.3522056733 0.4543586844 1.6914991545
1.1045078645 1.3160014316 0.0000000000 0.3312054720 0.3356515268 -1105.3147012850 0.4549888114 1.6910014312
1.1186907932 1.3400910994 0.0000000000 0.3137235022 0.3420997205 -1088.5966167783 0.4556042479 1.6905425702
1.1319299490 1.3647124998 0.0000000000 0.2969241156 0.3467577273 -1070.3646072102 0.4562032978 1.6901253037
1.1442064751 1.3898331285 0.0000000000 0.2808347299 0.3495990889 -1050.7874929211 0.4567847830 1.6897521463
1.1555032866 1.4154195931 0.0000000000 0.2654692064 0.3506487011 -1030.0346611307 0.4573479750 1.6894253610
1.1658050068 1.4414376325 0.0000000000 0.2508291392 0.3499752326 -1008.2746996064 0.4578925089 1.6891469286
1.1750978986 1.4678521369 0.0000000000 0.2369056673 0.3476817523 -985.6742419672 0.4584182941 1.6889185173
1.1833698023 1.4946271702 0.0000000000 0.2236814506 0.3438960840 -962.3970521824 0.4589254325 1.6887414536
1.1906100832 1.5217259943 0.0000000000 0.2111325303 0.3387619244 -938.6032924280 0.4594141490 1.6886166944
1.1968095916 1.5491110966 0.0000000000 0.1992299040 0.3324313110 -914.4488971628 0.4598847366 1.6885448016
1.2019606347 1.5767442215 0.0000000000 0.1879407280 0.3250586584 -890.0849649537 0.4603375150 1.6885259208
1.2060569579 1.6045864064 0.0000000000 0.1772291365 0.3167963269 -865.6570911775 0.4607728004 1.6885597631
1.2090937350 1.6325980225 0.0000000000 0.1670567120 0.3077915452 -841.3045922573 0.4611908871 1.6886455924
1.2110675657 1.6607388216 0.0000000000 0.1573826720 0.2981844439 -817.1596121996 0.4615920371 1.6887822170
1.2119764801 1.6889679880 0.0000000000 0.1481638524 0.2881069586 -793.3461459191 0.4619764801 1.6889679877
1.2118199487 1.7172441969 0.0000000000 0.1393545473 0.2776823682 -769.9790440583 0.4623444202 1.6892008009
1.2105988974 1.7455256792 0.0000000000 0.1309062108 0.2670252000 -747.1630569429 0.4626960496 1.6894781087
1.2083157260 1.7737702937 0.0000000000 0.1227669413 0.2562411436 -724.9919255568 0.4630315686 1.6897969364
1.2049743279 1.8019356064 0.0000000000 0.1148806914 0.2454266593 -703.5475030759 0.4633512083 1.6901539065
1.2005801095 1.8299789789 0.0000000000 0.1071865110 0.2346686620 -682.8990669820 0.4636552547 1.6905452733
1.1951400063 1.8578576666 0.0000000000 0.0996188627 0.2240463618 -663.1035171144 0.4639440722 1.6909669659
1.1886624937 1.8855289285 0.0000000000 0.0921103767 0.2136388730 -644.2078059160 0.4642181241 1.6914146444
1.1811575927 1.9129501487 0.0000000000 0.0845965845 0.2035392687 -626.2546877576 0.4644779884 1.6918837677
1.1726368683 1.9400789720 0.0000000000 0.0770172297 0.1938628453 -609.2903171306 0.4647243706 1.6923696753
1.1631134237 1.9668734503 0.0000000000 0.0693040802 0.1847163125 -593.3674926280 0.4649581123 1.6928676819
1.1526018895 1.9932922018 0.0000000000 0.0613496807 0.1760854314 -578.5352590727 0.4651801977 1.6933731834
1.1411184115 2.0192945761 0.0000000000 0.0529722552 0.1676352982 -564.8105581971 0.4653917606 1.6938817716
1.1286806374 2.0448408245 0.0000000000 0.0439198386 0.1585136287 -552.1425628985 0.4655940923 1.6943893531
1.1153077029 2.0698922678 0.0000000000 0.0339614637 0.1473504026 -540.3950965860 0.4657886501 1.6948922677
1.1010202128 2.0944114614 0.0000000000 0.0230667162 0.1326417954 -529.3701997598 0.4659770634 1.6953874039
1.0858402123 2.1183623509 0.0000000000 0.0115910504 0.1135088751 -518.8718192759 0.4661611317 1.6958723073
1.0697911423 2.1417104231 0.0000000000 0.0003295514 0.0905025731 -508.7792453660 0.4663428075 1.6963452838
1.0528977887 2.1644228534 0.0000000000 -0.0096544757 0.0659209180 -499.0871890711 0.4665241770 1.6968055019
1.0351862739 2.1864686690 0.0000000000 -0.0173802840 0.0432480087 -489.8853826861 0.4667074816 1.6972531105
1.0166842526 2.2078189276 0.0000000000 -0.0223081968 0.0258175447 -481.2903654200 0.4668953488 1.6976893742
0.9751648739 2.2502860586 0.0000000000 -0.0240866422 0.0115302340 -465.1542906652 0.4672036952 1.6984931255
0.9520451489 2.2711708037 0.0000000000 -0.0217190065 0.0125763946 -457.6031515430 0.4673207206 1.6988577525
0.9280993655 2.2910640522 0.0000000000 -0.0179837803 0.0149253798 -450.3880835899 0.4674398310 1.6992086701
0.9033663484 2.3099317795 0.0000000000 -0.0132454644 0.0161681834 -443.3166327652 0.4675587369 1.6995452415
0.8778865106 2.3277422788 0.0000000000 -0.0077129082 0.0157004384 -436.1830560458 0.4676753921 1.6998674200
0.8517016260 2.3444658749 0.0000000000 -0.0015786071 0.0141175278 -428.7586661475 0.4677878392 1.7001754090
0.8248546545 2.3600748799 0.0000000000 0.0049454860 0.0122583260 -420.7907293528 0.4678941098 1.7004695664
0.7973896320 2.3745435951 0.0000000000 0.0116666927 0.0106428943 -412.0283407997 0.4679921905 1.7007503587
0.7693516016 2.3878483125 0.0000000000 0.0184467556 0.0094399809 -402.2531890713 0.4680800332 1.7010183174
0.7407865741 2.3999673115 0.0000000000 0.0251996256 0.0086632174 -391.2937668803 0.4681555963 1.7012739954
0.7117415032 2.4108808603 0.0000000000 0.0318701101 0.0083124164 -379.0225319122 0.4682169015 1.7015179290
0.6822642658 2.4205712222 0.0000000000 0.0384179075 0.0084033910 -365.3472094961 0.4682620978 1.7017506104
0.6524036373 2.4290226677 0.0000000000 0.0448116967 0.0089544810 -350.2039569683 0.4682895220 1.7019724682
0.6222092568 2.4362214883 0.0000000000 0.0510269657 0.0099783970 -333.5528582220 0.4682977503 1.7021838543
0.5917315795 2.4421560116 0.0000000000 0.0570438315 0.0114824690 -315.3739323691 0.4682856369 1.7023850340
0.5610218134 2.4468166152 0.0000000000 0.0628449601 0.0134698579 -295.6631695031 0.4682523401 1.7025761804
0.5301318437 2.4501957424 0.0000000000 0.0684140745 0.0159400801 -274.4290474844 0.4681973347 1.7027573726
0.4991141446 2.4522879198 0.0000000000 0.0737349984 0.0188894901 -251.6898048888 0.4681204140 1.7029286010
0.4680216833 2.4530897776 0.0000000000 0.0787911429 0.0223118795 -227.4714481036 0.4680216835 1.7030897776
0.4369078176 2.4526000719 0.0000000000 0.0835654673 0.0261992743 -201.8064053621 0.4679015484 1.7032407531
0.4058261897 2.4508197083 0.0000000000 0.0880409075 0.0305429838 -174.7327194365 0.4677606990 1.7033813386
0.3748306188 2.4477517631 0.0000000000 0.0922012587 0.0353343857 -146.2934476737 0.4676000925 1.7035113283
0.3439749924 2.4434015009 0.0000000000 0.0960344012 0.0405694446 -116.5363532863 0.4674209352 1.7036305234
0.3133131569 2.4377763871 0.0000000000 0.0995399338 0.0462677638 -85.5161040787 0.4672246637 1.7037387531
0.2828988087 2.4308860941 0.0000000000 0.1027294374 0.0524803936 -53.2994390002 0.4670129242 1.7038358947
0.2527853835 2.4227425019 0.0000000000 0.1056037392 0.0592040415 -19.9613037219 0.4667875518 1.7039218901
0.2230259451 2.4133596939 0.0000000000 0.1081659641 0.0662978930 14.4448764862 0.4665505472 1.7039967627
0.1936730730 2.4027539484 0.0000000000 0.1106243271 0.0739662278 49.9251876038 0.4663040511 1.7040606324
0.1647787481 2.3909437258 0.0000000000 0.1137994101 0.0842990532 86.5262558353 0.4660503168 1.7041137309
0.1363942378 2.3779496527 0.0000000000 0.1193339850 0.1029297672 124.2204214478 0.4657916796 1.7041564164
0.1085699786 2.3637944997 0.0000000000 0.1291373630 0.1382742506 162.7719313651 0.4655305235 1.7041891864
0.0813554584 2.3485031525 0.0000000000 0.1441071947 0.1968212387 201.7530951661 0.4652692454 1.7042126868
0.0547990970 2.3321025749 0.0000000000 0.1631049423 0.2770028538 240.8244915234 0.4650102158 1.7042277163
0.0289481265 2.3146217618 0.0000000000 0.1832308057 0.3670860428 280.0945801250 0.4647557382 1.7042352240
0.0038484713 2.2960916816 0.0000000000 0.2013246138 0.4498535431 320.0931683228 0.4645080060 1.7042362997
-0.0204553703 2.2765452086 0.0000000000 0.2155014082 0.5108331859 361.2725015462 0.4642690583 1.7042321576
-0.0439204397 2.2560170446 0.0000000000 0.2256310059 0.5441296663 403.5720380216 0.4640407392 1.7042241117
-0.0881710311 2.2121630466 0.0000000000 0.2379754790 0.5441015246 489.1594275927 0.4636219020 1.7042018680
-0.1088793831 2.1889149877 0.0000000000 0.2422084061 0.5261757274 531.2180487412 0.4634336682 1.7041905595
-0.1285948141 2.1648405568 0.0000000000 0.2458027847 0.5040226395 572.4325415615 0.4632605681 1.7041810225
-0.1472836826 2.1399822139 0.0000000000 0.2489073232 0.4800774106 612.8775582596 0.4631028555 1.7041746026
-0.1649144367 2.1143836744 0.0000000000 0.2516142729 0.4551833788 652.7105222824 0.4629604221 1.7041725560
-0.1814576605 2.0880898081 0.0000000000 0.2540212476 0.4296310331 692.0580151828 0.4628328054 1.7041760215
-0.1968860997 2.0611465422 0.0000000000 0.2562276846 0.4036330675 730.9951093726 0.4627192138 1.7041859976
-0.2111746707 2.0336007671 0.0000000000 0.2583252027 0.3773954262 769.5678796782 0.4626185658 1.7042033257
-0.2243004549 2.0055002469 0.0000000000 0.2603990083 0.3510722982 807.8120350398 0.4625295402 1.7042286786
-0.2362426835 1.9768935338 0.0000000000 0.2625333350 0.3247472336 845.7553352783 0.4624506327 1.7042625561
-0.2469827171 1.9478298867 0.0000000000 0.2648145401 0.2984503379 883.4111158488 0.4623802142 1.7043052851
-0.2565040241 1.9183591924 0.0000000000 0.2673316504 0.2721840115 920.7708721494 0.4623165878 1.7043570245
-0.2647921610 1.8885318888 0.0000000000 0.2701760198 0.2459417244 957.7986581119 0.4622580385 1.7044177738
-0.2718347585 1.8583988893 0.0000000000 0.2734408199 0.2197187202 994.4270935191 0.4622028756 1.7044873829
-0.2776215137 1.8280115063 0.0000000000 0.2772202785 0.1935179038 1030.5544609466 0.4621494639 1.7045655639
-0.2821441895 1.7974213751 0.0000000000 0.2816085143 0.1673532897 1066.0428273889 0.4620962453 1.7046519020
-0.2853966195 1.7666803762 0.0000000000 0.2866979866 0.1412520416 1100.7173587125 0.4620417503 1.7047458674
-0.2873747181 1.7358405576 0.0000000000 0.2925776713 0.1152555208 1134.3669586564 0.4619846007 1.7048468272
-0.2880764933 1.7049540565 0.0000000000 0.2993310903 0.0894195824 1166.7462390366 0.4619235067 1.7049540568
-0.2875020600 1.6740730214 0.0000000000 0.3070343064 0.0638142909 1197.5787138685 0.4618572587 1.7050667524
-0.2856536520 1.6432495347 0.0000000000 0.3157539852 0.0385231897 1226.5610301130 0.4617847177 1.7051840441
-0.2825356321 1.6125355359 0.0000000000 0.3255456015 0.0136422354 1253.3680012525 0.4617048027 1.7053050096
-0.2781544994 1.5819827452 0.0000000000 0.3364518500 -0.0107215043 1277.6581940345 0.4616164781 1.7054286883
-0.2725188945 1.5516425888 0.0000000000 0.3485012953 -0.0344512920 1299.0798295488 0.4615187394 1.7055540957
-0.2656396023 1.5215661232 0.0000000000 0.3617072712 -0.0574222144 1317.2767914740 0.4614105970 1.7056802388
-0.2575295546 1.4918039616 0.0000000000 0.3760670219 -0.0795026529 1331.8945796025 0.4612910572 1.7058061301
-0.2482038298 1.4624061996 0.0000000000 0.3915610572 -0.1005556762 1342.5860976922 0.4611591014 1.7059308018
-0.2376796521 1.4334223410 0.0000000000 0.4081526883 -0.1204403290 1349.0172135530 0.4610136638 1.7060533193