 TITLE = "Tecplot data"
 VARIABLES = "X", "Y", "Z" "U", "V", "p", "dispX", "dispY"
 ZONE SOLUTIONTIME=156.900000, NODES=26114 , ELEMENTS=25916, DATAPACKING=POINT, ZONETYPE=FEQUADRILATERAL
0.4081663679 0.4081663679 0.0000000000 0.0010486289 0.0010486289 -336.5886492095 0.0546129773 0.0546129773
0.4081663682 -0.2989404130 0.0000000000 0.0010486289 0.0010486289 -554.2808428770 0.0546129773 0.0546129773
-0.2989404134 0.4081663678 0.0000000000 0.0010486289 0.0010486289 -80.5931324677 0.0546129773 0.0546129773
-0.2989404131 -0.2989404135 0.0000000000 0.0010486289 0.0010486289 -282.1464108571 0.0546129773 0.0546129773
0.5803881156 0.5804437519 0.0000000000 0.1280763494 -0.0463290572 -330.9400043004 0.0500580298 0.0501136659
0.5756082204 -0.4849612935 0.0000000000 0.5190632405 0.0307686100 -532.0681642871 0.0452781341 0.0453687920
-0.4853472902 0.5754748373 0.0000000000 0.8277948604 0.4612123836 105.5545579850 0.0449827959 0.0451447516
-0.4806637777 -0.4801822453 0.0000000000 0.9314202293 -0.5187368725 -23.4767649987 0.0496663079 0.0501478408
1.1003749074 1.1004488182 0.0000000000 1.2175519907 0.0685581264 -107.4930020863 0.0397147357 0.0397886464
1.0926520969 -1.0283330447 0.0000000000 1.2001553720 0.2125925531 -261.1458353320 0.0319919243 0.0323271263
-1.0294507894 1.0923333087 0.0000000000 0.9347887240 0.1540577002 108.6488680518 0.0312093827 0.0316731372
-1.0221378117 -1.0209177486 0.0000000000 0.9799500638 -0.1635008169 47.1396717971 0.0385223596 0.0397424237
4.2204973046 3.3179929295 0.0000000000 0.9968294967 -0.0064235058 28.6919909029 0.0204973046 0.0179929295
4.2123107153 -3.2890783591 0.0000000000 1.0413189075 0.0163454931 20.6324012795 0.0123107153 0.0109216409
20.0000000000 4.7000000000 0.0000000000 1.0401754069 0.0305626777 0.0596430346 0.0000000000 0.0000000000
20.0000000000 -4.7000000000 0.0000000000 1.0427987007 -0.0357317390 0.2431641889 0.0000000000 0.0000000000
-10.0000000000 15.0000000000 0.0000000000 1.0000000000 0.0000000000 39.1435561051 0.0000000000 0.0000000000
20.0000000000 15.0000000000 0.0000000000 1.0318480335 0.0000000000 0.0249903365 0.0000000000 0.0000000000
20.0000000000 -15.0000000000 0.0000000000 1.0316475530 0.0000000000 0.0230892307 0.0000000000 0.0000000000
-10.0000000000 -15.0000000000 0.0000000000 1.0000000000 0.0000000000 26.3084164826 0.0000000000 0.0000000000
0.4211389135 -0.2854733913 0.0000000000 0.0010486289 0.0010486289 -551.1633901338 0.0546129773 0.0546129773
0.4335988391 -0.2715307281 0.0000000000 0.0010486289 0.0010486289 -549.2432148166 0.0546129773 0.0546129773
0.4455287188 -0.2571319233 0.0000000000 0.0010486289 0.0010486289 -548.4892500751 0.0546129773 0.0546129773
0.4569118674 -0.2422971152 0.0000000000 0.0010486289 0.0010486289 -548.7584094351 0.0546129773 0.0546129773
0.4677323647 -0.2270470514 0.0000000000 0.0010486289 0.0010486289 -549.9053592056 0.0546129773 0.0546129773
0.4779750771 -0.2114030607 0.0000000000 0.0010486289 0.0010486289 -551.7334054591 0.0546129773 0.0546129773
0.4876256794 -0.1953870224 0.0000000000 0.0010486289 0.0010486289 -554.0658118062 0.0546129773 0.0546129773
0.4966706742 -0.1790213366 0.0000000000 0.0010486289 0.0010486289 -556.7220211146 0.0546129773 0.0546129773
0.5050974114 -0.1623288920 0.0000000000 0.0010486289 0.0010486289 -559.5223073111 0.0546129773 0.0546129773
0.5128941054 -0.1453330346 0.0000000000 0.0010486289 0.0010486289 -562.2691449618 0.0546129773 0.0546129773
0.5200498517 -0.1280575346 0.0000000000 0.0010486289 0.0010486289 -564.7416181279 0.0546129773 0.0546129773
0.5265546426 -0.1105265534 0.0000000000 0.0010486289 0.0010486289 -566.6917964685 0.0546129773 0.0546129773
0.5323993803 -0.0927646096 0.0000000000 0.0010486289 0.0010486289 -567.8504214377 0.0546129773 0.0546129773
0.5375758905 -0.0747965450 0.0000000000 0.0010486289 0.0010486289 -567.9382159721 0.0546129773 0.0546129773
0.5420769335 -0.0566474894 0.0000000000 0.0010486289 0.0010486289 -566.6831985384 0.0546129773 0.0546129773
0.5458962140 -0.0383428260 0.0000000000 0.0010486289 0.0010486289 -563.8415198664 0.0546129773 0.0546129773
0.5490283905 -0.0199081555 0.0000000000 0.0010486289 0.0010486289 -559.2197463577 0.0546129773 0.0546129773
0.5514690823 -0.0013692605 0.0000000000 0.0010486289 0.0010486289 -552.6954978920 0.0546129773 0.0546129773
0.5532148759 0.0172479307 0.0000000000 0.0010486289 0.0010486289 -544.2334915934 0.0546129773 0.0546129773
0.5542633297 0.0359173804 0.0000000000 0.0010486289 0.0010486289 -533.8943104825 0.0546129773 0.0546129773
0.5546129773 0.0546129775 0.0000000000 0.0010486289 0.0010486289 -521.8342522472 0.0546129773 0.0546129773
0.5542633297 0.0733085747 0.0000000000 0.0010486289 0.0010486289 -508.2958225984 0.0546129773 0.0546129773
0.5532148759 0.0919780243 0.0000000000 0.0010486289 0.0010486289 -493.5900604207 0.0546129773 0.0546129773
0.5514690822 0.1105952156 0.0000000000 0.0010486289 0.0010486289 -478.0729118404 0.0546129773 0.0546129773
0.5490283904 0.1291341106 0.0000000000 0.0010486289 0.0010486289 -462.1192668563 0.0546129773 0.0546129773
0.5458962139 0.1475687811 0.0000000000 0.0010486289 0.0010486289 -446.0976625921 0.0546129773 0.0546129773
0.5420769334 0.1658734445 0.0000000000 0.0010486289 0.0010486289 -430.3499290044 0.0546129773 0.0546129773
0.5375758904 0.1840225000 0.0000000000 0.0010486289 0.0010486289 -415.1761887812 0.0546129773 0.0546129773
0.5323993802 0.2019905647 0.0000000000 0.0010486289 0.0010486289 -400.8295517200 0.0546129773 0.0546129773
0.5265546424 0.2197525084 0.0000000000 0.0010486289 0.0010486289 -387.5140487773 0.0546129773 0.0546129773
0.5200498516 0.2372834896 0.0000000000 0.0010486289 0.0010486289 -375.3946880819 0.0546129773 0.0546129773
0.5128941052 0.2545589896 0.0000000000 0.0010486289 0.0010486289 -364.5980204036 0.0546129773 0.0546129773
0.5050974112 0.2715548470 0.0000000000 0.0010486289 0.0010486289 -355.2334479138 0.0546129773 0.0546129773
0.4966706740 0.2882472916 0.0000000000 0.0010486289 0.0010486289 -347.3732564709 0.0546129773 0.0546129773
0.4876256792 0.3046129774 0.0000000000 0.0010486289 0.0010486289 -341.0932781043 0.0546129773 0.0546129773
0.4779750769 0.3206290157 0.0000000000 0.0010486289 0.0010486289 -336.3906776285 0.0546129773 0.0546129773
0.4677323644 0.3362730064 0.0000000000 0.0010486289 0.0010486289 -333.3018514677 0.0546129773 0.0546129773
0.4569118672 0.3515230702 0.0000000000 0.0010486289 0.0010486289 -331.6622474449 0.0546129773 0.0546129773
0.4455287185 0.3663578783 0.0000000000 0.0010486289 0.0010486289 -331.4925727820 0.0546129773 0.0546129773
0.4335988388 0.3807566830 0.0000000000 0.0010486289 0.0010486289 -332.3241029364 0.0546129773 0.0546129773
0.4211389132 0.3946993462 0.0000000000 0.0010486289 0.0010486289 -334.3538488663 0.0546129773 0.0546129773
0.3932537631 0.4224749327 0.0000000000 0.0010486289 0.0010486289 -340.1356880828 0.0546129773 0.0546129773
0.3777625962 0.4361550115 0.0000000000 0.0010486289 0.0010486289 -343.4758203541 0.0546129773 0.0546129773
0.3617193336 0.4491832321 0.0000000000 0.0010486289 0.0010486289 -347.1516991732 0.0546129773 0.0546129773
0.3451513850 0.4615373360 0.0000000000 0.0010486289 0.0010486289 -350.7104256445 0.0546129773 0.0546129773
0.3280870563 0.4731962165 0.0000000000 0.0010486289 0.0010486289 -354.5053975568 0.0546129773 0.0546129773
0.3105555018 0.4841399545 0.0000000000 0.0010486289 0.0010486289 -358.5554852329 0.0546129773 0.0546129773
0.2925866738 0.4943498530 0.0000000000 0.0010486289 0.0010486289 -363.1546354760 0.0546129773 0.0546129773
0.2742112717 0.5038084683 0.0000000000 0.0010486289 0.0010486289 -368.4428453052 0.0546129773 0.0546129773
0.2554606896 0.5124996407 0.0000000000 0.0010486289 0.0010486289 -374.5953444343 0.0546129773 0.0546129773
0.2363669625 0.5204085214 0.0000000000 0.0010486289 0.0010486289 -381.6831628672 0.0546129773 0.0546129773
0.2169627118 0.5275215982 0.0000000000 0.0010486289 0.0010486289 -389.7451328011 0.0546129773 0.0546129773
0.1972810894 0.5338267186 0.0000000000 0.0010486289 0.0010486289 -398.7522698031 0.0546129773 0.0546129773
0.1773557208 0.5393131103 0.0000000000 0.0010486289 0.0010486289 -408.6320456304 0.0546129773 0.0546129773
0.1572206483 0.5439714000 0.0000000000 0.0010486289 0.0010486289 -419.2524203769 0.0546129773 0.0546129773
0.1369102724 0.5477936290 0.0000000000 0.0010486289 0.0010486289 -430.4233282936 0.0546129773 0.0546129773
0.1164592929 0.5507732672 0.0000000000 0.0010486289 0.0010486289 -441.8887857679 0.0546129773 0.0546129773
0.0959026500 0.5529052238 0.0000000000 0.0010486289 0.0010486289 -453.3289932494 0.0546129773 0.0546129773
0.0752754643 0.5541858565 0.0000000000 0.0010486289 0.0010486289 -464.3641306118 0.0546129773 0.0546129773
0.0546129772 0.5546129773 0.0000000000 0.0010486289 0.0010486289 -474.5648196485 0.0546129773 0.0546129773
0.0339504901 0.5541858565 0.0000000000 0.0010486289 0.0010486289 -483.4658742167 0.0546129773 0.0546129773
0.0133233045 0.5529052238 0.0000000000 0.0010486289 0.0010486289 -490.5837178528 0.0546129773 0.0546129773
-0.0072333384 0.5507732672 0.0000000000 0.0010486289 0.0010486289 -495.4353357877 0.0546129773 0.0546129773
-0.0276843179 0.5477936290 0.0000000000 0.0010486289 0.0010486289 -497.5576720952 0.0546129773 0.0546129773
-0.0479946939 0.5439714000 0.0000000000 0.0010486289 0.0010486289 -496.5258393874 0.0546129773 0.0546129773
-0.0681297664 0.5393131103 0.0000000000 0.0010486289 0.0010486289 -491.9690629049 0.0546129773 0.0546129773
-0.0880551349 0.5338267185 0.0000000000 0.0010486289 0.0010486289 -483.5834752089 0.0546129773 0.0546129773
-0.1077367574 0.5275215981 0.0000000000 0.0010486289 0.0010486289 -471.1413521890 0.0546129773 0.0546129773
-0.1271410081 0.5204085213 0.0000000000 0.0010486289 0.0010486289 -454.4967113639 0.0546129773 0.0546129773
-0.1462347351 0.5124996406 0.0000000000 0.0010486289 0.0010486289 -433.5875113854 0.0546129773 0.0546129773
-0.1649853172 0.5038084682 0.0000000000 0.0010486289 0.0010486289 -408.4348875341 0.0546129773 0.0546129773
-0.1833607193 0.4943498529 0.0000000000 0.0010486289 0.0010486289 -379.1399712670 0.0546129773 0.0546129773
-0.2013295473 0.4841399544 0.0000000000 0.0010486289 0.0010486289 -345.8788651233 0.0546129773 0.0546129773
-0.2188611019 0.4731962164 0.0000000000 0.0010486289 0.0010486289 -308.8963069014 0.0546129773 0.0546129773
-0.2359254305 0.4615373359 0.0000000000 0.0010486289 0.0010486289 -268.4984780992 0.0546129773 0.0546129773
-0.2524933791 0.4491832319 0.0000000000 0.0010486289 0.0010486289 -225.0453158822 0.0546129773 0.0546129773
-0.2685366417 0.4361550113 0.0000000000 0.0010486289 0.0010486289 -178.9425949367 0.0546129773 0.0546129773
-0.2840278086 0.4224749326 0.0000000000 0.0010486289 0.0010486289 -130.6339713317 0.0546129773 0.0546129773
-0.3132489781 0.3932537630 0.0000000000 0.0010486289 0.0010486289 -29.3161730485 0.0546129773 0.0546129773
-0.3269290569 0.3777625961 0.0000000000 0.0010486289 0.0010486289 22.6856946760 0.0546129773 0.0546129773
-0.3399572775 0.3617193335 0.0000000000 0.0010486289 0.0010486289 74.8930020352 0.0546129773 0.0546129773
-0.3523113814 0.3451513849 0.0000000000 0.0010486289 0.0010486289 126.7843880571 0.0546129773 0.0546129773
-0.3639702619 0.3280870562 0.0000000000 0.0010486289 0.0010486289 177.8424360454 0.0546129773 0.0546129773
-0.3749140000 0.3105555017 0.0000000000 0.0010486289 0.0010486289 227.5589924041 0.0546129773 0.0546129773
-0.3851238984 0.2925866737 0.0000000000 0.0010486289 0.0010486289 275.4400085920 0.0546129773 0.0546129773
-0.3945825137 0.2742112716 0.0000000000 0.0010486289 0.0010486289 321.0099616364 0.0546129773 0.0546129773
-0.4032736861 0.2554606895 0.0000000000 0.0010486289 0.0010486289 363.8159067035 0.0546129773 0.0546129773
-0.4111825668 0.2363669624 0.0000000000 0.0010486289 0.0010486289 403.4312023495 0.0546129773 0.0546129773
-0.4182956436 0.2169627117 0.0000000000 0.0010486289 0.0010486289 439.4589323474 0.0546129773 0.0546129773
-0.4246007640 0.1972810893 0.0000000000 0.0010486289 0.0010486289 471.5350328836 0.0546129773 0.0546129773
-0.4300871557 0.1773557207 0.0000000000 0.0010486289 0.0010486289 499.3311231872 0.0546129773 0.0546129773
-0.4347454454 0.1572206482 0.0000000000 0.0010486289 0.0010486289 522.5570316871 0.0546129773 0.0546129773
-0.4385676744 0.1369102723 0.0000000000 0.0010486289 0.0010486289 540.9630077192 0.0546129773 0.0546129773
-0.4415473126 0.1164592928 0.0000000000 0.0010486289 0.0010486289 554.3416093655 0.0546129773 0.0546129773
-0.4436792692 0.0959026499 0.0000000000 0.0010486289 0.0010486289 562.5292600658 0.0546129773 0.0546129773
-0.4449599019 0.0752754642 0.0000000000 0.0010486289 0.0010486289 565.4074693390 0.0546129773 0.0546129773
-0.4453870227 0.0546129771 0.0000000000 0.0010486289 0.0010486289 562.9037156844 0.0546129773 0.0546129773
-0.4449599019 0.0339504900 0.0000000000 0.0010486289 0.0010486289 554.9919920834 0.0546129773 0.0546129773
-0.4436792692 0.0133233044 0.0000000000 0.0010486289 0.0010486289 541.6930162309 0.0546129773 0.0546129773
-0.4415473125 -0.0072333385 0.0000000000 0.0010486289 0.0010486289 523.0741086149 0.0546129773 0.0546129773
-0.4385676743 -0.0276843180 0.0000000000 0.0010486289 0.0010486289 499.2487419003 0.0546129773 0.0546129773
-0.4347454453 -0.0479946940 0.0000000000 0.0010486289 0.0010486289 470.3757649387 0.0546129773 0.0546129773
-0.4300871556 -0.0681297665 0.0000000000 0.0010486289 0.0010486289 436.6583043890 0.0546129773 0.0546129773
-0.4246007638 -0.0880551350 0.0000000000 0.0010486289 0.0010486289 398.3423466648 0.0546129773 0.0546129773
-0.4182956435 -0.1077367575 0.0000000000 0.0010486289 0.0010486289 355.7150028764 0.0546129773 0.0546129773
-0.4111825666 -0.1271410082 0.0000000000 0.0010486289 0.0010486289 309.1024596730 0.0546129773 0.0546129773
-0.4032736859 -0.1462347352 0.0000000000 0.0010486289 0.0010486289 258.8676192804 0.0546129773 0.0546129773
-0.3945825135 -0.1649853173 0.0000000000 0.0010486289 0.0010486289 205.4074323652 0.0546129773 0.0546129773
-0.3851238982 -0.1833607194 0.0000000000 0.0010486289 0.0010486289 149.1499273709 0.0546129773 0.0546129773
-0.3749139997 -0.2013295474 0.0000000000 0.0010486289 0.0010486289 90.5509394428 0.0546129773 0.0546129773
-0.3639702617 -0.2188611019 0.0000000000 0.0010486289 0.0010486289 30.0905408333 0.0546129773 0.0546129773
-0.3523113812 -0.2359254306 0.0000000000 0.0010486289 0.0010486289 -31.7308272718 0.0546129773 0.0546129773
-0.3399572772 -0.2524933792 0.0000000000 0.0010486289 0.0010486289 -94.3965241511 0.0546129773 0.0546129773
-0.3269290566 -0.2685366418 0.0000000000 0.0010486289 0.0010486289 -157.3781858449 0.0546129773 0.0546129773
-0.3132489778 -0.2840278087 0.0000000000 0.0010486289 0.0010486289 -220.1405171452 0.0546129773 0.0546129773
-0.2840278083 -0.3132489782 0.0000000000 0.0010486289 0.0010486289 -342.8624076834 0.0546129773 0.0546129773
-0.2685366414 -0.3269290570 0.0000000000 0.0010486289 0.0010486289 -401.7645100545 0.0546129773 0.0546129773
-0.2524933788 -0.3399572775 0.0000000000 0.0010486289 0.0010486289 -458.3443602617 0.0546129773 0.0546129773
-0.2359254302 -0.3523113815 0.0000000000 0.0010486289 0.0010486289 -512.1157859836 0.0546129773 0.0546129773
-0.2188611015 -0.3639702620 0.0000000000 0.0010486289 0.0010486289 -562.6217030437 0.0546129773 0.0546129773
-0.2013295470 -0.3749140000 0.0000000000 0.0010486289 0.0010486289 -609.4413440627 0.0546129773 0.0546129773
-0.1833607190 -0.3851238984 0.0000000000 0.0010486289 0.0010486289 -652.1977505961 0.0546129773 0.0546129773
-0.1649853169 -0.3945825137 0.0000000000 0.0010486289 0.0010486289 -690.5654235446 0.0546129773 0.0546129773
-0.1462347348 -0.4032736861 0.0000000000 0.0010486289 0.0010486289 -724.2779709862 0.0546129773 0.0546129773
-0.1271410077 -0.4111825668 0.0000000000 0.0010486289 0.0010486289 -753.1355242939 0.0546129773 0.0546129773
-0.1077367570 -0.4182956436 0.0000000000 0.0010486289 0.0010486289 -777.0116148903 0.0546129773 0.0546129773
-0.0880551345 -0.4246007640 0.0000000000 0.0010486289 0.0010486289 -795.8591208108 0.0546129773 0.0546129773
-0.0681297660 -0.4300871557 0.0000000000 0.0010486289 0.0010486289 -809.7148139715 0.0546129773 0.0546129773
-0.0479946935 -0.4347454454 0.0000000000 0.0010486289 0.0010486289 -818.7019797568 0.0546129773 0.0546129773
-0.0276843175 -0.4385676744 0.0000000000 0.0010486289 0.0010486289 -823.0305581656 0.0546129773 0.0546129773
-0.0072333380 -0.4415473126 0.0000000000 0.0010486289 0.0010486289 -822.9942907122 0.0546129773 0.0546129773
0.0133233049 -0.4436792692 0.0000000000 0.0010486289 0.0010486289 -818.9644676443 0.0546129773 0.0546129773
0.0339504905 -0.4449599019 0.0000000000 0.0010486289 0.0010486289 -811.3800686620 0.0546129773 0.0546129773
0.0546129776 -0.4453870227 0.0000000000 0.0010486289 0.0010486289 -800.7343734289 0.0546129773 0.0546129773
0.0752754648 -0.4449599019 0.0000000000 0.0010486289 0.0010486289 -787.5584699829 0.0546129773 0.0546129773
0.0959026504 -0.4436792692 0.0000000000 0.0010486289 0.0010486289 -772.4024590598 0.0546129773 0.0546129773
0.1164592933 -0.4415473125 0.0000000000 0.0010486289 0.0010486289 -755.8154997644 0.0546129773 0.0546129773
0.1369102728 -0.4385676743 0.0000000000 0.0010486289 0.0010486289 -738.3260630007 0.0546129773 0.0546129773
0.1572206487 -0.4347454453 0.0000000000 0.0010486289 0.0010486289 -720.4238731277 0.0546129773 0.0546129773
0.1773557212 -0.4300871556 0.0000000000 0.0010486289 0.0010486289 -702.5448323488 0.0546129773 0.0546129773
0.1972810898 -0.4246007638 0.0000000000 0.0010486289 0.0010486289 -685.0600452447 0.0546129773 0.0546129773
0.2169627122 -0.4182956434 0.0000000000 0.0010486289 0.0010486289 -668.2692194954 0.0546129773 0.0546129773
0.2363669629 -0.4111825666 0.0000000000 0.0010486289 0.0010486289 -652.3986202870 0.0546129773 0.0546129773
0.2554606900 -0.4032736859 0.0000000000 0.0010486289 0.0010486289 -637.6017167487 0.0546129773 0.0546129773
0.2742112720 -0.3945825135 0.0000000000 0.0010486289 0.0010486289 -623.9632431508 0.0546129773 0.0546129773
0.2925866741 -0.3851238981 0.0000000000 0.0010486289 0.0010486289 -611.5026917341 0.0546129773 0.0546129773
0.3105555022 -0.3749139997 0.0000000000 0.0010486289 0.0010486289 -600.1881188659 0.0546129773 0.0546129773
0.3280870567 -0.3639702616 0.0000000000 0.0010486289 0.0010486289 -589.9468213112 0.0546129773 0.0546129773
0.3451513853 -0.3523113811 0.0000000000 0.0010486289 0.0010486289 -580.7154036204 0.0546129773 0.0546129773
0.3617193339 -0.3399572772 0.0000000000 0.0010486289 0.0010486289 -572.4396838581 0.0546129773 0.0546129773
0.3777625965 -0.3269290566 0.0000000000 0.0010486289 0.0010486289 -565.2005488732 0.0546129773 0.0546129773
0.3932537634 -0.3132489778 0.0000000000 0.0010486289 0.0010486289 -559.0090083854 0.0546129773 0.0546129773
0.5952602331 -0.4649269995 0.0000000000 0.4141597868 0.0140196384 -528.8177526135 0.0454713288 0.0452025534
0.6141549671 -0.4441649869 0.0000000000 0.3238564113 -0.0078112477 -526.1990207507 0.0456761744 0.0450505712
0.6322651775 -0.4227036756 0.0000000000 0.2528410162 -0.0349317226 -524.6288958431 0.0458915654 0.0449136754
0.6495646739 -0.4005725261 0.0000000000 0.2036367192 -0.0672323761 -524.5101496266 0.0461163387 0.0447926127
0.6660283613 -0.3778020009 0.0000000000 0.1753796922 -0.1039605885 -526.1533791064 0.0463492803 0.0446880423
0.6816322809 -0.3544235246 0.0000000000 0.1637646370 -0.1436627013 -529.7195440644 0.0465891312 0.0446005324
0.6963536478 -0.3304694421 0.0000000000 0.1625020946 -0.1844814388 -535.2047496577 0.0468345947 0.0445305575
0.7101708883 -0.3059729751 0.0000000000 0.1654223913 -0.2245961822 -542.4556023856 0.0470843429 0.0444784957
0.7230636756 -0.2809681771 0.0000000000 0.1679379540 -0.2625364214 -551.1799281356 0.0473370245 0.0444446268
0.7350129633 -0.2554898870 0.0000000000 0.1673414287 -0.2972882426 -560.9461701272 0.0475912712 0.0444291309
0.7460010174 -0.2295736807 0.0000000000 0.1623649732 -0.3282724167 -571.1934879006 0.0478457058 0.0444320871
0.7560114469 -0.2032558222 0.0000000000 0.1526307527 -0.3552674084 -581.2675324369 0.0480989491 0.0444534739
0.7650292320 -0.1765732122 0.0000000000 0.1382734812 -0.3782981701 -590.4737613386 0.0483496276 0.0444931682
0.7730407505 -0.1495633362 0.0000000000 0.1197214357 -0.3975080162 -598.1306625737 0.0485963807 0.0445509472
0.7800338023 -0.1222642114 0.0000000000 0.0975668964 -0.4130464402 -603.6122802486 0.0488378681 0.0446264887
0.7859976320 -0.0947143320 0.0000000000 0.0724927624 -0.4249993406 -606.3798242028 0.0490727770 0.0447193731
0.7909229487 -0.0669526135 0.0000000000 0.0452402352 -0.4333662692 -606.0069901729 0.0492998290 0.0448290858
0.7948019446 -0.0390183369 0.0000000000 0.0166010927 -0.4380725002 -602.2027812750 0.0495177872 0.0449550199
0.7976283106 -0.0109510906 0.0000000000 -0.0125824871 -0.4389993264 -594.8324302187 0.0497254627 0.0450964792
0.7993972498 0.0172092870 0.0000000000 -0.0414229300 -0.4360203107 -583.9341462418 0.0499217212 0.0452526824
0.8001054889 0.0454227669 0.0000000000 -0.0690037091 -0.4290379843 -569.7279281767 0.0501054889 0.0454227666
0.7997512871 0.0736491886 0.0000000000 -0.0944099791 -0.4180204411 -552.6125561029 0.0502757585 0.0456057926
0.7983344424 0.1018483200 0.0000000000 -0.1167742118 -0.4030388748 -533.1476964330 0.0504315945 0.0458007495
0.7958562960 0.1299799175 0.0000000000 -0.1353361202 -0.3843057064 -512.0195985222 0.0505721386 0.0460065601
0.7923197337 0.1580037869 0.0000000000 -0.1495136676 -0.3622098084 -489.9911641073 0.0506966140 0.0462220870
0.7877291849 0.1858798438 0.0000000000 -0.1589781081 -0.3373419329 -467.8402494343 0.0508043300 0.0464461382
0.7820906197 0.2135681746 0.0000000000 -0.1637214695 -0.3105011390 -446.2934958803 0.0508946856 0.0466774739
0.7754115427 0.2410290970 0.0000000000 -0.1641009226 -0.2826726712 -425.9657629057 0.0509671731 0.0469148130
0.7677009847 0.2682232208 0.0000000000 -0.1608420401 -0.2549696325 -407.3160463926 0.0510213804 0.0471568398
0.7589694921 0.2951115083 0.0000000000 -0.1549821894 -0.2285347558 -390.6286691369 0.0510569944 0.0474022116
0.7492291131 0.3216553338 0.0000000000 -0.1477359784 -0.2044045060 -376.0236287299 0.0510738017 0.0476495653
0.7384933825 0.3478165438 0.0000000000 -0.1402683949 -0.1833464548 -363.4936096263 0.0510716907 0.0478975254
0.7267773028 0.3735575154 0.0000000000 -0.1333753016 -0.1656943522 -352.9591312105 0.0510506519 0.0481447109
0.7140973238 0.3988412145 0.0000000000 -0.1271094291 -0.1512246696 -344.3282204694 0.0510107787 0.0483897431
0.7004713192 0.4236312533 0.0000000000 -0.1204617837 -0.1391376926 -337.5415808028 0.0509522665 0.0486312531
0.6859185614 0.4478919468 0.0000000000 -0.1112840688 -0.1282055518 -332.5796551805 0.0508754120 0.0488678893
0.6704596929 0.4715883682 0.0000000000 -0.0966277978 -0.1171007989 -329.4148916669 0.0507806122 0.0490983245
0.6541166966 0.4946864029 0.0000000000 -0.0734942276 -0.1048186158 -327.9236059980 0.0506683618 0.0493212636
0.6369128631 0.5171528019 0.0000000000 -0.0397006732 -0.0910117466 -327.8131893530 0.0505392513 0.0495354505
0.6188727559 0.5389552334 0.0000000000 0.0055824221 -0.0760632030 -328.6265974907 0.0503939636 0.0497396749
0.6000221745 0.5600623328 0.0000000000 0.0618981939 -0.0608518798 -329.8317306517 0.0502332707 0.0499327794
0.5578096929 0.6020911008 0.0000000000 0.2113709070 -0.0317642061 -331.7989550784 0.0498485142 0.0502981677
0.5343481738 0.6227782397 0.0000000000 0.3042207755 -0.0186752834 -331.9532040658 0.0496237455 0.0504651885
0.5100447358 0.6424689326 0.0000000000 0.4057833499 -0.0061934198 -331.5280215316 0.0493852013 0.0506135505
0.4849420656 0.6611287378 0.0000000000 0.5146631720 0.0069604245 -330.7199296322 0.0491344542 0.0507421998
0.4590842792 0.6787250722 0.0000000000 0.6281082675 0.0219260512 -329.7524610321 0.0488731607 0.0508502134
0.4325168380 0.6952272725 0.0000000000 0.7419089332 0.0392899741 -328.7980918306 0.0486030513 0.0509368066
0.4052864630 0.7106066515 0.0000000000 0.8510707253 0.0589747214 -327.9306604192 0.0483259183 0.0510013380
0.3774410458 0.7248365512 0.0000000000 0.9508588720 0.0803926600 -327.1198782047 0.0480436043 0.0510433147
0.3490295583 0.7378923912 0.0000000000 1.0376971174 0.1027143269 -326.2629802592 0.0477579899 0.0510623962
0.3201019590 0.7497517131 0.0000000000 1.1096267545 0.1251190125 -325.2287027425 0.0474709812 0.0510583970
0.2907090985 0.7603942199 0.0000000000 1.1663067846 0.1469638252 -323.8905214789 0.0471844967 0.0510312886
0.2609026228 0.7698018120 0.0000000000 1.2086929794 0.1678600013 -322.1413575266 0.0469004547 0.0509812002
0.2307348753 0.7779586176 0.0000000000 1.2385708174 0.1876715326 -319.8934476281 0.0466207601 0.0509084181
0.2002587979 0.7848510190 0.0000000000 1.2580889598 0.2064624349 -317.0702347469 0.0463472914 0.0508133850
0.1695278304 0.7904676742 0.0000000000 1.2693864335 0.2244212155 -313.5960640376 0.0460818878 0.0506966966
0.1385958102 0.7947995339 0.0000000000 1.2743512776 0.2417862773 -309.3875971725 0.0458263368 0.0505590991
0.1075168705 0.7978398536 0.0000000000 1.2745053096 0.2587869610 -304.3490954550 0.0455823615 0.0504014838
0.0763453392 0.7995842010 0.0000000000 1.2709852387 0.2756055779 -298.3721287348 0.0453516087 0.0502248822
0.0451356372 0.8000304589 0.0000000000 1.2645833739 0.2923589641 -291.3390267955 0.0451356374 0.0500304589
0.0139421772 0.7991788231 0.0000000000 1.2558157981 0.3090946690 -283.1287191552 0.0449359081 0.0498195043
-0.0171807374 0.7970317961 0.0000000000 1.2449955164 0.3257962357 -273.6235183100 0.0447537718 0.0495934264
-0.0481790124 0.7935941757 0.0000000000 1.2322978653 0.3423929679 -262.7156980724 0.0445904612 0.0493537410
-0.0789988617 0.7888730394 0.0000000000 1.2178129709 0.3587710493 -250.3131567380 0.0444470811 0.0491020619
-0.1095869060 0.7828777240 0.0000000000 1.2015847093 0.3747842366 -236.3438528887 0.0443246008 0.0488400901
-0.1398902687 0.7756198015 0.0000000000 1.1836379380 0.3902633338 -220.7589780209 0.0442238468 0.0485696021
-0.1698566715 0.7671130498 0.0000000000 1.1639965340 0.4050242497 -203.5349800929 0.0441454969 0.0482924380
-0.1994345274 0.7573734198 0.0000000000 1.1426946914 0.4188747338 -184.6746083691 0.0440900746 0.0480104886
-0.2285730322 0.7464189988 0.0000000000 1.1197835024 0.4316199964 -164.2071520939 0.0440579459 0.0477256829
-0.2572222533 0.7342699688 0.0000000000 1.0953343405 0.4430674222 -142.1880243015 0.0440493154 0.0474399739
-0.2853332168 0.7209485621 0.0000000000 1.0694401230 0.4530305554 -118.6978158218 0.0440642250 0.0471553258
-0.3128579916 0.7064790130 0.0000000000 1.0422151827 0.4613324845 -93.8409216454 0.0441025533 0.0468736997
-0.3397497712 0.6908875059 0.0000000000 1.0137942378 0.4678087213 -67.7438244998 0.0441640158 0.0465970402
-0.3659629521 0.6742021198 0.0000000000 0.9843307764 0.4723096338 -40.5531081071 0.0442481667 0.0463272613
-0.3914532103 0.6564527708 0.0000000000 0.9539950686 0.4747024761 -12.4332635546 0.0443544014 0.0460662329
-0.4161775735 0.6376711498 0.0000000000 0.9229719448 0.4748730453 16.4356549145 0.0444819612 0.0458157679
-0.4400944912 0.6178906597 0.0000000000 0.8914584391 0.4727269877 45.8604746125 0.0446299374 0.0455776087
-0.4631639006 0.5971463478 0.0000000000 0.8596613627 0.4681907774 75.6374053633 0.0447972782 0.0453534149
-0.5066077586 0.5529142562 0.0000000000 0.7960779849 0.4517616494 135.3944467271 0.0451851745 0.0449530776
-0.5269100716 0.5295041637 0.0000000000 0.7647323175 0.4398303998 164.9364466471 0.0454029797 0.0447797355
-0.5462207138 0.5052854756 0.0000000000 0.7339796586 0.4254323022 193.9591807841 0.0456346684 0.0446259413
-0.5645079382 0.4803003872 0.0000000000 0.7040398053 0.4086025011 222.2428152499 0.0458785999 0.0444927758
-0.5817418117 0.4545922954 0.0000000000 0.6751284334 0.3893970507 249.5712433519 0.0461330471 0.0443811770
-0.5978942566 0.4282057192 0.0000000000 0.6474550979 0.3678921692 275.7341430666 0.0463962093 0.0442919326
-0.6129390889 0.4011862194 0.0000000000 0.6212213664 0.3441833368 300.5288959617 0.0466662246 0.0442256748
-0.6268520533 0.3735803166 0.0000000000 0.5966190967 0.3183842573 323.7623599311 0.0469411833 0.0441828752
-0.6396108536 0.3454354099 0.0000000000 0.5738288661 0.2906256984 345.2524921570 0.0472191415 0.0441638417
-0.6511951811 0.3167996934 0.0000000000 0.5530185551 0.2610542263 364.8298214931 0.0474981351 0.0441687157
-0.6615867376 0.2877220732 0.0000000000 0.5343420870 0.2298308463 382.3387704017 0.0477761937 0.0441974716
-0.6707692568 0.2582520843 0.0000000000 0.5179383235 0.1971295665 397.6388263188 0.0480513551 0.0442499163
-0.6787285207 0.2284398063 0.0000000000 0.5039301245 0.1631358957 410.6055625074 0.0483216788 0.0443256912
-0.6854523737 0.1983357805 0.0000000000 0.4924235780 0.1280452890 421.1315098654 0.0485852604 0.0444242741
-0.6909307327 0.1679909259 0.0000000000 0.4835073993 0.0920615387 429.1268819501 0.0488402449 0.0445449835
-0.6951555944 0.1374564562 0.0000000000 0.4772524708 0.0553951082 434.5201518247 0.0490848404 0.0446869831
-0.6981210395 0.1067837969 0.0000000000 0.4737114707 0.0182614183 437.2584714775 0.0493173303 0.0448492881
-0.6998232328 0.0760245027 0.0000000000 0.4729185449 -0.0191208830 437.3079221832 0.0495360860 0.0450307723
-0.7002604215 0.0452301758 0.0000000000 0.4748890230 -0.0565316184 434.6535943481 0.0497395785 0.0452301761
-0.6994329302 0.0144523849 0.0000000000 0.4796192447 -0.0937507144 429.2995228658 0.0499263886 0.0454461159
-0.6973431519 -0.0162574159 0.0000000000 0.4870865451 -0.1305597659 421.2685015016 0.0500952178 0.0456770935
-0.6939955379 -0.0468479660 0.0000000000 0.4972494242 -0.1667435342 410.6017927279 0.0502448968 0.0459215078
-0.6893965838 -0.0772682776 0.0000000000 0.5100479473 -0.2020913992 397.3587506120 0.0503743937 0.0461776654
-0.6835548126 -0.1074677134 0.0000000000 0.5254043728 -0.2363987940 381.6163505457 0.0504828213 0.0464437935
-0.6764807563 -0.1373960636 0.0000000000 0.5432239661 -0.2694686412 363.4686072446 0.0505694431 0.0467180521
-0.6681869339 -0.1670036211 0.0000000000 0.5633959329 -0.3011127847 343.0258622065 0.0506336779 0.0469985474