 TITLE = "Tecplot data"
 VARIABLES = "X", "Y", "Z" "U", "V", "p", "dispX", "dispY"
 ZONE SOLUTIONTIME=158.900000, NODES=26114 , ELEMENTS=25916, DATAPACKING=POINT, ZONETYPE=FEQUADRILATERAL
2.6417673881 2.3115306182 0.0000000000 0.0000000000 0.0000000000 -1820.5865623520 2.2882139976 1.9579772276
2.6417673884 1.6044238372 0.0000000000 0.0000000000 0.0000000000 -23372.0518895067 2.2882139976 1.9579772276
1.9346606069 2.3115306181 0.0000000000 0.0000000000 0.0000000000 8881.4078375099 2.2882139976 1.9579772276
1.9346606072 1.6044238368 0.0000000000 0.0000000000 0.0000000000 22603.7794246329 2.2882139976 1.9579772276
2.8208923908 2.4802522031 0.0000000000 0.1574639984 -0.3118340220 -1533.0981200865 2.2905623049 1.9499221172
2.7918339950 1.4133795048 0.0000000000 1.3233484231 0.8153142357 -11944.8536083479 2.2615039087 1.9437095903
1.7561550908 2.4859343880 0.0000000000 0.1879842107 -0.3101018942 8465.0133587274 2.2864851769 1.9556043023
1.7482241521 1.4336979595 0.0000000000 1.3326655855 -0.9335681331 13987.9289889596 2.2785542377 1.9640280456
3.3621511244 2.9518500364 0.0000000000 0.4747820444 -0.0856643479 -497.5155758215 2.3014909527 1.8911898646
3.1872021251 0.8141736200 0.0000000000 1.0963145364 0.1474976110 -3271.1025602825 2.1265419526 1.8748337910
1.2152117841 3.0010488917 0.0000000000 0.4993545309 -0.1610838380 6586.9620715189 2.2758719562 1.9403887202
1.1542783229 0.9258333729 0.0000000000 1.0775732993 -0.4143767570 7334.1678639462 2.2149384941 1.9864935452
6.5924456667 4.8265764256 0.0000000000 0.4489831709 0.0445309922 1153.7740822835 2.3924456667 1.5265764256
5.7208852545 -1.9136900052 0.0000000000 0.9073876589 -0.0078696564 768.8648647176 1.5208852545 1.3863099948
20.0000000000 4.7000000000 0.0000000000 -0.7909153956 2.5156761097 2.4865452925 0.0000000000 0.0000000000
20.0000000000 -4.7000000000 0.0000000000 1.1366408169 -0.8228936080 -24.9265192849 0.0000000000 0.0000000000
-10.0000000000 15.0000000000 0.0000000000 1.0000000000 0.0000000000 3649.8395999642 0.0000000000 0.0000000000
20.0000000000 15.0000000000 0.0000000000 2.8079871496 0.0000000000 14.5309485571 0.0000000000 0.0000000000
20.0000000000 -15.0000000000 0.0000000000 2.3349136911 0.0000000000 -0.2600649720 0.0000000000 0.0000000000
-10.0000000000 -15.0000000000 0.0000000000 1.0000000000 0.0000000000 2872.7641586754 0.0000000000 0.0000000000
2.6547399337 1.6178908590 0.0000000000 0.0000000000 0.0000000000 -23557.4320902140 2.2882139976 1.9579772276
2.6671998594 1.6318335222 0.0000000000 0.0000000000 0.0000000000 -23547.9255476289 2.2882139976 1.9579772276
2.6791297390 1.6462323269 0.0000000000 0.0000000000 0.0000000000 -23530.3465260458 2.2882139976 1.9579772276
2.6905128876 1.6610671351 0.0000000000 0.0000000000 0.0000000000 -23390.9594478427 2.2882139976 1.9579772276
2.7013333849 1.6763171988 0.0000000000 0.0000000000 0.0000000000 -23195.3965108297 2.2882139976 1.9579772276
2.7115760974 1.6919611896 0.0000000000 0.0000000000 0.0000000000 -22905.5114503515 2.2882139976 1.9579772276
2.7212266996 1.7079772278 0.0000000000 0.0000000000 0.0000000000 -22546.3227071505 2.2882139976 1.9579772276
2.7302716945 1.7243429137 0.0000000000 0.0000000000 0.0000000000 -22104.3077114384 2.2882139976 1.9579772276
2.7386984316 1.7410353583 0.0000000000 0.0000000000 0.0000000000 -21590.8549949266 2.2882139976 1.9579772276
2.7464951256 1.7580312157 0.0000000000 0.0000000000 0.0000000000 -21001.7459840536 2.2882139976 1.9579772276
2.7536508720 1.7753067157 0.0000000000 0.0000000000 0.0000000000 -20343.3585903384 2.2882139976 1.9579772276
2.7601556628 1.7928376969 0.0000000000 0.0000000000 0.0000000000 -19615.5156377922 2.2882139976 1.9579772276
2.7660004005 1.8105996406 0.0000000000 0.0000000000 0.0000000000 -18823.0022518952 2.2882139976 1.9579772276
2.7711769108 1.8285677053 0.0000000000 0.0000000000 0.0000000000 -17968.2565887678 2.2882139976 1.9579772276
2.7756779537 1.8467167608 0.0000000000 0.0000000000 0.0000000000 -17057.0930002056 2.2882139976 1.9579772276
2.7794972342 1.8650214242 0.0000000000 0.0000000000 0.0000000000 -16096.2006623822 2.2882139976 1.9579772276
2.7826294107 1.8834560947 0.0000000000 0.0000000000 0.0000000000 -15096.9642507590 2.2882139976 1.9579772276
2.7850701025 1.9019949898 0.0000000000 0.0000000000 0.0000000000 -14075.4322816575 2.2882139976 1.9579772276
2.7868158962 1.9206121810 0.0000000000 0.0000000000 0.0000000000 -13054.4696185366 2.2882139976 1.9579772276
2.7878643500 1.9392816307 0.0000000000 0.0000000000 0.0000000000 -12061.9224563084 2.2882139976 1.9579772276
2.7882139976 1.9579772278 0.0000000000 0.0000000000 0.0000000000 -11126.7903404549 2.2882139976 1.9579772276
2.7878643500 1.9766728249 0.0000000000 0.0000000000 0.0000000000 -10271.5746860117 2.2882139976 1.9579772276
2.7868158961 1.9953422746 0.0000000000 0.0000000000 0.0000000000 -9505.9697834050 2.2882139976 1.9579772276
2.7850701025 2.0139594658 0.0000000000 0.0000000000 0.0000000000 -8825.3253904892 2.2882139976 1.9579772276
2.7826294107 2.0324983608 0.0000000000 0.0000000000 0.0000000000 -8215.8323000697 2.2882139976 1.9579772276
2.7794972342 2.0509330313 0.0000000000 0.0000000000 0.0000000000 -7661.8233991091 2.2882139976 1.9579772276
2.7756779536 2.0692376947 0.0000000000 0.0000000000 0.0000000000 -7150.6582677746 2.2882139976 1.9579772276
2.7711769107 2.0873867503 0.0000000000 0.0000000000 0.0000000000 -6673.5946202440 2.2882139976 1.9579772276
2.7660004004 2.1053548149 0.0000000000 0.0000000000 0.0000000000 -6224.7558992897 2.2882139976 1.9579772276
2.7601556627 2.1231167587 0.0000000000 0.0000000000 0.0000000000 -5799.9377684810 2.2882139976 1.9579772276
2.7536508718 2.1406477399 0.0000000000 0.0000000000 0.0000000000 -5395.9469282655 2.2882139976 1.9579772276
2.7464951255 2.1579232399 0.0000000000 0.0000000000 0.0000000000 -5010.2360444352 2.2882139976 1.9579772276
2.7386984315 2.1749190972 0.0000000000 0.0000000000 0.0000000000 -4640.7335168127 2.2882139976 1.9579772276
2.7302716943 2.1916115418 0.0000000000 0.0000000000 0.0000000000 -4285.6896296308 2.2882139976 1.9579772276
2.7212266994 2.2079772277 0.0000000000 0.0000000000 0.0000000000 -3943.6401605402 2.2882139976 1.9579772276
2.7115760971 2.2239932659 0.0000000000 0.0000000000 0.0000000000 -3613.2628198056 2.2882139976 1.9579772276
2.7013333847 2.2396372567 0.0000000000 0.0000000000 0.0000000000 -3293.4895643069 2.2882139976 1.9579772276
2.6905128874 2.2548873204 0.0000000000 0.0000000000 0.0000000000 -2983.1975518901 2.2882139976 1.9579772276
2.6791297388 2.2697221286 0.0000000000 0.0000000000 0.0000000000 -2681.6931467130 2.2882139976 1.9579772276
2.6671998591 2.2841209333 0.0000000000 0.0000000000 0.0000000000 -2387.7831707661 2.2882139976 1.9579772276
2.6547399334 2.2980635965 0.0000000000 0.0000000000 0.0000000000 -2101.3911994849 2.2882139976 1.9579772276
2.6268547833 2.3258391830 0.0000000000 0.0000000000 0.0000000000 -1518.1479375407 2.2882139976 1.9579772276
2.6113636165 2.3395192617 0.0000000000 0.0000000000 0.0000000000 -1221.3399353822 2.2882139976 1.9579772276
2.5953203539 2.3525474823 0.0000000000 0.0000000000 0.0000000000 -930.5737933595 2.2882139976 1.9579772276
2.5787524052 2.3649015863 0.0000000000 0.0000000000 0.0000000000 -644.5800294100 2.2882139976 1.9579772276
2.5616880766 2.3765604667 0.0000000000 0.0000000000 0.0000000000 -363.2412121604 2.2882139976 1.9579772276
2.5441565221 2.3875042048 0.0000000000 0.0000000000 0.0000000000 -85.7576556045 2.2882139976 1.9579772276
2.5261876940 2.3977141032 0.0000000000 0.0000000000 0.0000000000 188.1465064287 2.2882139976 1.9579772276
2.5078122919 2.4071727186 0.0000000000 0.0000000000 0.0000000000 459.0372209714 2.2882139976 1.9579772276
2.4890617098 2.4158638909 0.0000000000 0.0000000000 0.0000000000 727.2403647913 2.2882139976 1.9579772276
2.4699679828 2.4237727716 0.0000000000 0.0000000000 0.0000000000 993.1990591493 2.2882139976 1.9579772276
2.4505637321 2.4308858485 0.0000000000 0.0000000000 0.0000000000 1257.2458837517 2.2882139976 1.9579772276
2.4308821096 2.4371909688 0.0000000000 0.0000000000 0.0000000000 1519.7561805814 2.2882139976 1.9579772276
2.4109567411 2.4426773606 0.0000000000 0.0000000000 0.0000000000 1781.0538094782 2.2882139976 1.9579772276
2.3908216686 2.4473356503 0.0000000000 0.0000000000 0.0000000000 2041.4755270679 2.2882139976 1.9579772276
2.3705112926 2.4511578793 0.0000000000 0.0000000000 0.0000000000 2301.3340030764 2.2882139976 1.9579772276
2.3500603131 2.4541375175 0.0000000000 0.0000000000 0.0000000000 2560.9445447943 2.2882139976 1.9579772276
2.3295036702 2.4562694741 0.0000000000 0.0000000000 0.0000000000 2820.6117887802 2.2882139976 1.9579772276
2.3088764846 2.4575501068 0.0000000000 0.0000000000 0.0000000000 3080.6409931380 2.2882139976 1.9579772276
2.2882139975 2.4579772276 0.0000000000 0.0000000000 0.0000000000 3341.3341405139 2.2882139976 1.9579772276
2.2675515103 2.4575501068 0.0000000000 0.0000000000 0.0000000000 3602.9951454895 2.2882139976 1.9579772276
2.2469243247 2.4562694741 0.0000000000 0.0000000000 0.0000000000 3865.9295611415 2.2882139976 1.9579772276
2.2263676818 2.4541375174 0.0000000000 0.0000000000 0.0000000000 4130.4475170391 2.2882139976 1.9579772276
2.2059167023 2.4511578793 0.0000000000 0.0000000000 0.0000000000 4396.8647904145 2.2882139976 1.9579772276
2.1856063264 2.4473356502 0.0000000000 0.0000000000 0.0000000000 4665.5050060397 2.2882139976 1.9579772276
2.1654712539 2.4426773605 0.0000000000 0.0000000000 0.0000000000 4936.7013016143 2.2882139976 1.9579772276
2.1455458853 2.4371909688 0.0000000000 0.0000000000 0.0000000000 5210.7984678120 2.2882139976 1.9579772276
2.1258642629 2.4308858484 0.0000000000 0.0000000000 0.0000000000 5488.1551213230 2.2882139976 1.9579772276
2.1064600122 2.4237727716 0.0000000000 0.0000000000 0.0000000000 5769.1463279412 2.2882139976 1.9579772276
2.0873662851 2.4158638909 0.0000000000 0.0000000000 0.0000000000 6054.1666932546 2.2882139976 1.9579772276
2.0686157030 2.4071727185 0.0000000000 0.0000000000 0.0000000000 6343.6341652024 2.2882139976 1.9579772276
2.0502403009 2.3977141031 0.0000000000 0.0000000000 0.0000000000 6637.9945657413 2.2882139976 1.9579772276
2.0322714729 2.3875042047 0.0000000000 0.0000000000 0.0000000000 6937.7267421271 2.2882139976 1.9579772276
2.0147399184 2.3765604666 0.0000000000 0.0000000000 0.0000000000 7243.3480760947 2.2882139976 1.9579772276
1.9976755898 2.3649015861 0.0000000000 0.0000000000 0.0000000000 7555.4202483869 2.2882139976 1.9579772276
1.9811076411 2.3525474822 0.0000000000 0.0000000000 0.0000000000 7874.5555950144 2.2882139976 1.9579772276
1.9650643785 2.3395192616 0.0000000000 0.0000000000 0.0000000000 8201.4249339828 2.2882139976 1.9579772276
1.9495732116 2.3258391828 0.0000000000 0.0000000000 0.0000000000 8536.7680574795 2.2882139976 1.9579772276
1.9203520421 2.2966180133 0.0000000000 0.0000000000 0.0000000000 9236.2682173457 2.2882139976 1.9579772276
1.9066719634 2.2811268464 0.0000000000 0.0000000000 0.0000000000 9602.3953752066 2.2882139976 1.9579772276
1.8936437428 2.2650835838 0.0000000000 0.0000000000 0.0000000000 9980.9809749891 2.2882139976 1.9579772276
1.8812896388 2.2485156351 0.0000000000 0.0000000000 0.0000000000 10373.3876997509 2.2882139976 1.9579772276
1.8696307583 2.2314513065 0.0000000000 0.0000000000 0.0000000000 10781.1828236282 2.2882139976 1.9579772276
1.8586870203 2.2139197520 0.0000000000 0.0000000000 0.0000000000 11206.1990223083 2.2882139976 1.9579772276
1.8484771219 2.1959509239 0.0000000000 0.0000000000 0.0000000000 11650.6639207400 2.2882139976 1.9579772276
1.8390185065 2.1775755218 0.0000000000 0.0000000000 0.0000000000 12117.4659350977 2.2882139976 1.9579772276
1.8303273342 2.1588249397 0.0000000000 0.0000000000 0.0000000000 12610.6524717872 2.2882139976 1.9579772276
1.8224184535 2.1397312127 0.0000000000 0.0000000000 0.0000000000 13136.3309997186 2.2882139976 1.9579772276
1.8153053767 2.1203269620 0.0000000000 0.0000000000 0.0000000000 13704.0706883806 2.2882139976 1.9579772276
1.8090002563 2.1006453395 0.0000000000 0.0000000000 0.0000000000 14327.8490883831 2.2882139976 1.9579772276
1.8035138646 2.0807199710 0.0000000000 0.0000000000 0.0000000000 15023.6443188375 2.2882139976 1.9579772276
1.7988555749 2.0605848985 0.0000000000 0.0000000000 0.0000000000 15801.8551776583 2.2882139976 1.9579772276
1.7950333458 2.0402745225 0.0000000000 0.0000000000 0.0000000000 16658.8899960324 2.2882139976 1.9579772276
1.7920537077 2.0198235430 0.0000000000 0.0000000000 0.0000000000 17575.3053330755 2.2882139976 1.9579772276
1.7899217511 1.9992669001 0.0000000000 0.0000000000 0.0000000000 18521.8930304902 2.2882139976 1.9579772276
1.7886411184 1.9786397145 0.0000000000 0.0000000000 0.0000000000 19468.3597411421 2.2882139976 1.9579772276
1.7882139976 1.9579772274 0.0000000000 0.0000000000 0.0000000000 20389.2829808905 2.2882139976 1.9579772276
1.7886411184 1.9373147403 0.0000000000 0.0000000000 0.0000000000 21265.9403243405 2.2882139976 1.9579772276
1.7899217511 1.9166875546 0.0000000000 0.0000000000 0.0000000000 22085.4151486769 2.2882139976 1.9579772276
1.7920537077 1.8961309117 0.0000000000 0.0000000000 0.0000000000 22838.8007819733 2.2882139976 1.9579772276
1.7950333459 1.8756799322 0.0000000000 0.0000000000 0.0000000000 23519.5915538320 2.2882139976 1.9579772276
1.7988555750 1.8553695563 0.0000000000 0.0000000000 0.0000000000 24122.6008098129 2.2882139976 1.9579772276
1.8035138647 1.8352344838 0.0000000000 0.0000000000 0.0000000000 24643.3557472484 2.2882139976 1.9579772276
1.8090002564 1.8153091152 0.0000000000 0.0000000000 0.0000000000 25077.8129152234 2.2882139976 1.9579772276
1.8153053768 1.7956274928 0.0000000000 0.0000000000 0.0000000000 25422.2564589010 2.2882139976 1.9579772276
1.8224184536 1.7762232421 0.0000000000 0.0000000000 0.0000000000 25673.2884225208 2.2882139976 1.9579772276
1.8303273343 1.7571295150 0.0000000000 0.0000000000 0.0000000000 25827.8599394414 2.2882139976 1.9579772276
1.8390185067 1.7383789329 0.0000000000 0.0000000000 0.0000000000 25883.3165090600 2.2882139976 1.9579772276
1.8484771221 1.7200035309 0.0000000000 0.0000000000 0.0000000000 25837.4453680291 2.2882139976 1.9579772276
1.8586870205 1.7020347028 0.0000000000 0.0000000000 0.0000000000 25688.5190033405 2.2882139976 1.9579772276
1.8696307586 1.6845031483 0.0000000000 0.0000000000 0.0000000000 25435.3339056705 2.2882139976 1.9579772276
1.8812896391 1.6674388197 0.0000000000 0.0000000000 0.0000000000 25077.2431184334 2.2882139976 1.9579772276
1.8936437430 1.6508708710 0.0000000000 0.0000000000 0.0000000000 24614.1844285717 2.2882139976 1.9579772276
1.9066719636 1.6348276085 0.0000000000 0.0000000000 0.0000000000 24046.7022221608 2.2882139976 1.9579772276
1.9203520424 1.6193364416 0.0000000000 0.0000000000 0.0000000000 23375.9657428996 2.2882139976 1.9579772276
1.9495732119 1.5901152721 0.0000000000 0.0000000000 0.0000000000 21732.5898702031 2.2882139976 1.9579772276
1.9650643788 1.5764351933 0.0000000000 0.0000000000 0.0000000000 20765.4825196299 2.2882139976 1.9579772276
1.9811076414 1.5634069727 0.0000000000 0.0000000000 0.0000000000 19706.1771630065 2.2882139976 1.9579772276
1.9976755901 1.5510528688 0.0000000000 0.0000000000 0.0000000000 18559.0128469492 2.2882139976 1.9579772276
2.0147399187 1.5393939883 0.0000000000 0.0000000000 0.0000000000 17328.9344961050 2.2882139976 1.9579772276
2.0322714733 1.5284502503 0.0000000000 0.0000000000 0.0000000000 16021.4691111956 2.2882139976 1.9579772276
2.0502403013 1.5182403518 0.0000000000 0.0000000000 0.0000000000 14642.7005305324 2.2882139976 1.9579772276
2.0686157034 1.5087817365 0.0000000000 0.0000000000 0.0000000000 13199.2283175905 2.2882139976 1.9579772276
2.0873662855 1.5000905641 0.0000000000 0.0000000000 0.0000000000 11698.1248261903 2.2882139976 1.9579772276
2.1064600126 1.4921816835 0.0000000000 0.0000000000 0.0000000000 10146.8792465192 2.2882139976 1.9579772276
2.1258642632 1.4850686066 0.0000000000 0.0000000000 0.0000000000 8553.3658477565 2.2882139976 1.9579772276
2.1455458857 1.4787634863 0.0000000000 0.0000000000 0.0000000000 6925.8118280441 2.2882139976 1.9579772276
2.1654712543 1.4732770945 0.0000000000 0.0000000000 0.0000000000 5272.8087426691 2.2882139976 1.9579772276
2.1856063268 1.4686188049 0.0000000000 0.0000000000 0.0000000000 3603.2691311506 2.2882139976 1.9579772276
2.2059167027 1.4647965758 0.0000000000 0.0000000000 0.0000000000 1926.3770177099 2.2882139976 1.9579772276
2.2263676822 1.4618169377 0.0000000000 0.0000000000 0.0000000000 251.3276271637 2.2882139976 1.9579772276
2.2469243251 1.4596849811 0.0000000000 0.0000000000 0.0000000000 -1412.7986723207 2.2882139976 1.9579772276
2.2675515107 1.4584043484 0.0000000000 0.0000000000 0.0000000000 -3057.7768972797 2.2882139976 1.9579772276
2.2882139979 1.4579772276 0.0000000000 0.0000000000 0.0000000000 -4675.3640416944 2.2882139976 1.9579772276
2.3088764850 1.4584043484 0.0000000000 0.0000000000 0.0000000000 -6259.5649656566 2.2882139976 1.9579772276
2.3295036706 1.4596849811 0.0000000000 0.0000000000 0.0000000000 -7802.9670052934 2.2882139976 1.9579772276
2.3500603135 1.4618169378 0.0000000000 0.0000000000 0.0000000000 -9298.4983916072 2.2882139976 1.9579772276
2.3705112930 1.4647965759 0.0000000000 0.0000000000 0.0000000000 -10740.6292127521 2.2882139976 1.9579772276
2.3908216690 1.4686188050 0.0000000000 0.0000000000 0.0000000000 -12124.7386146691 2.2882139976 1.9579772276
2.4109567415 1.4732770947 0.0000000000 0.0000000000 0.0000000000 -13445.9994968884 2.2882139976 1.9579772276
2.4308821100 1.4787634864 0.0000000000 0.0000000000 0.0000000000 -14699.7326950766 2.2882139976 1.9579772276
2.4505637325 1.4850686068 0.0000000000 0.0000000000 0.0000000000 -15881.8414210908 2.2882139976 1.9579772276
2.4699679832 1.4921816837 0.0000000000 0.0000000000 0.0000000000 -16989.1518990897 2.2882139976 1.9579772276
2.4890617102 1.5000905644 0.0000000000 0.0000000000 0.0000000000 -18018.8016304533 2.2882139976 1.9579772276
2.5078122923 1.5087817368 0.0000000000 0.0000000000 0.0000000000 -18968.6871376122 2.2882139976 1.9579772276
2.5261876944 1.5182403521 0.0000000000 0.0000000000 0.0000000000 -19835.6495381653 2.2882139976 1.9579772276
2.5441565224 1.5284502506 0.0000000000 0.0000000000 0.0000000000 -20618.7309927299 2.2882139976 1.9579772276
2.5616880769 1.5393939886 0.0000000000 0.0000000000 0.0000000000 -21312.6559884835 2.2882139976 1.9579772276
2.5787524056 1.5510528691 0.0000000000 0.0000000000 0.0000000000 -21920.3010674439 2.2882139976 1.9579772276
2.5953203542 1.5634069731 0.0000000000 0.0000000000 0.0000000000 -22430.2431773758 2.2882139976 1.9579772276
2.6113636168 1.5764351937 0.0000000000 0.0000000000 0.0000000000 -22854.4083092602 2.2882139976 1.9579772276
2.6268547836 1.5901152725 0.0000000000 0.0000000000 0.0000000000 -23173.9936438299 2.2882139976 1.9579772276
2.8127325863 1.4326609740 0.0000000000 1.2767981831 0.8317584002 -12106.0821525401 2.2629436821 1.9427905269
2.8328615113 1.4527077847 0.0000000000 1.2300819184 0.8447350377 -12226.8621750288 2.2643827186 1.9419233427
2.8521857669 1.4734904418 0.0000000000 1.1832409078 0.8542285003 -12304.8376747298 2.2658121548 1.9411077928
2.8706710768 1.4949803762 0.0000000000 1.1365096359 0.8603987827 -12342.2368150996 2.2672227417 1.9403455150
2.8882848369 1.5171485689 0.0000000000 1.0900467947 0.8633787809 -12340.0062720908 2.2686057559 1.9396386120
2.9049966122 1.5399652259 0.0000000000 1.0440220062 0.8633363294 -12299.7579818631 2.2699534625 1.9389892829
2.9207784443 1.5633996690 0.0000000000 0.9985870279 0.8604441256 -12223.0287227693 2.2712593912 1.9383996686
2.9356050217 1.5874203042 0.0000000000 0.9538863612 0.8548850577 -12111.5098615775 2.2725184764 1.9378717750
2.9494537273 1.6119946288 0.0000000000 0.9100549688 0.8468460109 -11966.9394481372 2.2737270762 1.9374074327
2.9623045793 1.6370892552 0.0000000000 0.8672206013 0.8365174471 -11791.1330508548 2.2748828872 1.9370082731
2.9741400926 1.6626699383 0.0000000000 0.8255043067 0.8240919799 -11585.9751360339 2.2759847810 1.9366757062
2.9849450956 1.6887015990 0.0000000000 0.7850210507 0.8097642859 -11353.4347385633 2.2770325978 1.9364108951
2.9947065340 1.7151483426 0.0000000000 0.7458795312 0.7937311771 -11095.5769755527 2.2780269295 1.9362147231
3.0034132864 1.7419734722 0.0000000000 0.7081813803 0.7761919937 -10814.5763732865 2.2789689166 1.9360877556
3.0110560055 1.7691394994 0.0000000000 0.6720196628 0.7573489388 -10512.7246706941 2.2798600713 1.9360301995
3.0176269871 1.7966081561 0.0000000000 0.6374767921 0.7374071707 -10192.4310457496 2.2807021321 1.9360418612
3.0231200679 1.8243404086 0.0000000000 0.6046220190 0.7165744001 -9856.2112363144 2.2814969482 1.9361221079
3.0275305488 1.8522964758 0.0000000000 0.5735087490 0.6950598027 -9506.6636576407 2.2822463913 1.9362698325
3.0308551389 1.8804358554 0.0000000000 0.5441720077 0.6730721222 -9146.4317162812 2.2829522910 1.9364834253
3.0330919186 1.9087173569 0.0000000000 0.5166264168 0.6508169527 -8778.1534964220 2.2836163900 1.9367607523
3.0342403190 1.9370991437 0.0000000000 0.4908650304 0.6284933269 -8404.4020942279 2.2842403190 1.9370991434
3.0343011156 1.9655387867 0.0000000000 0.4668592975 0.6062898728 -8027.6218696803 2.2848255870 1.9374953907
3.0332764352 1.9939933267 0.0000000000 0.4445603162 0.5843809566 -7650.0671352259 2.2853735874 1.9379457562
3.0311697740 2.0224193499 0.0000000000 0.4239014845 0.5629233877 -7273.7503315419 2.2858856166 1.9384459926
3.0279860228 2.0507730743 0.0000000000 0.4048020838 0.5420537158 -6900.4066268366 2.2863629032 1.9389913744
3.0237314968 2.0790104486 0.0000000000 0.3871695186 0.5218839451 -6531.4752154608 2.2868066419 1.9395767430
3.0184139649 2.1070872656 0.0000000000 0.3709005852 0.5024971919 -6168.0828088219 2.2872180308 1.9401965649
3.0120426741 2.1349592887 0.0000000000 0.3558963740 0.4839668638 -5811.0475600632 2.2875983044 1.9408450046
3.0046283662 2.1625823954 0.0000000000 0.3420950858 0.4664091552 -5461.0147915392 2.2879487620 1.9415160143
2.9961832840 2.1899127356 0.0000000000 0.3294421677 0.4499192820 -5118.6456801594 2.2882707864 1.9422034389
2.9867211675 2.2169069058 0.0000000000 0.3177196488 0.4341927120 -4784.2478056337 2.2885658560 1.9429011374
2.9762572421 2.2435221351 0.0000000000 0.3065045176 0.4183722388 -4456.7944954518 2.2888355502 1.9436031167
2.9648082017 2.2697164798 0.0000000000 0.2957408172 0.4025273685 -4134.4119712130 2.2890815508 1.9443036753
2.9523921893 2.2954490193 0.0000000000 0.2865132391 0.3903066690 -3818.1247802302 2.2893056442 1.9449975480
2.9390287776 2.3206800485 0.0000000000 0.2803763853 0.3877503080 -3514.5303728629 2.2895097248 1.9456800484
2.9247389483 2.3453712575 0.0000000000 0.2766839136 0.3936776235 -3229.5610574301 2.2896957989 1.9463472000
2.9095450651 2.3694858971 0.0000000000 0.2707358030 0.3881289189 -2957.5679906244 2.2898659844 1.9469958534
2.8934708370 2.3929889264 0.0000000000 0.2562791543 0.3354395635 -2682.1176582387 2.2900225022 1.9476237871
2.8765412795 2.4158471504 0.0000000000 0.2311862795 0.2090410833 -2390.8346857095 2.2901676678 1.9482297990
2.8587827174 2.4380293614 0.0000000000 0.2005755892 0.0206085012 -2088.5594422392 2.2903039252 1.9488138028
2.8402229790 2.4595064929 0.0000000000 0.1735608836 -0.1754730800 -1796.2168011207 2.2904340752 1.9493769395
2.7985502770 2.5022329088 0.0000000000 0.1535663268 -0.3527139494 -1266.9762320057 2.2905890984 1.9504399757
2.7753315374 2.5232450787 0.0000000000 0.1563065920 -0.3073977465 -1020.3892978450 2.2906071091 1.9509320275
2.7512742174 2.5432523503 0.0000000000 0.1595669030 -0.2377287742 -764.0979777298 2.2906146830 1.9513969682
2.7264183618 2.5622213635 0.0000000000 0.1608617778 -0.1867374638 -497.7681326331 2.2906107503 1.9518348255
2.7008056396 2.5801209258 0.0000000000 0.1608843116 -0.1600446115 -229.5918696094 2.2905945211 1.9522460671
2.6744791799 2.5969217728 0.0000000000 0.1607093354 -0.1438495749 33.6493613696 2.2905653932 1.9526313070
2.6474834359 2.6125965382 0.0000000000 0.1606604445 -0.1280929540 291.5704552343 2.2905228912 1.9529912247
2.6198640878 2.6271197698 0.0000000000 0.1606598549 -0.1119921279 546.7021052170 2.2904666463 1.9533265333
2.5916679680 2.6404679532 0.0000000000 0.1606884654 -0.0974434260 800.4721692985 2.2903963996 1.9536379582
2.5629429985 2.6526195352 0.0000000000 0.1608018446 -0.0846291226 1052.9085559403 2.2903120207 1.9539262192
2.5337381340 2.6635549519 0.0000000000 0.1610281593 -0.0728427478 1303.9606703473 2.2902135322 1.9541920205
2.5041033041 2.6732566604 0.0000000000 0.1613748752 -0.0617513132 1553.9101670610 2.2901011360 1.9544360485
2.4740893504 2.6817091718 0.0000000000 0.1618550600 -0.0512483092 1803.0711566234 2.2899752351 1.9546589723
2.4437479548 2.6888990795 0.0000000000 0.1624815364 -0.0411868826 2051.6874619875 2.2898364483 1.9548614454
2.4131315592 2.6948150803 0.0000000000 0.1632641979 -0.0314252381 2299.9983934391 2.2896856166 1.9550441027
2.3822932732 2.6994479902 0.0000000000 0.1642133178 -0.0218455916 2548.2459147229 2.2895237999 1.9552075554
2.3512867736 2.7027907548 0.0000000000 0.1653394814 -0.0123353980 2796.6657254590 2.2893522647 1.9553523850
2.3201661938 2.7048384597 0.0000000000 0.1666538827 -0.0027848474 3045.4909653796 2.2891724632 1.9554791409
2.2889860076 2.7055883445 0.0000000000 0.1681688257 0.0069172707 3294.9531358412 2.2889860078 1.9555883445
2.2578009098 2.7050398217 0.0000000000 0.1698975945 0.0168859486 3545.2855434831 2.2887946406 1.9556805030
2.2266656938 2.7031945012 0.0000000000 0.1718576853 0.0272537237 3796.7192875874 2.2886002031 1.9557561315
2.1956351309 2.7000562180 0.0000000000 0.1740673377 0.0381674566 4049.4810334752 2.2884046046 1.9558157833
2.1647638505 2.6956310610 0.0000000000 0.1765346841 0.0497381826 4303.8458685208 2.2882097933 1.9558600835
2.1341062210 2.6899273982 0.0000000000 0.1793033677 0.0622144447 4560.1015377599 2.2880177278 1.9558897643
2.1037162334 2.6829558972 0.0000000000 0.1824840505 0.0762112434 4818.2946410841 2.2878303489 1.9559056978
2.0736473836 2.6747295370 0.0000000000 0.1860364592 0.0917964116 5078.4129990178 2.2876495520 1.9559089252
2.0439525557 2.6652636114 0.0000000000 0.1896259651 0.1074504020 5341.4196904148 2.2874771577 1.9559006802
2.0146839034 2.6545757222 0.0000000000 0.1933560382 0.1233229356 5609.2426153674 2.2873148815 1.9558824062
1.9858927317 2.6426857610 0.0000000000 0.1987227003 0.1473755903 5881.8417668778 2.2871643004 1.9558557661
1.9576293773 2.6296158789 0.0000000000 0.2074646286 0.1917044204 6154.5843526478 2.2870268191 1.9558226426
1.9299430905 2.6153904423 0.0000000000 0.2181751845 0.2526931106 6422.3673049285 2.2869036355 1.9557851290
1.9028819190 2.6000359734 0.0000000000 0.2249725242 0.2951200286 6688.8942206010 2.2867957060 1.9557455078
1.8764925964 2.5835810756 0.0000000000 0.2218491189 0.2688114564 6967.2361891767 2.2867037152 1.9557062170
1.8508204367 2.5660563429 0.0000000000 0.2090594807 0.1523339044 7266.8473095548 2.2866280484 1.9556698051
1.8259092379 2.5474942568 0.0000000000 0.1939030920 -0.0196544876 7581.5233767703 2.2865687726 1.9556388749
1.8018011979 2.5279290699 0.0000000000 0.1845031198 -0.1785027273 7891.6623151318 2.2865256265 1.9556160189
1.7785368508 2.5073966731 0.0000000000 0.1834963010 -0.2748638526 8183.3807149539 2.2864980296 1.9556037402
1.7346921000 2.4635820265 0.0000000000 0.1941798088 -0.3186878585 8755.4573791381 2.2864850332 1.9556208480
1.7141838147 2.4403788803 0.0000000000 0.2005980133 -0.3301159188 9062.1376496966 2.2864968660 1.9556544521
1.6946633758 2.4163665048 0.0000000000 0.2074501603 -0.3517238679 9379.3492597405 2.2865187580 1.9557069705
1.6761621575 2.3915874447 0.0000000000 0.2149870649 -0.3779597168 9700.4373397799 2.2865486956 1.9557798333
1.6587096736 2.3660852355 0.0000000000 0.2231616179 -0.4040694195 10024.4315378259 2.2865845324 1.9558741171
1.6423335611 2.3399043336 0.0000000000 0.2320205140 -0.4296383814 10353.3952931547 2.2866240270 1.9559905470
1.6270595747 2.3130900414 0.0000000000 0.2417431780 -0.4556165113 10688.2808450679 2.2866648882 1.9561294969
1.6129115833 2.2856884368 0.0000000000 0.2524696335 -0.4823269889 11028.5927070378 2.2867048198 1.9562909954
1.5999115619 2.2577463056 0.0000000000 0.2642909737 -0.5096578348 11373.6371983751 2.2867415570 1.9564747374
1.5880795802 2.2293110785 0.0000000000 0.2773146207 -0.5375156765 11722.7783572594 2.2867728963 1.9566801009
1.5774337855 2.2004307697 0.0000000000 0.2916728186 -0.5658610917 12075.1470573272 2.2867967168 1.9569061681
1.5679903822 2.1711539176 0.0000000000 0.3075047591 -0.5946387965 12429.5210111103 2.2868109941 1.9571517497
1.5597636089 2.1415295254 0.0000000000 0.3249495839 -0.6237626169 12784.3229053488 2.2868138084 1.9574154104
1.5527657138 2.1116070019 0.0000000000 0.3441438656 -0.6531198137 13137.6137036890 2.2868033479 1.9576954956
1.5470069306 2.0814361010 0.0000000000 0.3652167120 -0.6825720369 13487.0927096576 2.2867779082 1.9579901585
1.5424954533 2.0510668605 0.0000000000 0.3882839362 -0.7119558886 13830.1219778764 2.2867358881 1.9582973874
1.5392374111 2.0205495412 0.0000000000 0.4134427115 -0.7410852107 14163.7730567576 2.2866757808 1.9586150324
1.5372368436 1.9899345649 0.0000000000 0.4407671063 -0.7697547462 14484.8907898600 2.2865961624 1.9589408345
1.5364956764 1.9592724548 0.0000000000 0.4703047813 -0.7977446737 14790.1678701544 2.2864956764 1.9592724551
1.5370136975 1.9286137765 0.0000000000 0.5020750105 -0.8248255720 15076.2230243460 2.2863730163 1.9596075075
1.5387885372 1.8980090816 0.0000000000 0.5360679887 -0.8507633895 15339.6763133401 2.2862269069 1.9599435911
1.5418156504 1.8675088530 0.0000000000 0.5722452352 -0.8753240756 15577.2167409051 2.2860560852 1.9602783267
1.5460883018 1.8371634508 0.0000000000 0.6105408125 -0.8982776590 15785.6595055080 2.2858592793 1.9606093938
1.5515975530 1.8070230591 0.0000000000 0.6508630677 -0.9194016859 15961.9922381741 2.2856351869 1.9609345661
1.5583322488 1.7771376313 0.0000000000 0.6930966386 -0.9384840367 16103.4110763426 2.2853824482 1.9612517470