 TITLE = "Tecplot data"
 VARIABLES = "X", "Y", "Z" "U", "V", "p", "dispX", "dispY"
 ZONE SOLUTIONTIME=197.900000, NODES=26114 , ELEMENTS=25916, DATAPACKING=POINT, ZONETYPE=FEQUADRILATERAL
7.1169906094 18.0169549734 0.0000000000 0.0000000000 0.0000000000 -640.8776384714 6.7634372188 17.6634015828
7.1169906097 17.3098481924 0.0000000000 0.0000000000 0.0000000000 -13770.5554584995 6.7634372188 17.6634015828
6.4098838281 18.0169549732 0.0000000000 0.0000000000 0.0000000000 5210.1256292071 6.7634372188 17.6634015828
6.4098838284 17.3098481920 0.0000000000 0.0000000000 0.0000000000 13898.1419834652 6.7634372188 17.6634015828
7.3399275714 18.1234276634 0.0000000000 0.0554325773 -0.1806387380 -960.3970726112 6.8095974856 17.5930975775
7.1561255963 17.0287532708 0.0000000000 0.8789926310 0.3294066065 -8079.2855092211 6.6257955100 17.5590833563
6.2450530157 18.1851070622 0.0000000000 0.1622085546 0.1731396085 4889.8061165282 6.7753831017 17.6547769765
6.1880226004 17.1590917563 0.0000000000 0.8663063899 -0.3629243514 7541.7588504156 6.7183526860 17.6894218425
8.1175031425 18.1710059389 0.0000000000 0.3472270433 -0.1174480478 -1210.4083333496 7.0568429708 17.1103457670
6.9997384805 15.9514351783 0.0000000000 0.8745730143 -0.0815700159 -1420.6253315290 5.9390783080 17.0120953493
5.7645122578 18.6415496177 0.0000000000 0.3198017388 0.1874814995 3610.4892568983 6.8251724300 17.5808894462
5.3559523099 16.7123606063 0.0000000000 0.7797926304 -0.0511518269 2895.1084743319 6.4166124812 17.7730207786
12.5929681676 17.4704952679 0.0000000000 0.8796553529 0.0045630259 -628.9258226434 8.3929681676 14.1704952679
7.0075879384 10.2403245463 0.0000000000 1.0345665870 0.1893299074 -150.7779158605 2.8075879384 13.5403245463
20.0000000000 4.7000000000 0.0000000000 0.9820936750 0.0197484265 0.3527646622 0.0000000000 0.0000000000
20.0000000000 -4.7000000000 0.0000000000 0.9972608712 -0.0578853527 -0.4244919063 0.0000000000 0.0000000000
-10.0000000000 15.0000000000 0.0000000000 1.0000000000 0.0000000000 116.9382898138 0.0000000000 0.0000000000
20.0000000000 15.0000000000 0.0000000000 1.1838132336 0.0000000000 -0.2759376834 0.0000000000 0.0000000000
20.0000000000 -15.0000000000 0.0000000000 1.1433732455 0.0000000000 -0.3190461486 0.0000000000 0.0000000000
-10.0000000000 -15.0000000000 0.0000000000 1.0000000000 0.0000000000 47.4115568376 0.0000000000 0.0000000000
7.1299631550 17.3233152141 0.0000000000 0.0000000000 0.0000000000 -13537.5869961052 6.7634372188 17.6634015828
7.1424230806 17.3372578774 0.0000000000 0.0000000000 0.0000000000 -13229.4000978737 6.7634372188 17.6634015828
7.1543529603 17.3516566821 0.0000000000 0.0000000000 0.0000000000 -12924.9906839869 6.7634372188 17.6634015828
7.1657361089 17.3664914902 0.0000000000 0.0000000000 0.0000000000 -12575.7749207748 6.7634372188 17.6634015828
7.1765566062 17.3817415540 0.0000000000 0.0000000000 0.0000000000 -12208.9329926683 6.7634372188 17.6634015828
7.1867993186 17.3973855448 0.0000000000 0.0000000000 0.0000000000 -11807.8908529503 6.7634372188 17.6634015828
7.1964499209 17.4134015830 0.0000000000 0.0000000000 0.0000000000 -11382.6275600506 6.7634372188 17.6634015828
7.2054949157 17.4297672689 0.0000000000 0.0000000000 0.0000000000 -10927.3209990911 6.7634372188 17.6634015828
7.2139216529 17.4464597135 0.0000000000 0.0000000000 0.0000000000 -10447.0309012148 6.7634372188 17.6634015828
7.2217183469 17.4634555709 0.0000000000 0.0000000000 0.0000000000 -9941.2521183986 6.7634372188 17.6634015828
7.2288740933 17.4807310708 0.0000000000 0.0000000000 0.0000000000 -9415.2034979418 6.7634372188 17.6634015828
7.2353788841 17.4982620520 0.0000000000 0.0000000000 0.0000000000 -8873.4233888134 6.7634372188 17.6634015828
7.2412236218 17.5160239958 0.0000000000 0.0000000000 0.0000000000 -8325.0081442038 6.7634372188 17.6634015828
7.2464001320 17.5339920605 0.0000000000 0.0000000000 0.0000000000 -7780.7475567688 6.7634372188 17.6634015828
7.2509011750 17.5521411160 0.0000000000 0.0000000000 0.0000000000 -7254.3378354981 6.7634372188 17.6634015828
7.2547204555 17.5704457794 0.0000000000 0.0000000000 0.0000000000 -6758.6912879454 6.7634372188 17.6634015828
7.2578526320 17.5888804499 0.0000000000 0.0000000000 0.0000000000 -6303.5326235282 6.7634372188 17.6634015828
7.2602933238 17.6074193449 0.0000000000 0.0000000000 0.0000000000 -5892.0863451314 6.7634372188 17.6634015828
7.2620391174 17.6260365362 0.0000000000 0.0000000000 0.0000000000 -5521.3748595656 6.7634372188 17.6634015828
7.2630875712 17.6447059858 0.0000000000 0.0000000000 0.0000000000 -5184.4960339961 6.7634372188 17.6634015828
7.2634372188 17.6634015830 0.0000000000 0.0000000000 0.0000000000 -4874.1754277193 6.7634372188 17.6634015828
7.2630875712 17.6820971801 0.0000000000 0.0000000000 0.0000000000 -4584.6241929378 6.7634372188 17.6634015828
7.2620391174 17.7007666297 0.0000000000 0.0000000000 0.0000000000 -4311.9069786557 6.7634372188 17.6634015828
7.2602933238 17.7193838210 0.0000000000 0.0000000000 0.0000000000 -4053.3270536988 6.7634372188 17.6634015828
7.2578526319 17.7379227160 0.0000000000 0.0000000000 0.0000000000 -3806.9443196236 6.7634372188 17.6634015828
7.2547204554 17.7563573865 0.0000000000 0.0000000000 0.0000000000 -3571.2388407381 6.7634372188 17.6634015828
7.2509011749 17.7746620499 0.0000000000 0.0000000000 0.0000000000 -3344.9860847811 6.7634372188 17.6634015828
7.2464001319 17.7928111055 0.0000000000 0.0000000000 0.0000000000 -3127.1592159691 6.7634372188 17.6634015828
7.2412236217 17.8107791701 0.0000000000 0.0000000000 0.0000000000 -2916.8941358422 6.7634372188 17.6634015828
7.2353788839 17.8285411139 0.0000000000 0.0000000000 0.0000000000 -2713.4503070286 6.7634372188 17.6634015828
7.2288740931 17.8460720951 0.0000000000 0.0000000000 0.0000000000 -2516.1996295427 6.7634372188 17.6634015828
7.2217183467 17.8633475950 0.0000000000 0.0000000000 0.0000000000 -2324.6035001405 6.7634372188 17.6634015828
7.2139216527 17.8803434524 0.0000000000 0.0000000000 0.0000000000 -2138.2090050245 6.7634372188 17.6634015828
7.2054949155 17.8970358970 0.0000000000 0.0000000000 0.0000000000 -1956.6181129400 6.7634372188 17.6634015828
7.1964499207 17.9134015829 0.0000000000 0.0000000000 0.0000000000 -1779.4982951096 6.7634372188 17.6634015828
7.1867993184 17.9294176211 0.0000000000 0.0000000000 0.0000000000 -1606.5214885975 6.7634372188 17.6634015828
7.1765566059 17.9450616119 0.0000000000 0.0000000000 0.0000000000 -1437.4361739667 6.7634372188 17.6634015828
7.1657361087 17.9603116756 0.0000000000 0.0000000000 0.0000000000 -1271.9119737801 6.7634372188 17.6634015828
7.1543529600 17.9751464837 0.0000000000 0.0000000000 0.0000000000 -1109.8024043386 6.7634372188 17.6634015828
7.1424230804 17.9895452885 0.0000000000 0.0000000000 0.0000000000 -950.6761623386 6.7634372188 17.6634015828
7.1299631547 18.0034879517 0.0000000000 0.0000000000 0.0000000000 -794.6453185358 6.7634372188 17.6634015828
7.1020780046 18.0312635381 0.0000000000 0.0000000000 0.0000000000 -474.4332505241 6.7634372188 17.6634015828
7.0865868377 18.0449436169 0.0000000000 0.0000000000 0.0000000000 -310.4535448392 6.7634372188 17.6634015828
7.0705435751 18.0579718375 0.0000000000 0.0000000000 0.0000000000 -149.3003713990 6.7634372188 17.6634015828
7.0539756265 18.0703259414 0.0000000000 0.0000000000 0.0000000000 9.5386999498 6.7634372188 17.6634015828
7.0369112978 18.0819848219 0.0000000000 0.0000000000 0.0000000000 166.0134211321 6.7634372188 17.6634015828
7.0193797433 18.0929285600 0.0000000000 0.0000000000 0.0000000000 320.4258370175 6.7634372188 17.6634015828
7.0014109153 18.1031384584 0.0000000000 0.0000000000 0.0000000000 472.8352722503 6.7634372188 17.6634015828
6.9830355132 18.1125970737 0.0000000000 0.0000000000 0.0000000000 623.4508066443 6.7634372188 17.6634015828
6.9642849311 18.1212882461 0.0000000000 0.0000000000 0.0000000000 772.3783443381 6.7634372188 17.6634015828
6.9451912040 18.1291971268 0.0000000000 0.0000000000 0.0000000000 919.7866093241 6.7634372188 17.6634015828
6.9257869534 18.1363102036 0.0000000000 0.0000000000 0.0000000000 1065.8029872782 6.7634372188 17.6634015828
6.9061053309 18.1426153240 0.0000000000 0.0000000000 0.0000000000 1210.5819877318 6.7634372188 17.6634015828
6.8861799623 18.1481017158 0.0000000000 0.0000000000 0.0000000000 1354.2642698179 6.7634372188 17.6634015828
6.8660448898 18.1527600054 0.0000000000 0.0000000000 0.0000000000 1497.0042827533 6.7634372188 17.6634015828
6.8457345139 18.1565822345 0.0000000000 0.0000000000 0.0000000000 1638.9551869828 6.7634372188 17.6634015828
6.8252835344 18.1595618726 0.0000000000 0.0000000000 0.0000000000 1780.2799839939 6.7634372188 17.6634015828
6.8047268915 18.1616938293 0.0000000000 0.0000000000 0.0000000000 1921.1466357811 6.7634372188 17.6634015828
6.7840997059 18.1629744620 0.0000000000 0.0000000000 0.0000000000 2061.7327616226 6.7634372188 17.6634015828
6.7634372187 18.1634015828 0.0000000000 0.0000000000 0.0000000000 2202.2245988820 6.7634372188 17.6634015828
6.7427747316 18.1629744620 0.0000000000 0.0000000000 0.0000000000 2342.8192960388 6.7634372188 17.6634015828
6.7221475460 18.1616938293 0.0000000000 0.0000000000 0.0000000000 2483.7252571141 6.7634372188 17.6634015828
6.7015909031 18.1595618726 0.0000000000 0.0000000000 0.0000000000 2625.1635897580 6.7634372188 17.6634015828
6.6811399236 18.1565822344 0.0000000000 0.0000000000 0.0000000000 2767.3689402910 6.7634372188 17.6634015828
6.6608295476 18.1527600054 0.0000000000 0.0000000000 0.0000000000 2910.5906859644 6.7634372188 17.6634015828
6.6406944751 18.1481017157 0.0000000000 0.0000000000 0.0000000000 3055.0939703605 6.7634372188 17.6634015828
6.6207691066 18.1426153240 0.0000000000 0.0000000000 0.0000000000 3201.1608874491 6.7634372188 17.6634015828
6.6010874841 18.1363102036 0.0000000000 0.0000000000 0.0000000000 3349.0917121265 6.7634372188 17.6634015828
6.5816832334 18.1291971267 0.0000000000 0.0000000000 0.0000000000 3499.2063418662 6.7634372188 17.6634015828
6.5625895064 18.1212882460 0.0000000000 0.0000000000 0.0000000000 3651.8460387151 6.7634372188 17.6634015828
6.5438389243 18.1125970736 0.0000000000 0.0000000000 0.0000000000 3807.3756131936 6.7634372188 17.6634015828
6.5254635222 18.1031384583 0.0000000000 0.0000000000 0.0000000000 3966.1861445768 6.7634372188 17.6634015828
6.5074946942 18.0929285599 0.0000000000 0.0000000000 0.0000000000 4128.6983818902 6.7634372188 17.6634015828
6.4899631397 18.0819848218 0.0000000000 0.0000000000 0.0000000000 4295.3670560472 6.7634372188 17.6634015828
6.4728988110 18.0703259413 0.0000000000 0.0000000000 0.0000000000 4466.6863394859 6.7634372188 17.6634015828
6.4563308624 18.0579718374 0.0000000000 0.0000000000 0.0000000000 4643.1964868460 6.7634372188 17.6634015828
6.4402875998 18.0449436168 0.0000000000 0.0000000000 0.0000000000 4825.4913491037 6.7634372188 17.6634015828
6.4247964329 18.0312635380 0.0000000000 0.0000000000 0.0000000000 5014.2262197027 6.7634372188 17.6634015828
6.3955752634 18.0020423685 0.0000000000 0.0000000000 0.0000000000 5413.9915859906 6.7634372188 17.6634015828
6.3818951846 17.9865512016 0.0000000000 0.0000000000 0.0000000000 5626.7150343962 6.7634372188 17.6634015828
6.3688669640 17.9705079390 0.0000000000 0.0000000000 0.0000000000 5849.2982930043 6.7634372188 17.6634015828
6.3565128601 17.9539399903 0.0000000000 0.0000000000 0.0000000000 6082.9053694372 6.7634372188 17.6634015828
6.3448539796 17.9368756617 0.0000000000 0.0000000000 0.0000000000 6328.9752793628 6.7634372188 17.6634015828
6.3339102416 17.9193441072 0.0000000000 0.0000000000 0.0000000000 6589.4752950193 6.7634372188 17.6634015828
6.3237003431 17.9013752791 0.0000000000 0.0000000000 0.0000000000 6867.3830470080 6.7634372188 17.6634015828
6.3142417278 17.8829998770 0.0000000000 0.0000000000 0.0000000000 7167.2353708063 6.7634372188 17.6634015828
6.3055505554 17.8642492949 0.0000000000 0.0000000000 0.0000000000 7495.0621794435 6.7634372188 17.6634015828
6.2976416747 17.8451555679 0.0000000000 0.0000000000 0.0000000000 7857.0754899826 6.7634372188 17.6634015828
6.2905285979 17.8257513172 0.0000000000 0.0000000000 0.0000000000 8257.6382898777 6.7634372188 17.6634015828
6.2842234776 17.8060696947 0.0000000000 0.0000000000 0.0000000000 8697.9141220205 6.7634372188 17.6634015828
6.2787370858 17.7861443261 0.0000000000 0.0000000000 0.0000000000 9175.9048814298 6.7634372188 17.6634015828
6.2740787961 17.7660092537 0.0000000000 0.0000000000 0.0000000000 9687.3841501685 6.7634372188 17.6634015828
6.2702565671 17.7456988777 0.0000000000 0.0000000000 0.0000000000 10226.9061417339 6.7634372188 17.6634015828
6.2672769289 17.7252478982 0.0000000000 0.0000000000 0.0000000000 10788.4619862155 6.7634372188 17.6634015828
6.2651449723 17.7046912553 0.0000000000 0.0000000000 0.0000000000 11365.7702788202 6.7634372188 17.6634015828
6.2638643396 17.6840640697 0.0000000000 0.0000000000 0.0000000000 11952.3456215028 6.7634372188 17.6634015828
6.2634372188 17.6634015826 0.0000000000 0.0000000000 0.0000000000 12541.4738003056 6.7634372188 17.6634015828
6.2638643396 17.6427390954 0.0000000000 0.0000000000 0.0000000000 13126.1646552964 6.7634372188 17.6634015828
6.2651449723 17.6221119098 0.0000000000 0.0000000000 0.0000000000 13699.1113836684 6.7634372188 17.6634015828
6.2672769290 17.6015552669 0.0000000000 0.0000000000 0.0000000000 14252.6654675977 6.7634372188 17.6634015828
6.2702565672 17.5811042874 0.0000000000 0.0000000000 0.0000000000 14778.8307616740 6.7634372188 17.6634015828
6.2740787962 17.5607939115 0.0000000000 0.0000000000 0.0000000000 15269.2800266287 6.7634372188 17.6634015828
6.2787370859 17.5406588390 0.0000000000 0.0000000000 0.0000000000 15715.3988511039 6.7634372188 17.6634015828
6.2842234777 17.5207334704 0.0000000000 0.0000000000 0.0000000000 16108.3620211207 6.7634372188 17.6634015828
6.2905285981 17.5010518479 0.0000000000 0.0000000000 0.0000000000 16439.2473282219 6.7634372188 17.6634015828
6.2976416749 17.4816475973 0.0000000000 0.0000000000 0.0000000000 16699.1882759917 6.7634372188 17.6634015828
6.3055505556 17.4625538702 0.0000000000 0.0000000000 0.0000000000 16879.5642275404 6.7634372188 17.6634015828
6.3142417280 17.4438032881 0.0000000000 0.0000000000 0.0000000000 16972.2190751606 6.7634372188 17.6634015828
6.3237003433 17.4254278860 0.0000000000 0.0000000000 0.0000000000 16969.6960185833 6.7634372188 17.6634015828
6.3339102418 17.4074590580 0.0000000000 0.0000000000 0.0000000000 16865.4675705236 6.7634372188 17.6634015828
6.3448539798 17.3899275035 0.0000000000 0.0000000000 0.0000000000 16654.1425895875 6.7634372188 17.6634015828
6.3565128603 17.3728631749 0.0000000000 0.0000000000 0.0000000000 16331.6281303972 6.7634372188 17.6634015828
6.3688669643 17.3562952262 0.0000000000 0.0000000000 0.0000000000 15895.2408113969 6.7634372188 17.6634015828
6.3818951849 17.3402519636 0.0000000000 0.0000000000 0.0000000000 15343.7628405433 6.7634372188 17.6634015828
6.3955752637 17.3247607968 0.0000000000 0.0000000000 0.0000000000 14677.4691929803 6.7634372188 17.6634015828
6.4247964332 17.2955396272 0.0000000000 0.0000000000 0.0000000000 13009.1220915394 6.7634372188 17.6634015828
6.4402876001 17.2818595485 0.0000000000 0.0000000000 0.0000000000 12015.3969993379 6.7634372188 17.6634015828
6.4563308627 17.2688313279 0.0000000000 0.0000000000 0.0000000000 10923.7548325522 6.7634372188 17.6634015828
6.4728988113 17.2564772240 0.0000000000 0.0000000000 0.0000000000 9742.9314957085 6.7634372188 17.6634015828
6.4899631400 17.2448183435 0.0000000000 0.0000000000 0.0000000000 8483.7240016965 6.7634372188 17.6634015828
6.5074946945 17.2338746054 0.0000000000 0.0000000000 0.0000000000 7158.9542480993 6.7634372188 17.6634015828
6.5254635226 17.2236647070 0.0000000000 0.0000000000 0.0000000000 5783.2330464679 6.7634372188 17.6634015828
6.5438389247 17.2142060917 0.0000000000 0.0000000000 0.0000000000 4372.4806120039 6.7634372188 17.6634015828
6.5625895068 17.2055149193 0.0000000000 0.0000000000 0.0000000000 2943.2441261130 6.7634372188 17.6634015828
6.5816832338 17.1976060386 0.0000000000 0.0000000000 0.0000000000 1511.9103038417 6.7634372188 17.6634015828
6.6010874845 17.1904929618 0.0000000000 0.0000000000 0.0000000000 93.9567130603 6.7634372188 17.6634015828
6.6207691070 17.1841878415 0.0000000000 0.0000000000 0.0000000000 -1296.6212747519 6.7634372188 17.6634015828
6.6406944755 17.1787014497 0.0000000000 0.0000000000 0.0000000000 -2647.6249572189 6.7634372188 17.6634015828
6.6608295480 17.1740431600 0.0000000000 0.0000000000 0.0000000000 -3948.7088562135 6.7634372188 17.6634015828
6.6811399240 17.1702209310 0.0000000000 0.0000000000 0.0000000000 -5191.2542778617 6.7634372188 17.6634015828
6.7015909035 17.1672412929 0.0000000000 0.0000000000 0.0000000000 -6368.1673689146 6.7634372188 17.6634015828
6.7221475464 17.1651093362 0.0000000000 0.0000000000 0.0000000000 -7473.6903146703 6.7634372188 17.6634015828
6.7427747320 17.1638287036 0.0000000000 0.0000000000 0.0000000000 -8503.2652031800 6.7634372188 17.6634015828
6.7634372191 17.1634015828 0.0000000000 0.0000000000 0.0000000000 -9453.4462719146 6.7634372188 17.6634015828
6.7840997063 17.1638287036 0.0000000000 0.0000000000 0.0000000000 -10321.8404950086 6.7634372188 17.6634015828
6.8047268919 17.1651093363 0.0000000000 0.0000000000 0.0000000000 -11107.0683399687 6.7634372188 17.6634015828
6.8252835348 17.1672412929 0.0000000000 0.0000000000 0.0000000000 -11808.7438125990 6.7634372188 17.6634015828
6.8457345143 17.1702209311 0.0000000000 0.0000000000 0.0000000000 -12427.4720662372 6.7634372188 17.6634015828
6.8660448902 17.1740431602 0.0000000000 0.0000000000 0.0000000000 -12964.8252695654 6.7634372188 17.6634015828
6.8861799627 17.1787014499 0.0000000000 0.0000000000 0.0000000000 -13423.2625392230 6.7634372188 17.6634015828
6.9061053313 17.1841878416 0.0000000000 0.0000000000 0.0000000000 -13805.9484181168 6.7634372188 17.6634015828
6.9257869537 17.1904929620 0.0000000000 0.0000000000 0.0000000000 -14116.4855904983 6.7634372188 17.6634015828
6.9451912044 17.1976060389 0.0000000000 0.0000000000 0.0000000000 -14358.6695073149 6.7634372188 17.6634015828
6.9642849315 17.2055149196 0.0000000000 0.0000000000 0.0000000000 -14536.1502624234 6.7634372188 17.6634015828
6.9830355136 17.2142060920 0.0000000000 0.0000000000 0.0000000000 -14652.6249708111 6.7634372188 17.6634015828
7.0014109157 17.2236647073 0.0000000000 0.0000000000 0.0000000000 -14711.1310017619 6.7634372188 17.6634015828
7.0193797437 17.2338746058 0.0000000000 0.0000000000 0.0000000000 -14715.7147471886 6.7634372188 17.6634015828
7.0369112982 17.2448183438 0.0000000000 0.0000000000 0.0000000000 -14668.2250052494 6.7634372188 17.6634015828
7.0539756268 17.2564772243 0.0000000000 0.0000000000 0.0000000000 -14574.7814285311 6.7634372188 17.6634015828
7.0705435755 17.2688313283 0.0000000000 0.0000000000 0.0000000000 -14433.9848221664 6.7634372188 17.6634015828
7.0865868380 17.2818595489 0.0000000000 0.0000000000 0.0000000000 -14256.2365703765 6.7634372188 17.6634015828
7.1020780049 17.2955396277 0.0000000000 0.0000000000 0.0000000000 -14035.3464260424 6.7634372188 17.6634015828
7.1831569761 17.0418434025 0.0000000000 0.8518733026 0.3565518432 -8079.9803548165 6.6333680718 17.5519729555
7.2094554200 17.0559110125 0.0000000000 0.8247615554 0.3780200764 -8056.3006949384 6.6409766273 17.5451265705
7.2349556231 17.0709399666 0.0000000000 0.7977371301 0.3941252701 -8010.7752912832 6.6485820110 17.5385573176
7.2595889334 17.0869260979 0.0000000000 0.7709834219 0.4055514591 -7946.5110922461 6.6561405983 17.5322912367
7.2832891934 17.1038678940 0.0000000000 0.7446458049 0.4130668915 -7866.3535621061 6.6636101124 17.5263579372
7.3059955150 17.1217638043 0.0000000000 0.7188062406 0.4173634325 -7772.7887652903 6.6709523653 17.5207878613
7.3276538800 17.1406109570 0.0000000000 0.6934866816 0.4190073753 -7667.8812704261 6.6781348269 17.5156109566
7.3482179668 17.1604044096 0.0000000000 0.6686668708 0.4184484320 -7553.2625657405 6.6851314215 17.5108558804
7.3676493255 17.1811366700 0.0000000000 0.6443029613 0.4160450931 -7430.1428653042 6.6919226744 17.5065494739
7.3859170034 17.2027973584 0.0000000000 0.6203420300 0.4120865809 -7299.3446496880 6.6984953113 17.5027163762
7.4029967689 17.2253729306 0.0000000000 0.5967316315 0.4068068088 -7161.3507956424 6.7048414572 17.4993786985
7.4188701212 17.2488464178 0.0000000000 0.5734256188 0.4003924728 -7016.3622007431 6.7109576234 17.4965557139
7.4335232574 17.2731971666 0.0000000000 0.5503877166 0.3929885873 -6864.3611981635 6.7168436529 17.4942635470
7.4469461199 17.2984005811 0.0000000000 0.5275938868 0.3847037493 -6705.1781464963 6.7225017501 17.4925148646
7.4591315881 17.3244278775 0.0000000000 0.5050340058 0.3756161212 -6538.5595111476 6.7279356539 17.4913185777
7.4700748305 17.3512458621 0.0000000000 0.4827129866 0.3657802681 -6364.2360869783 6.7331499755 17.4906795671
7.4797728102 17.3788167425 0.0000000000 0.4606512595 0.3552345821 -6181.9897369224 6.7381496905 17.4905984418
7.4882239283 17.4070979818 0.0000000000 0.4388844339 0.3440089017 -5991.7162180912 6.7429397708 17.4910713386
7.4954277868 17.4360422015 0.0000000000 0.4174620585 0.3321319363 -5793.4806642902 6.7475249389 17.4920897714
7.5013850597 17.4655971398 0.0000000000 0.3964455467 0.3196380987 -5587.5614159660 6.7519095311 17.4936405351
7.5060974614 17.4957056707 0.0000000000 0.3759045756 0.3065730486 -5374.4755037241 6.7560974614 17.4957056703
7.5095678036 17.5263058891 0.0000000000 0.3559099257 0.2929966941 -5154.9756596607 6.7600922750 17.4982624931
7.5118001300 17.5573312660 0.0000000000 0.3365262344 0.2789847440 -4930.0260970525 6.7638972821 17.5012836955
7.5127999127 17.5887108796 0.0000000000 0.3178219070 0.2646380455 -4700.8122143560 6.7675157553 17.5047375223
7.5125742895 17.6203697318 0.0000000000 0.2998965248 0.2501020864 -4468.7880198302 6.7709511698 17.5085880319
7.5111323178 17.6522291581 0.0000000000 0.2828526252 0.2355440308 -4235.5007468310 6.7742074630 17.5127954525
7.5084852196 17.6842073455 0.0000000000 0.2666439235 0.2210107585 -4001.9297333384 6.7772892856 17.5173166448
7.5046465949 17.7162199725 0.0000000000 0.2509748039 0.2062941822 -3767.9879203462 6.7802022252 17.5221056884
7.4996325901 17.7481809808 0.0000000000 0.2356141257 0.1912258341 -3533.6447051907 6.7829529858 17.5271145998
7.4934620174 17.7800034885 0.0000000000 0.2210464933 0.1765238692 -3301.5302780914 6.7855495197 17.5322941919
7.4861564316 17.8116008368 0.0000000000 0.2085829291 0.1642256951 -3077.6432478227 6.7880011202 17.5375950683
7.4777401808 17.8428877553 0.0000000000 0.1991779472 0.1562346158 -2867.1083499868 6.7903184890 17.5429687368
7.4682404509 17.8737816125 0.0000000000 0.1916841291 0.1511199576 -2667.9086601978 6.7925138001 17.5483688080
7.4576873171 17.9042037085 0.0000000000 0.1824517579 0.1419546529 -2469.9612821290 6.7946007720 17.5537522372
7.4461138037 17.9340805620 0.0000000000 0.1672711027 0.1183646743 -2262.3358944764 6.7965947509 17.5590805618
7.4335559205 17.9633451491 0.0000000000 0.1443988176 0.0727368967 -2042.6215234907 6.7985127711 17.5643210915
7.4200526127 17.9919380701 0.0000000000 0.1162509397 0.0065020150 -1820.1006696314 6.8003735321 17.5694480264
7.4056455763 18.0198086439 0.0000000000 0.0884135353 -0.0684175001 -1610.0218485829 6.8021972416 17.5744435047
7.3903790318 18.0469159851 0.0000000000 0.0667344190 -0.1345815385 -1423.4053960857 6.8040054200 17.5792986336
7.3742999384 18.0732302261 0.0000000000 0.0545295872 -0.1773398469 -1260.1094319573 6.8058211461 17.5840146676
7.3574603013 18.0987339116 0.0000000000 0.0516247463 -0.1911623682 -1110.0125020192 6.8076713975 17.5886043582
7.3186035819 18.1488818045 0.0000000000 0.0621913889 -0.1535485872 -788.4924251392 6.8106424032 17.5970888714
7.2964485497 18.1732619829 0.0000000000 0.0683080149 -0.1250679243 -612.6008282514 6.8117241214 17.6009489317
7.2734725636 18.1965095704 0.0000000000 0.0723895141 -0.1038539606 -434.8298874014 6.8128130292 17.6046541883
7.2496947684 18.2185854334 0.0000000000 0.0746173033 -0.0908591815 -262.1467726535 6.8138871569 17.6081988954
7.2251381765 18.2394580145 0.0000000000 0.0758525953 -0.0828930534 -96.0749822234 6.8149270580 17.6115831557
7.1998280885 18.2590999693 0.0000000000 0.0768071298 -0.0764114904 64.2251884113 6.8159143018 17.6148095035
7.1737910433 18.2774872616 0.0000000000 0.0777745999 -0.0696726148 220.6464562226 6.8168304987 17.6178819481
7.1470544130 18.2945987582 0.0000000000 0.0787403168 -0.0626482490 374.5224592364 6.8176569714 17.6208055217
7.1196464223 18.3104158563 0.0000000000 0.0796133327 -0.0558969757 526.3792429087 6.8183748539 17.6235858613
7.0915964564 18.3249221053 0.0000000000 0.0803626982 -0.0497068377 676.3011406453 6.8189654786 17.6262287892
7.0629355296 18.3381028929 0.0000000000 0.0810205201 -0.0439821268 824.3478215491 6.8194109278 17.6287399616
7.0336968071 18.3499452249 0.0000000000 0.0816305271 -0.0385252916 970.7172533221 6.8196946390 17.6311246130
7.0039160938 18.3604375838 0.0000000000 0.0822201244 -0.0332305130 1115.6982089025 6.8198019786 17.6333873843
6.9736322321 18.3695698344 0.0000000000 0.0828069799 -0.0280653455 1259.5737273044 6.8197207256 17.6355322004
6.9428873756 18.3773331590 0.0000000000 0.0834111681 -0.0229962197 1402.5834424275 6.8194414330 17.6375621814
6.9117271294 18.3837200177 0.0000000000 0.0840568887 -0.0179717439 1544.9403543164 6.8189576561 17.6394795828
6.8802005625 18.3887241470 0.0000000000 0.0847701682 -0.0129374317 1686.8486368520 6.8182660536 17.6412857772
6.8483601125 18.3923406113 0.0000000000 0.0855790468 -0.0078372296 1828.5037728215 6.8173663820 17.6429812925
6.8162614080 18.3945659166 0.0000000000 0.0865148066 -0.0026065092 1970.0908328179 6.8162614082 17.6445659166
6.7839630358 18.3953981852 0.0000000000 0.0876126197 0.0028319479 2111.7875841966 6.8149567666 17.6460388664
6.7515262752 18.3948373753 0.0000000000 0.0889131520 0.0085724906 2253.7684089564 6.8134607845 17.6473990056
6.7190148165 18.3928855247 0.0000000000 0.0904654109 0.0147387570 2396.2018531412 6.8117842902 17.6486450900
6.6864944716 18.3895469946 0.0000000000 0.0923158611 0.0214612937 2539.2778502539 6.8099404145 17.6497760171
6.6540328792 18.3848286957 0.0000000000 0.0945711830 0.0290146712 2683.1529073792 6.8079443860 17.6507910618
6.6216992030 18.3787402880 0.0000000000 0.0973422536 0.0377620036 2827.9188022109 6.8058133185 17.6516900886
6.5895638175 18.3712943540 0.0000000000 0.1004927217 0.0474707682 2974.0028736598 6.8035659859 17.6524737422
6.5576979778 18.3625065504 0.0000000000 0.1042968653 0.0587964993 3121.9654956919 6.8012225799 17.6531436192
6.5261734675 18.3523957444 0.0000000000 0.1104175851 0.0764234740 3271.2924077175 6.7988044456 17.6537024284
6.4950622244 18.3409841347 0.0000000000 0.1202416644 0.1054134085 3420.9102162151 6.7963337930 17.6541541397
6.4644359405 18.3282973536 0.0000000000 0.1318538145 0.1416925409 3571.6998827223 6.7938333823 17.6545041173
6.4343656383 18.3143645375 0.0000000000 0.1409770295 0.1721556174 3726.3685729801 6.7913261832 17.6547592242
6.4049212233 18.2992183490 0.0000000000 0.1454867478 0.1875996962 3885.9015245096 6.7888350103 17.6549278834
6.3761710171 18.2828949361 0.0000000000 0.1471675592 0.1908935392 4048.2758427340 6.7863821359 17.6550200775
6.3481812752 18.2654338153 0.0000000000 0.1488701597 0.1903733478 4211.4956373730 6.7839888869 17.6550472775
6.3210156974 18.2468776756 0.0000000000 0.1516817060 0.1899269496 4376.1019388120 6.7816752321 17.6550222937
6.2947349468 18.2272721013 0.0000000000 0.1551348858 0.1879837164 4543.7950071676 6.7794593754 17.6549590503
6.2693962128 18.2066652102 0.0000000000 0.1586778393 0.1824221362 4715.1652184073 6.7773573917 17.6548722774
6.2217507650 18.1626509088 0.0000000000 0.1658140297 0.1610648177 5067.5255586993 6.7735436981 17.6546897303
6.1995365479 18.1393493284 0.0000000000 0.1695654647 0.1469293637 5248.5636156057 6.7718495992 17.6546249002
6.1784486880 18.1152569177 0.0000000000 0.1735273467 0.1311622417 5433.1475006546 6.7703040701 17.6545973833
6.1585206137 18.0904286036 0.0000000000 0.1777763716 0.1141195919 5621.3198466287 6.7689071518 17.6546209923
6.1397805924 18.0649194482 0.0000000000 0.1823942869 0.0961211678 5813.0353412035 6.7676554513 17.6547083298
6.1222517892 18.0387843266 0.0000000000 0.1874622137 0.0774104164 6008.1946976781 6.7665422551 17.6548705400
6.1059524960 18.0120776451 0.0000000000 0.1930598722 0.0581556082 6206.6066373561 6.7655578095 17.6551171006
6.0908964892 17.9848531159 0.0000000000 0.1992654222 0.0384717076 6407.9584264140 6.7646897257 17.6554556745
6.0770934809 17.9571635912 0.0000000000 0.2061558326 0.0184385668 6611.7998225387 6.7639234760 17.6558920230
6.0645496236 17.9290609575 0.0000000000 0.2138073828 -0.0018852050 6817.5296694854 6.7632429397 17.6564299798
6.0532680281 17.9005960808 0.0000000000 0.2222957384 -0.0224510241 7024.3865015752 6.7626309595 17.6570714792
6.0432492556 17.8718187955 0.0000000000 0.2316955773 -0.0432118396 7231.4450600276 6.7620698675 17.6578166276
6.0344917532 17.8427779227 0.0000000000 0.2420798779 -0.0641161664 7437.6185455028 6.7615419527 17.6586638076
6.0269922091 17.8135213067 0.0000000000 0.2535189844 -0.0851041106 7641.6659106209 6.7610298432 17.6596098004
6.0207458160 17.7840958606 0.0000000000 0.2660795788 -0.1061048410 7842.2031981303 6.7605167936 17.6606499182
6.0157464378 17.7545476130 0.0000000000 0.2798236806 -0.1270350194 8037.7176634542 6.7599868727 17.6617781398
6.0119866879 17.7249217548 0.0000000000 0.2948077450 -0.1477978059 8226.5833459988 6.7594250577 17.6629872460
6.0094579302 17.6952626876 0.0000000000 0.3110818584 -0.1682822025 8407.0769112242 6.7588172490 17.6642689572
6.0081502227 17.6656140739 0.0000000000 0.3286889576 -0.1883626922 8577.3929603105 6.7581502227 17.6656140742
6.0080522226 17.6360188950 0.0000000000 0.3476639216 -0.2078993573 8735.6585428947 6.7574115414 17.6670126260
6.0091510695 17.6065195162 0.0000000000 0.3680323568 -0.2267388874 8879.9472200659 6.7565894392 17.6684540256