 TITLE = "Tecplot data"
 VARIABLES = "X", "Y", "Z" "U", "V", "p", "dispX", "dispY"
 ZONE SOLUTIONTIME=128.900000, NODES=26114 , ELEMENTS=25916, DATAPACKING=POINT, ZONETYPE=FEQUADRILATERAL
0.4078628846 0.4078628847 0.0000000000 0.0002175960 0.0002175960 -582.2054428502 0.0543094941 0.0543094941
0.4078628849 -0.2992438963 0.0000000000 0.0002175960 0.0002175960 -313.7028765820 0.0543094941 0.0543094941
-0.2992438966 0.4078628846 0.0000000000 0.0002175960 0.0002175960 -283.4429524661 0.0543094941 0.0543094941
-0.2992438963 -0.2992438967 0.0000000000 0.0002175960 0.0002175960 -80.0958221781 0.0543094941 0.0543094941
0.5801099441 0.5801652712 0.0000000000 0.4610228597 -0.0310639008 -561.0161888413 0.0497798583 0.0498351853
0.5753566107 -0.4852134069 0.0000000000 0.1543405641 0.0308749149 -301.4120571525 0.0450265244 0.0451166786
-0.4855972587 0.5752239688 0.0000000000 0.9136565210 0.5227878040 -14.2447026782 0.0447328274 0.0448938831
-0.4809397724 -0.4804609159 0.0000000000 0.8443533097 -0.4603967808 97.7091171685 0.0493903133 0.0498691703
1.1001542134 1.1002277135 0.0000000000 1.1859992566 -0.2298932499 -269.7671380622 0.0394940417 0.0395675416
1.0924743184 -1.0285126859 0.0000000000 1.2433612769 -0.0630575740 -118.5706045898 0.0318141458 0.0321474851
-1.0296242193 1.0921573017 0.0000000000 0.9722348848 0.1648685789 50.6440958380 0.0310359528 0.0314971302
-1.0223518796 -1.0211385964 0.0000000000 0.9425868606 -0.1546553890 105.6968961646 0.0383082916 0.0395215759
4.2203834015 3.3178929431 0.0000000000 1.0414655632 -0.0224193836 19.7719048818 0.0203834015 0.0178929431
4.2122423049 -3.2891390504 0.0000000000 1.0004324954 0.0016735618 28.5683861521 0.0122423049 0.0108609496
20.0000000000 4.7000000000 0.0000000000 1.0440075707 0.0371218060 0.2323265969 0.0000000000 0.0000000000
20.0000000000 -4.7000000000 0.0000000000 1.0392976858 -0.0306245513 0.0375735729 0.0000000000 0.0000000000
-10.0000000000 15.0000000000 0.0000000000 1.0000000000 0.0000000000 25.6833370711 0.0000000000 0.0000000000
20.0000000000 15.0000000000 0.0000000000 1.0320676709 0.0000000000 0.0237663001 0.0000000000 0.0000000000
20.0000000000 -15.0000000000 0.0000000000 1.0318384737 0.0000000000 0.0248710649 0.0000000000 0.0000000000
-10.0000000000 -15.0000000000 0.0000000000 1.0000000000 0.0000000000 39.1769596374 0.0000000000 0.0000000000
0.4208354302 -0.2857768745 0.0000000000 0.0002175960 0.0002175960 -312.3990891544 0.0543094941 0.0543094941
0.4332953559 -0.2718342113 0.0000000000 0.0002175960 0.0002175960 -311.3581459261 0.0543094941 0.0543094941
0.4452252355 -0.2574354066 0.0000000000 0.0002175960 0.0002175960 -311.7714847887 0.0543094941 0.0543094941
0.4566083842 -0.2426005984 0.0000000000 0.0002175960 0.0002175960 -313.3498184428 0.0543094941 0.0543094941
0.4674288814 -0.2273505347 0.0000000000 0.0002175960 0.0002175960 -316.4527841497 0.0543094941 0.0543094941
0.4776715939 -0.2117065439 0.0000000000 0.0002175960 0.0002175960 -321.0215374850 0.0543094941 0.0543094941
0.4873221961 -0.1956905057 0.0000000000 0.0002175960 0.0002175960 -327.1078261908 0.0543094941 0.0543094941
0.4963671910 -0.1793248198 0.0000000000 0.0002175960 0.0002175960 -334.6481484762 0.0543094941 0.0543094941
0.5047939282 -0.1626323752 0.0000000000 0.0002175960 0.0002175960 -343.5990480823 0.0543094941 0.0543094941
0.5125906221 -0.1456365178 0.0000000000 0.0002175960 0.0002175960 -353.8958755319 0.0543094941 0.0543094941
0.5197463685 -0.1283610178 0.0000000000 0.0002175960 0.0002175960 -365.4836631849 0.0543094941 0.0543094941
0.5262511593 -0.1108300366 0.0000000000 0.0002175960 0.0002175960 -378.3011953306 0.0543094941 0.0543094941
0.5320958971 -0.0930680929 0.0000000000 0.0002175960 0.0002175960 -392.2766796147 0.0543094941 0.0543094941
0.5372724073 -0.0751000282 0.0000000000 0.0002175960 0.0002175960 -407.3109431149 0.0543094941 0.0543094941
0.5417734502 -0.0569509727 0.0000000000 0.0002175960 0.0002175960 -423.2645062422 0.0543094941 0.0543094941
0.5455927307 -0.0386463093 0.0000000000 0.0002175960 0.0002175960 -439.9454573476 0.0543094941 0.0543094941
0.5487249072 -0.0202116388 0.0000000000 0.0002175960 0.0002175960 -457.1040473825 0.0543094941 0.0543094941
0.5511655991 -0.0016727437 0.0000000000 0.0002175960 0.0002175960 -474.4344690489 0.0543094941 0.0543094941
0.5529113927 0.0169444475 0.0000000000 0.0002175960 0.0002175960 -491.5854543727 0.0543094941 0.0543094941
0.5539598465 0.0356138972 0.0000000000 0.0002175960 0.0002175960 -508.1788007481 0.0543094941 0.0543094941
0.5543094941 0.0543094943 0.0000000000 0.0002175960 0.0002175960 -523.8341432642 0.0543094941 0.0543094941
0.5539598465 0.0730050914 0.0000000000 0.0002175960 0.0002175960 -538.1968590408 0.0543094941 0.0543094941
0.5529113927 0.0916745411 0.0000000000 0.0002175960 0.0002175960 -550.9654817421 0.0543094941 0.0543094941
0.5511655990 0.1102917323 0.0000000000 0.0002175960 0.0002175960 -561.9149164795 0.0543094941 0.0543094941
0.5487249072 0.1288306273 0.0000000000 0.0002175960 0.0002175960 -570.9123752519 0.0543094941 0.0543094941
0.5455927307 0.1472652978 0.0000000000 0.0002175960 0.0002175960 -577.9241442472 0.0543094941 0.0543094941
0.5417734501 0.1655699612 0.0000000000 0.0002175960 0.0002175960 -583.0126259343 0.0543094941 0.0543094941
0.5372724072 0.1837190168 0.0000000000 0.0002175960 0.0002175960 -586.3247813230 0.0543094941 0.0543094941
0.5320958969 0.2016870814 0.0000000000 0.0002175960 0.0002175960 -588.0738571891 0.0543094941 0.0543094941
0.5262511592 0.2194490252 0.0000000000 0.0002175960 0.0002175960 -588.5178161727 0.0543094941 0.0543094941
0.5197463684 0.2369800064 0.0000000000 0.0002175960 0.0002175960 -587.9365906787 0.0543094941 0.0543094941
0.5125906220 0.2542555064 0.0000000000 0.0002175960 0.0002175960 -586.6127290171 0.0543094941 0.0543094941
0.5047939280 0.2712513637 0.0000000000 0.0002175960 0.0002175960 -584.8144748117 0.0543094941 0.0543094941
0.4963671908 0.2879438083 0.0000000000 0.0002175960 0.0002175960 -582.7887533562 0.0543094941 0.0543094941
0.4873221959 0.3043094942 0.0000000000 0.0002175960 0.0002175960 -580.7544812065 0.0543094941 0.0543094941
0.4776715936 0.3203255324 0.0000000000 0.0002175960 0.0002175960 -578.9153300596 0.0543094941 0.0543094941
0.4674288812 0.3359695232 0.0000000000 0.0002175960 0.0002175960 -577.4549568481 0.0543094941 0.0543094941
0.4566083839 0.3512195869 0.0000000000 0.0002175960 0.0002175960 -576.5730635257 0.0543094941 0.0543094941
0.4452252353 0.3660543951 0.0000000000 0.0002175960 0.0002175960 -576.4364979253 0.0543094941 0.0543094941
0.4332953556 0.3804531998 0.0000000000 0.0002175960 0.0002175960 -577.2625901190 0.0543094941 0.0543094941
0.4208354300 0.3943958630 0.0000000000 0.0002175960 0.0002175960 -579.1002647910 0.0543094941 0.0543094941
0.3929502799 0.4221714495 0.0000000000 0.0002175960 0.0002175960 -586.7686331183 0.0543094941 0.0543094941
0.3774591130 0.4358515282 0.0000000000 0.0002175960 0.0002175960 -592.8415579109 0.0543094941 0.0543094941
0.3614158504 0.4488797488 0.0000000000 0.0002175960 0.0002175960 -599.9541845737 0.0543094941 0.0543094941
0.3448479017 0.4612338528 0.0000000000 0.0002175960 0.0002175960 -608.1591096316 0.0543094941 0.0543094941
0.3277835731 0.4728927332 0.0000000000 0.0002175960 0.0002175960 -617.3028255242 0.0543094941 0.0543094941
0.3102520186 0.4838364713 0.0000000000 0.0002175960 0.0002175960 -627.4459075679 0.0543094941 0.0543094941
0.2922831905 0.4940463697 0.0000000000 0.0002175960 0.0002175960 -638.6098224789 0.0543094941 0.0543094941
0.2739077884 0.5035049851 0.0000000000 0.0002175960 0.0002175960 -650.8661018836 0.0543094941 0.0543094941
0.2551572063 0.5121961574 0.0000000000 0.0002175960 0.0002175960 -664.2318914910 0.0543094941 0.0543094941
0.2360634793 0.5201050381 0.0000000000 0.0002175960 0.0002175960 -678.6876640730 0.0543094941 0.0543094941
0.2166592286 0.5272181150 0.0000000000 0.0002175960 0.0002175960 -694.1430473441 0.0543094941 0.0543094941
0.1969776061 0.5335232353 0.0000000000 0.0002175960 0.0002175960 -710.4432702322 0.0543094941 0.0543094941
0.1770522376 0.5390096271 0.0000000000 0.0002175960 0.0002175960 -727.3591653284 0.0543094941 0.0543094941
0.1569171651 0.5436679168 0.0000000000 0.0002175960 0.0002175960 -744.5903413508 0.0543094941 0.0543094941
0.1366067891 0.5474901458 0.0000000000 0.0002175960 0.0002175960 -761.7657061542 0.0543094941 0.0543094941
0.1161558096 0.5504697840 0.0000000000 0.0002175960 0.0002175960 -778.4514224533 0.0543094941 0.0543094941
0.0955991667 0.5526017406 0.0000000000 0.0002175960 0.0002175960 -794.1614909123 0.0543094941 0.0543094941
0.0749719811 0.5538823733 0.0000000000 0.0002175960 0.0002175960 -808.3731873397 0.0543094941 0.0543094941
0.0543094940 0.5543094941 0.0000000000 0.0002175960 0.0002175960 -820.5448547732 0.0543094941 0.0543094941
0.0336470069 0.5538823733 0.0000000000 0.0002175960 0.0002175960 -830.1354923674 0.0543094941 0.0543094941
0.0130198212 0.5526017406 0.0000000000 0.0002175960 0.0002175960 -836.6242967419 0.0543094941 0.0543094941
-0.0075368217 0.5504697839 0.0000000000 0.0002175960 0.0002175960 -839.5290321553 0.0543094941 0.0543094941
-0.0279878012 0.5474901458 0.0000000000 0.0002175960 0.0002175960 -838.4220278914 0.0543094941 0.0543094941
-0.0482981771 0.5436679167 0.0000000000 0.0002175960 0.0002175960 -832.9431052144 0.0543094941 0.0543094941
-0.0684332496 0.5390096270 0.0000000000 0.0002175960 0.0002175960 -822.8090189691 0.0543094941 0.0543094941
-0.0883586182 0.5335232353 0.0000000000 0.0002175960 0.0002175960 -807.8193790055 0.0543094941 0.0543094941
-0.1080402406 0.5272181149 0.0000000000 0.0002175960 0.0002175960 -787.8592687500 0.0543094941 0.0543094941
-0.1274444913 0.5201050381 0.0000000000 0.0002175960 0.0002175960 -762.8989763548 0.0543094941 0.0543094941
-0.1465382184 0.5121961574 0.0000000000 0.0002175960 0.0002175960 -732.9913525482 0.0543094941 0.0543094941
-0.1652888005 0.5035049850 0.0000000000 0.0002175960 0.0002175960 -698.2673409894 0.0543094941 0.0543094941
-0.1836642026 0.4940463696 0.0000000000 0.0002175960 0.0002175960 -658.9301986060 0.0543094941 0.0543094941
-0.2016330306 0.4838364712 0.0000000000 0.0002175960 0.0002175960 -615.2488580249 0.0543094941 0.0543094941
-0.2191645851 0.4728927331 0.0000000000 0.0002175960 0.0002175960 -567.5507964805 0.0543094941 0.0543094941
-0.2362289137 0.4612338526 0.0000000000 0.0002175960 0.0002175960 -516.2146813049 0.0543094941 0.0543094941
-0.2527968624 0.4488797487 0.0000000000 0.0002175960 0.0002175960 -461.6629737653 0.0543094941 0.0543094941
-0.2688401250 0.4358515281 0.0000000000 0.0002175960 0.0002175960 -404.3546022497 0.0543094941 0.0543094941
-0.2843312918 0.4221714493 0.0000000000 0.0002175960 0.0002175960 -344.7777708348 0.0543094941 0.0543094941
-0.3135524614 0.3929502798 0.0000000000 0.0002175960 0.0002175960 -220.8761211008 0.0543094941 0.0543094941
-0.3272325401 0.3774591129 0.0000000000 0.0002175960 0.0002175960 -157.6122900248 0.0543094941 0.0543094941
-0.3402607607 0.3614158503 0.0000000000 0.0002175960 0.0002175960 -94.1894279307 0.0543094941 0.0543094941
-0.3526148646 0.3448479016 0.0000000000 0.0002175960 0.0002175960 -31.1428101647 0.0543094941 0.0543094941
-0.3642737451 0.3277835730 0.0000000000 0.0002175960 0.0002175960 31.0001687988 0.0543094941 0.0543094941
-0.3752174832 0.3102520185 0.0000000000 0.0002175960 0.0002175960 91.7247327768 0.0543094941 0.0543094941
-0.3854273816 0.2922831904 0.0000000000 0.0002175960 0.0002175960 150.5330517051 0.0543094941 0.0543094941
-0.3948859969 0.2739077883 0.0000000000 0.0002175960 0.0002175960 206.9482134540 0.0543094941 0.0543094941
-0.4035771693 0.2551572062 0.0000000000 0.0002175960 0.0002175960 260.5178896185 0.0543094941 0.0543094941
-0.4114860500 0.2360634792 0.0000000000 0.0002175960 0.0002175960 310.8177307644 0.0543094941 0.0543094941
-0.4185991268 0.2166592285 0.0000000000 0.0002175960 0.0002175960 357.4545086162 0.0543094941 0.0543094941
-0.4249042472 0.1969776060 0.0000000000 0.0002175960 0.0002175960 400.0690069355 0.0543094941 0.0543094941
-0.4303906389 0.1770522375 0.0000000000 0.0002175960 0.0002175960 438.3386521384 0.0543094941 0.0543094941
-0.4350489286 0.1569171650 0.0000000000 0.0002175960 0.0002175960 471.9798692976 0.0543094941 0.0543094941
-0.4388711577 0.1366067890 0.0000000000 0.0002175960 0.0002175960 500.7501480084 0.0543094941 0.0543094941
-0.4418507958 0.1161558095 0.0000000000 0.0002175960 0.0002175960 524.4498041374 0.0543094941 0.0543094941
-0.4439827524 0.0955991666 0.0000000000 0.0002175960 0.0002175960 542.9234263989 0.0543094941 0.0543094941
-0.4452633851 0.0749719810 0.0000000000 0.0002175960 0.0002175960 556.0609999772 0.0543094941 0.0543094941
-0.4456905059 0.0543094939 0.0000000000 0.0002175960 0.0002175960 563.7987023817 0.0543094941 0.0543094941
-0.4452633851 0.0336470068 0.0000000000 0.0002175960 0.0002175960 566.1193689784 0.0543094941 0.0543094941
-0.4439827524 0.0130198211 0.0000000000 0.0002175960 0.0002175960 563.0526270627 0.0543094941 0.0543094941
-0.4418507958 -0.0075368218 0.0000000000 0.0002175960 0.0002175960 554.6746979799 0.0543094941 0.0543094941
-0.4388711576 -0.0279878013 0.0000000000 0.0002175960 0.0002175960 541.1078668643 0.0543094941 0.0543094941
-0.4350489285 -0.0482981772 0.0000000000 0.0002175960 0.0002175960 522.5196193313 0.0543094941 0.0543094941
-0.4303906388 -0.0684332497 0.0000000000 0.0002175960 0.0002175960 499.1214442243 0.0543094941 0.0543094941
-0.4249042471 -0.0883586183 0.0000000000 0.0002175960 0.0002175960 471.1673014654 0.0543094941 0.0543094941
-0.4185991267 -0.1080402407 0.0000000000 0.0002175960 0.0002175960 438.9517542445 0.0543094941 0.0543094941
-0.4114860499 -0.1274444914 0.0000000000 0.0002175960 0.0002175960 402.8077650903 0.0543094941 0.0543094941
-0.4035771692 -0.1465382185 0.0000000000 0.0002175960 0.0002175960 363.1041555688 0.0543094941 0.0543094941
-0.3948859968 -0.1652888006 0.0000000000 0.0002175960 0.0002175960 320.2427291995 0.0543094941 0.0543094941
-0.3854273814 -0.1836642026 0.0000000000 0.0002175960 0.0002175960 274.6550564264 0.0543094941 0.0543094941
-0.3752174830 -0.2016330307 0.0000000000 0.0002175960 0.0002175960 226.7989190121 0.0543094941 0.0543094941
-0.3642737449 -0.2191645852 0.0000000000 0.0002175960 0.0002175960 177.1544090407 0.0543094941 0.0543094941
-0.3526148644 -0.2362289138 0.0000000000 0.0002175960 0.0002175960 126.2196749571 0.0543094941 0.0543094941
-0.3402607605 -0.2527968625 0.0000000000 0.0002175960 0.0002175960 74.5063040521 0.0543094941 0.0543094941
-0.3272325399 -0.2688401250 0.0000000000 0.0002175960 0.0002175960 22.5343279410 0.0543094941 0.0543094941
-0.3135524611 -0.2843312919 0.0000000000 0.0002175960 0.0002175960 -29.1731644396 0.0543094941 0.0543094941
-0.2843312915 -0.3135524614 0.0000000000 0.0002175960 0.0002175960 -129.7222494998 0.0543094941 0.0543094941
-0.2688401246 -0.3272325402 0.0000000000 0.0002175960 0.0002175960 -177.5566513976 0.0543094941 0.0543094941
-0.2527968621 -0.3402607608 0.0000000000 0.0002175960 0.0002175960 -223.1259018045 0.0543094941 0.0543094941
-0.2362289134 -0.3526148647 0.0000000000 0.0002175960 0.0002175960 -265.9870074425 0.0543094941 0.0543094941
-0.2191645848 -0.3642737452 0.0000000000 0.0002175960 0.0002175960 -305.7349091674 0.0543094941 0.0543094941
-0.2016330302 -0.3752174832 0.0000000000 0.0002175960 0.0002175960 -342.0105187114 0.0543094941 0.0543094941
-0.1836642022 -0.3854273817 0.0000000000 0.0002175960 0.0002175960 -374.5088307101 0.0543094941 0.0543094941
-0.1652888001 -0.3948859970 0.0000000000 0.0002175960 0.0002175960 -402.9868775861 0.0543094941 0.0543094941
-0.1465382180 -0.4035771694 0.0000000000 0.0002175960 0.0002175960 -427.2712104898 0.0543094941 0.0543094941
-0.1274444909 -0.4114860500 0.0000000000 0.0002175960 0.0002175960 -447.2644987069 0.0543094941 0.0543094941
-0.1080402403 -0.4185991269 0.0000000000 0.0002175960 0.0002175960 -462.9507531008 0.0543094941 0.0543094941
-0.0883586178 -0.4249042472 0.0000000000 0.0002175960 0.0002175960 -474.3986115779 0.0543094941 0.0543094941
-0.0684332492 -0.4303906390 0.0000000000 0.0002175960 0.0002175960 -481.7620967984 0.0543094941 0.0543094941
-0.0482981767 -0.4350489286 0.0000000000 0.0002175960 0.0002175960 -485.2782907741 0.0543094941 0.0543094941
-0.0279878008 -0.4388711577 0.0000000000 0.0002175960 0.0002175960 -485.2614900629 0.0543094941 0.0543094941
-0.0075368213 -0.4418507958 0.0000000000 0.0002175960 0.0002175960 -482.0936202079 0.0543094941 0.0543094941
0.0130198216 -0.4439827524 0.0000000000 0.0002175960 0.0002175960 -476.2110010075 0.0543094941 0.0543094941
0.0336470073 -0.4452633851 0.0000000000 0.0002175960 0.0002175960 -468.0879324481 0.0543094941 0.0543094941
0.0543094944 -0.4456905059 0.0000000000 0.0002175960 0.0002175960 -458.2179824916 0.0543094941 0.0543094941
0.0749719815 -0.4452633851 0.0000000000 0.0002175960 0.0002175960 -447.0942005817 0.0543094941 0.0543094941
0.0955991671 -0.4439827524 0.0000000000 0.0002175960 0.0002175960 -435.1897446028 0.0543094941 0.0543094941
0.1161558100 -0.4418507957 0.0000000000 0.0002175960 0.0002175960 -422.9404052649 0.0543094941 0.0543094941
0.1366067895 -0.4388711576 0.0000000000 0.0002175960 0.0002175960 -410.7304783601 0.0543094941 0.0543094941
0.1569171655 -0.4350489285 0.0000000000 0.0002175960 0.0002175960 -398.8828864691 0.0543094941 0.0543094941
0.1770522380 -0.4303906388 0.0000000000 0.0002175960 0.0002175960 -387.6544558696 0.0543094941 0.0543094941
0.1969776065 -0.4249042471 0.0000000000 0.0002175960 0.0002175960 -377.2356807936 0.0543094941 0.0543094941
0.2166592290 -0.4185991267 0.0000000000 0.0002175960 0.0002175960 -367.7552201549 0.0543094941 0.0543094941
0.2360634797 -0.4114860498 0.0000000000 0.0002175960 0.0002175960 -359.2841284095 0.0543094941 0.0543094941
0.2551572067 -0.4035771691 0.0000000000 0.0002175960 0.0002175960 -351.8418142039 0.0543094941 0.0543094941
0.2739077888 -0.3948859967 0.0000000000 0.0002175960 0.0002175960 -345.3900447555 0.0543094941 0.0543094941
0.2922831909 -0.3854273814 0.0000000000 0.0002175960 0.0002175960 -339.8403419692 0.0543094941 0.0543094941
0.3102520189 -0.3752174829 0.0000000000 0.0002175960 0.0002175960 -335.0330688034 0.0543094941 0.0543094941
0.3277835734 -0.3642737449 0.0000000000 0.0002175960 0.0002175960 -330.8026068930 0.0543094941 0.0543094941
0.3448479021 -0.3526148644 0.0000000000 0.0002175960 0.0002175960 -326.9119775249 0.0543094941 0.0543094941
0.3614158507 -0.3402607604 0.0000000000 0.0002175960 0.0002175960 -323.3194780048 0.0543094941 0.0543094941
0.3774591133 -0.3272325398 0.0000000000 0.0002175960 0.0002175960 -319.7729718231 0.0543094941 0.0543094941
0.3929502802 -0.3135524610 0.0000000000 0.0002175960 0.0002175960 -316.7778746691 0.0543094941 0.0543094941
0.5950075498 -0.4651781892 0.0000000000 0.0817540134 0.0434386419 -300.2209889392 0.0452186455 0.0449513637
0.6139011455 -0.4444153320 0.0000000000 0.0202579374 0.0557919915 -299.1079322256 0.0454223528 0.0448002261
0.6320101590 -0.4229532600 0.0000000000 -0.0286111947 0.0668657479 -298.5438741508 0.0456365468 0.0446640910
0.6493084063 -0.4008214377 0.0000000000 -0.0642196529 0.0756767650 -299.0321327957 0.0458600712 0.0445437011
0.6657707993 -0.3780503314 0.0000000000 -0.0875488377 0.0818598906 -300.9843188167 0.0460917183 0.0444397117
0.6813733860 -0.3546713689 0.0000000000 -0.1012897522 0.0859680142 -304.6308870059 0.0463302364 0.0443526881
0.6960933888 -0.3307168975 0.0000000000 -0.1091609265 0.0893739587 -310.0286319704 0.0465743358 0.0442831021
0.7099092415 -0.3062201412 0.0000000000 -0.1148139867 0.0938381169 -317.1513802417 0.0468226962 0.0442313296
0.7228006247 -0.2812151550 0.0000000000 -0.1209135727 0.1009843648 -325.9916234347 0.0470739736 0.0441976489
0.7347484995 -0.2557367788 0.0000000000 -0.1287532172 0.1119202384 -336.6140219467 0.0473268074 0.0441822391
0.7457351398 -0.2298205890 0.0000000000 -0.1383770460 0.1270930690 -349.1503578205 0.0475798281 0.0441851789
0.7557441620 -0.2035028493 0.0000000000 -0.1489595142 0.1463372462 -363.7561841502 0.0478316642 0.0442064468
0.7647605541 -0.1768204599 0.0000000000 -0.1592159086 0.1690184665 -380.5515035618 0.0480809497 0.0442459206
0.7727707014 -0.1498109050 0.0000000000 -0.1677341865 0.1942000253 -399.5604312481 0.0483263316 0.0443033785
0.7797624113 -0.1225122000 0.0000000000 -0.1732089940 0.2207935402 -420.6606408116 0.0485664771 0.0443785001
0.7857249355 -0.0949628366 0.0000000000 -0.1745929718 0.2476822041 -443.5519053252 0.0488000805 0.0444708684
0.7906489905 -0.0672017279 0.0000000000 -0.1711825807 0.2738150164 -467.7504123452 0.0490258708 0.0445799714
0.7945267753 -0.0392681510 0.0000000000 -0.1626504582 0.2982725838 -492.6107409056 0.0492426178 0.0447052057
0.7973519872 -0.0112016909 0.0000000000 -0.1490339964 0.3203055196 -517.3718445419 0.0494491393 0.0448458790
0.7991198358 0.0169578187 0.0000000000 -0.1306908371 0.3393477691 -541.2189426452 0.0496443072 0.0450012141
0.7998270537 0.0451703535 0.0000000000 -0.1082336788 0.3550092653 -563.3511023466 0.0498270537 0.0451703532
0.7994719057 0.0733957581 0.0000000000 -0.0824570006 0.3670540788 -583.0447480648 0.0499963771 0.0453523621
0.7980541950 0.1015938061 0.0000000000 -0.0542663526 0.3753706834 -599.7057321611 0.0501513472 0.0455462356
0.7955752676 0.1297242599 0.0000000000 -0.0246174276 0.3799397261 -612.9058309559 0.0502911102 0.0457509026
0.7920380136 0.1577469317 0.0000000000 0.0055314536 0.3808022033 -622.4025872812 0.0504148940 0.0459652318
0.7874468663 0.1856217435 0.0000000000 0.0352525502 0.3780283728 -628.1437751582 0.0505220114 0.0461880379
0.7818077990 0.2133087888 0.0000000000 0.0636686150 0.3716865899 -630.2593273795 0.0506118649 0.0464180881
0.7751283191 0.2407683923 0.0000000000 0.0899626667 0.3618128249 -629.0443539472 0.0506839495 0.0466541083
0.7674174599 0.2679611712 0.0000000000 0.1133842904 0.3483861382 -624.9367085414 0.0507378556 0.0468947902
0.7586857694 0.2948480951 0.0000000000 0.1332637746 0.3313211216 -618.4911507423 0.0507732717 0.0471387984
0.7489452970 0.3213905461 0.0000000000 0.1490489196 0.3104911308 -610.3496450151 0.0507899856 0.0473847777
0.7382095781 0.3475503782 0.0000000000 0.1603811208 0.2857907877 -601.2050050814 0.0507878863 0.0476313598
0.7264936153 0.3732899762 0.0000000000 0.1672360244 0.2572315236 -591.7555656921 0.0507669645 0.0478771717
0.7138138579 0.3985723136 0.0000000000 0.1701801720 0.2250497302 -582.6540886166 0.0507273128 0.0481208423
0.7001881785 0.4233610104 0.0000000000 0.1708001466 0.1898089154 -574.4619640389 0.0506691257 0.0483610102
0.6856358477 0.4476203889 0.0000000000 0.1722241979 0.1524856732 -567.6201721644 0.0505926984 0.0485963314
0.6701775060 0.4713155298 0.0000000000 0.1793420004 0.1145015254 -562.4349765493 0.0504984254 0.0488254861
0.6538351335 0.4944123256 0.0000000000 0.1981613060 0.0776069526 -559.0624576564 0.0503867987 0.0490471863
0.6366320175 0.5168775344 0.0000000000 0.2341862605 0.0435583121 -557.4867050335 0.0502584057 0.0492601829
0.6185927176 0.5386788310 0.0000000000 0.2905750576 0.0137093211 -557.5161931454 0.0501139253 0.0494632725
0.5997430292 0.5597848574 0.0000000000 0.3671933732 -0.0112215669 -558.8228784882 0.0499541254 0.0496553040
0.5575326857 0.6018115949 0.0000000000 0.5789799549 -0.0472203102 -564.0870975544 0.0495715070 0.0500186618
0.5340724156 0.6224978056 0.0000000000 0.7050892138 -0.0572445733 -567.2847208301 0.0493479873 0.0501847544
0.5097703032 0.6421876741 0.0000000000 0.8323367656 -0.0613745707 -570.2909354157 0.0491107687 0.0503322920
0.4846690264 0.6608467644 0.0000000000 0.9545511147 -0.0598039012 -572.8505937740 0.0488614150 0.0504602264
0.4588126921 0.6784424986 0.0000000000 1.0666389199 -0.0529766595 -574.7631980739 0.0486015735 0.0505676398
0.4322467518 0.6949442176 0.0000000000 1.1649320049 -0.0416012954 -575.8983134866 0.0483329651 0.0506537518
0.4050179168 0.7103232380 0.0000000000 1.2474011497 -0.0265592638 -576.1995234539 0.0480573721 0.0507179246
0.3771740685 0.7245529045 0.0000000000 1.3136138380 -0.0087641287 -575.6735005465 0.0477766269 0.0507596680
0.3487641681 0.7376086385 0.0000000000 1.3644452046 0.0109637954 -574.3660458525 0.0474925997 0.0507786434
0.3198381637 0.7494679826 0.0000000000 1.4016488514 0.0319748929 -572.3348416112 0.0472071859 0.0507746665
0.2904468952 0.7601106401 0.0000000000 1.4274100010 0.0538146859 -569.6262327559 0.0469222934 0.0507477087
0.2606419979 0.7695185105 0.0000000000 1.4439703415 0.0762064519 -566.2589392979 0.0466398298 0.0506978986
0.2304758047 0.7776757206 0.0000000000 1.4533677479 0.0990095038 -562.2151262638 0.0463616895 0.0506255211
0.2000012469 0.7845686500 0.0000000000 1.4572947188 0.1221698551 -557.4382371601 0.0460897404 0.0505310160
0.1692717543 0.7901859537 0.0000000000 1.4570543757 0.1456752409 -551.8363866521 0.0458258117 0.0504149761
0.1383411541 0.7945185780 0.0000000000 1.4535826585 0.1695206537 -545.2896684664 0.0455716808 0.0502781432
0.1072635702 0.7975597736 0.0000000000 1.4475062811 0.1936857769 -537.6595886221 0.0453290612 0.0501214038
0.0760933212 0.7993051023 0.0000000000 1.4392129747 0.2181227961 -528.7990297529 0.0450995907 0.0499457835
0.0448848194 0.7997524406 0.0000000000 1.4289191081 0.2427518983 -518.5615792714 0.0448848196 0.0497524406
0.0136924693 0.7989019771 0.0000000000 1.4167271676 0.2674617621 -506.8095421136 0.0446862001 0.0495426583
-0.0174294333 0.7967562064 0.0000000000 1.4026707481 0.2921128830 -493.4203735811 0.0445050760 0.0493178367
-0.0484268007 0.7933199180 0.0000000000 1.3867476752 0.3165422502 -478.2915487662 0.0443426729 0.0490794832
-0.0792458533 0.7886001802 0.0000000000 1.3689432063 0.3405684704 -461.3440339042 0.0442000896 0.0488292027
-0.1098332169 0.7826063206 0.0000000000 1.3492455688 0.3639968474 -442.5245760597 0.0440782899 0.0485686866
-0.1401360197 0.7753499012 0.0000000000 1.3276558820 0.3866241845 -421.8070215241 0.0439780958 0.0482997018
-0.1701019872 0.7668446896 0.0000000000 1.3041941106 0.4082432189 -399.1928426473 0.0439001812 0.0480240778
-0.1996795351 0.7571066265 0.0000000000 1.2789022752 0.4286466689 -374.7110176751 0.0438450670 0.0477436953
-0.2288178613 0.7461537882 0.0000000000 1.2518457961 0.4476308990 -348.4173780826 0.0438131167 0.0474604722
-0.2574670345 0.7340063458 0.0000000000 1.2231135711 0.4649992169 -320.3935155987 0.0438045342 0.0471763509
-0.2855780808 0.7206865209 0.0000000000 1.1928171947 0.4805648144 -290.7453258599 0.0438193610 0.0468932845
-0.3131030686 0.7062185368 0.0000000000 1.1610895940 0.4941533645 -259.6012554219 0.0438574763 0.0466132235
-0.3399951897 0.6906285670 0.0000000000 1.1280832665 0.5056052792 -227.1103117197 0.0439185973 0.0463381014
-0.3662088383 0.6739446802 0.0000000000 1.0939682506 0.5147776400 -193.4398899759 0.0440022805 0.0460698216
-0.3916996868 0.6561967816 0.0000000000 1.0589299182 0.5215458057 -158.7734660598 0.0441079249 0.0458102438
-0.4164247589 0.6374165525 0.0000000000 1.0231666591 0.5258047104 -123.3081994148 0.0442347758 0.0455611706
-0.4403424989 0.6176373858 0.0000000000 0.9868875064 0.5274698616 -87.2524852630 0.0443819297 0.0453243348
-0.4634128382 0.5968943197 0.0000000000 0.9503097429 0.5264780527 -50.8234904448 0.0445483406 0.0451013869
-0.5068588518 0.5526644528 0.0000000000 0.8771545189 0.5163795495 22.2564810673 0.0449340814 0.0447032742
-0.5271623750 0.5292553236 0.0000000000 0.8410316564 0.5072555867 58.4511048228 0.0451506763 0.0445308954
-0.5464743047 0.5050374901 0.0000000000 0.8055148861 0.4954398085 94.1109230659 0.0453810775 0.0443779558
-0.5647628847 0.4800531417 0.0000000000 0.7708280768 0.4809772359 129.0105723618 0.0456236534 0.0442455304
-0.5819981722 0.4543456701 0.0000000000 0.7371900030 0.4639333742 162.9296306168 0.0458766867 0.0441345517
-0.5981520794 0.4279595898 0.0000000000 0.7048124524 0.4443934080 195.6545521115 0.0461383865 0.0440458032
-0.6131984122 0.4009404582 0.0000000000 0.6738984635 0.4224612568 226.9804696370 0.0464069013 0.0439799136
-0.6271129045 0.3733347933 0.0000000000 0.6446406996 0.3982585038 256.7128582481 0.0466803320 0.0439373519
-0.6398732495 0.3451899923 0.0000000000 0.6172199651 0.3719232134 284.6690577498 0.0469567456 0.0439184241
-0.6514591273 0.3165542487 0.0000000000 0.5918038693 0.3436086509 310.6796525641 0.0472341889 0.0439232710
-0.6618522290 0.2874764687 0.0000000000 0.5685456416 0.3134819178 334.5897083685 0.0475107024 0.0439518671
-0.6710362772 0.2580061884 0.0000000000 0.5475831061 0.2817225155 356.2598656741 0.0477843347 0.0440040204
-0.6789970433 0.2281934893 0.0000000000 0.5290378224 0.2485208441 375.5672916978 0.0480531562 0.0440793742
-0.6857223610 0.1980889157 0.0000000000 0.5130143834 0.2140766387 392.4064921101 0.0483152731 0.0441774093
-0.6912021369 0.1677433903 0.0000000000 0.4995998483 0.1785973398 406.6899810378 0.0485688407 0.0442974479
-0.6954283579 0.1372081316 0.0000000000 0.4888632631 0.1422964061 418.3488007491 0.0488120769 0.0444386584
-0.6983950949 0.1065345703 0.0000000000 0.4808552354 0.1053915951 427.3328777075 0.0490432749 0.0446000615
-0.7000985038 0.0757742676 0.0000000000 0.4756075593 0.0681032571 433.6112082961 0.0492608150 0.0447805372
-0.7005368234 0.0449788326 0.0000000000 0.4731329415 0.0306526793 437.1718852149 0.0494631766 0.0449788329
-0.6997103701 0.0141998417 0.0000000000 0.4734248949 -0.0067395052 438.0219935159 0.0496489487 0.0451935727
-0.6976215300 -0.0165112426 0.0000000000 0.4764578266 -0.0438548514 436.1873942348 0.0498168397 0.0454232668
-0.6942747478 -0.0471031509 0.0000000000 0.4821873448 -0.0804785924 431.7124097734 0.0499656869 0.0456663229
-0.6896765133 -0.0775248860 0.0000000000 0.4905508080 -0.1164011122 424.6594196077 0.0500944642 0.0459210570
-0.6838353446 -0.1077258007 0.0000000000 0.5014680635 -0.1514194251 415.1083472054 0.0502022893 0.0461857063
-0.6767617697 -0.1376556748 0.0000000000 0.5148423095 -0.1853386598 403.1560179849 0.0502884297 0.0464584408
-0.6684683042 -0.1672647911 0.0000000000 0.5305610231 -0.2179735237 388.9153755103 0.0503523075 0.0467373774