 TITLE = "Tecplot data"
 VARIABLES = "X", "Y", "Z" "U", "V", "p", "dispX", "dispY"
 ZONE SOLUTIONTIME=34.900000, NODES=26114 , ELEMENTS=25916, DATAPACKING=POINT, ZONETYPE=FEQUADRILATERAL
0.3832284291 0.3596507676 0.0000000000 0.0000000000 0.0000000000 -328.0440750737 0.0296750385 0.0060973770
0.3832284293 -0.3474560133 0.0000000000 0.0000000000 0.0000000000 -259.5220216978 0.0296750385 0.0060973770
-0.3238783522 0.3596507675 0.0000000000 0.0000000000 0.0000000000 -140.4981614958 0.0296750385 0.0060973770
-0.3238783519 -0.3474560138 0.0000000000 0.0000000000 0.0000000000 -85.8590152920 0.0296750385 0.0060973770
0.5599718596 0.5363985390 0.0000000000 0.1687491879 0.0303769816 -324.0550587079 0.0296417738 0.0060684530
0.5597540887 -0.5243167719 0.0000000000 0.0544595443 -0.0276573850 -250.3128365193 0.0294240024 0.0060133136
-0.5007051786 0.5363993061 0.0000000000 0.8368444896 0.4863656120 42.4927067667 0.0296249075 0.0060692204
-0.5007534610 -0.5241674558 0.0000000000 0.8118820844 -0.4812944027 78.0495548638 0.0295766247 0.0061626304
1.0900944595 1.0664692246 0.0000000000 1.1520089806 0.0536852666 -218.7499195047 0.0294342878 0.0058090527
1.0888014879 -1.0549821533 0.0000000000 1.2196138876 -0.1487199582 -221.2864197730 0.0281413153 0.0056780177
-1.0313047629 1.0665790422 0.0000000000 0.9236002254 0.1791827684 70.6737922132 0.0293554092 0.0059188708
-1.0317238186 -1.0542341331 0.0000000000 0.9178541642 -0.1820183746 88.8097735937 0.0289363527 0.0064260392
4.2288798413 3.3041059057 0.0000000000 1.1309428254 -0.0364241260 -66.3174454908 0.0288798413 0.0041059057
4.2224659778 -3.2973629170 0.0000000000 1.0724198329 -0.0373821930 -14.7608681309 0.0224659778 0.0026370830
20.0000000000 4.7000000000 0.0000000000 1.0078108873 -0.0071918408 0.0013879203 0.0000000000 0.0000000000
20.0000000000 -4.7000000000 0.0000000000 1.0061629551 0.0075378430 0.0128603770 0.0000000000 0.0000000000
-10.0000000000 15.0000000000 0.0000000000 1.0000000000 0.0000000000 5.6152456514 0.0000000000 0.0000000000
20.0000000000 15.0000000000 0.0000000000 0.9990232020 0.0000000000 -0.0031730600 0.0000000000 0.0000000000
20.0000000000 -15.0000000000 0.0000000000 0.9986688645 0.0000000000 -0.0024133493 0.0000000000 0.0000000000
-10.0000000000 -15.0000000000 0.0000000000 1.0000000000 0.0000000000 9.2200929677 0.0000000000 0.0000000000
0.3962009746 -0.3339889916 0.0000000000 0.0000000000 0.0000000000 -258.6523688885 0.0296750385 0.0060973770
0.4086609003 -0.3200463284 0.0000000000 0.0000000000 0.0000000000 -258.2554712257 0.0296750385 0.0060973770
0.4205907799 -0.3056475237 0.0000000000 0.0000000000 0.0000000000 -258.0596657376 0.0296750385 0.0060973770
0.4319739286 -0.2908127155 0.0000000000 0.0000000000 0.0000000000 -258.1416016271 0.0296750385 0.0060973770
0.4427944258 -0.2755626518 0.0000000000 0.0000000000 0.0000000000 -258.4149079381 0.0296750385 0.0060973770
0.4530371383 -0.2599186610 0.0000000000 0.0000000000 0.0000000000 -258.8663033841 0.0296750385 0.0060973770
0.4626877405 -0.2439026227 0.0000000000 0.0000000000 0.0000000000 -259.4527971655 0.0296750385 0.0060973770
0.4717327354 -0.2275369369 0.0000000000 0.0000000000 0.0000000000 -260.1513327705 0.0296750385 0.0060973770
0.4801594726 -0.2108444923 0.0000000000 0.0000000000 0.0000000000 -260.9373790550 0.0296750385 0.0060973770
0.4879561665 -0.1938486349 0.0000000000 0.0000000000 0.0000000000 -261.7951349638 0.0296750385 0.0060973770
0.4951119129 -0.1765731349 0.0000000000 0.0000000000 0.0000000000 -262.7124767843 0.0296750385 0.0060973770
0.5016167037 -0.1590421537 0.0000000000 0.0000000000 0.0000000000 -263.6827068688 0.0296750385 0.0060973770
0.5074614415 -0.1412802100 0.0000000000 0.0000000000 0.0000000000 -264.7030472702 0.0296750385 0.0060973770
0.5126379517 -0.1233121453 0.0000000000 0.0000000000 0.0000000000 -265.7747029363 0.0296750385 0.0060973770
0.5171389946 -0.1051630897 0.0000000000 0.0000000000 0.0000000000 -266.9022166838 0.0296750385 0.0060973770
0.5209582752 -0.0868584264 0.0000000000 0.0000000000 0.0000000000 -268.0931509369 0.0296750385 0.0060973770
0.5240904516 -0.0684237559 0.0000000000 0.0000000000 0.0000000000 -269.3575275996 0.0296750385 0.0060973770
0.5265311435 -0.0498848608 0.0000000000 0.0000000000 0.0000000000 -270.7072422100 0.0296750385 0.0060973770
0.5282769371 -0.0312676696 0.0000000000 0.0000000000 0.0000000000 -272.1553104034 0.0296750385 0.0060973770
0.5293253909 -0.0125982199 0.0000000000 0.0000000000 0.0000000000 -273.7150181342 0.0296750385 0.0060973770
0.5296750385 0.0060973772 0.0000000000 0.0000000000 0.0000000000 -275.3989649518 0.0296750385 0.0060973770
0.5293253909 0.0247929743 0.0000000000 0.0000000000 0.0000000000 -277.2180745596 0.0296750385 0.0060973770
0.5282769371 0.0434624240 0.0000000000 0.0000000000 0.0000000000 -279.1805935617 0.0296750385 0.0060973770
0.5265311434 0.0620796152 0.0000000000 0.0000000000 0.0000000000 -281.2911960638 0.0296750385 0.0060973770
0.5240904516 0.0806185103 0.0000000000 0.0000000000 0.0000000000 -283.5501610384 0.0296750385 0.0060973770
0.5209582751 0.0990531807 0.0000000000 0.0000000000 0.0000000000 -285.9528605651 0.0296750385 0.0060973770
0.5171389945 0.1173578441 0.0000000000 0.0000000000 0.0000000000 -288.4892902917 0.0296750385 0.0060973770
0.5126379516 0.1355068997 0.0000000000 0.0000000000 0.0000000000 -291.1442797284 0.0296750385 0.0060973770
0.5074614413 0.1534749643 0.0000000000 0.0000000000 0.0000000000 -293.8973374923 0.0296750385 0.0060973770
0.5016167036 0.1712369081 0.0000000000 0.0000000000 0.0000000000 -296.7241096311 0.0296750385 0.0060973770
0.4951119128 0.1887678893 0.0000000000 0.0000000000 0.0000000000 -299.5959096567 0.0296750385 0.0060973770
0.4879561664 0.2060433893 0.0000000000 0.0000000000 0.0000000000 -302.4837000815 0.0296750385 0.0060973770
0.4801594724 0.2230392467 0.0000000000 0.0000000000 0.0000000000 -305.3549922423 0.0296750385 0.0060973770
0.4717327352 0.2397316912 0.0000000000 0.0000000000 0.0000000000 -308.1842545809 0.0296750385 0.0060973770
0.4626877403 0.2560973771 0.0000000000 0.0000000000 0.0000000000 -310.9398214795 0.0296750385 0.0060973770
0.4530371381 0.2721134153 0.0000000000 0.0000000000 0.0000000000 -313.6132729157 0.0296750385 0.0060973770
0.4427944256 0.2877574061 0.0000000000 0.0000000000 0.0000000000 -316.1733277847 0.0296750385 0.0060973770
0.4319739283 0.3030074698 0.0000000000 0.0000000000 0.0000000000 -318.6544570821 0.0296750385 0.0060973770
0.4205907797 0.3178422780 0.0000000000 0.0000000000 0.0000000000 -321.0047027589 0.0296750385 0.0060973770
0.4086609000 0.3322410827 0.0000000000 0.0000000000 0.0000000000 -323.3638377784 0.0296750385 0.0060973770
0.3962009744 0.3461837459 0.0000000000 0.0000000000 0.0000000000 -325.5642518258 0.0296750385 0.0060973770
0.3683158243 0.3739593324 0.0000000000 0.0000000000 0.0000000000 -330.5951367892 0.0296750385 0.0060973770
0.3528246574 0.3876394111 0.0000000000 0.0000000000 0.0000000000 -333.6423256800 0.0296750385 0.0060973770
0.3367813948 0.4006676317 0.0000000000 0.0000000000 0.0000000000 -336.9217503436 0.0296750385 0.0060973770
0.3202134461 0.4130217357 0.0000000000 0.0000000000 0.0000000000 -340.7736809602 0.0296750385 0.0060973770
0.3031491175 0.4246806162 0.0000000000 0.0000000000 0.0000000000 -345.2011938297 0.0296750385 0.0060973770
0.2856175630 0.4356243542 0.0000000000 0.0000000000 0.0000000000 -350.3763159888 0.0296750385 0.0060973770
0.2676487350 0.4458342526 0.0000000000 0.0000000000 0.0000000000 -356.3521589917 0.0296750385 0.0060973770
0.2492733329 0.4552928680 0.0000000000 0.0000000000 0.0000000000 -363.2223383531 0.0296750385 0.0060973770
0.2305227508 0.4639840403 0.0000000000 0.0000000000 0.0000000000 -371.0298905584 0.0296750385 0.0060973770
0.2114290237 0.4718929210 0.0000000000 0.0000000000 0.0000000000 -379.8150137766 0.0296750385 0.0060973770
0.1920247730 0.4790059979 0.0000000000 0.0000000000 0.0000000000 -389.5804023143 0.0296750385 0.0060973770
0.1723431505 0.4853111182 0.0000000000 0.0000000000 0.0000000000 -400.2988636790 0.0296750385 0.0060973770
0.1524177820 0.4907975100 0.0000000000 0.0000000000 0.0000000000 -411.8945765582 0.0296750385 0.0060973770
0.1322827095 0.4954557997 0.0000000000 0.0000000000 0.0000000000 -424.2389720528 0.0296750385 0.0060973770
0.1119723335 0.4992780287 0.0000000000 0.0000000000 0.0000000000 -437.1411673339 0.0296750385 0.0060973770
0.0915213540 0.5022576669 0.0000000000 0.0000000000 0.0000000000 -450.3464370483 0.0296750385 0.0060973770
0.0709647111 0.5043896235 0.0000000000 0.0000000000 0.0000000000 -463.5366969377 0.0296750385 0.0060973770
0.0503375255 0.5056702562 0.0000000000 0.0000000000 0.0000000000 -476.3368809034 0.0296750385 0.0060973770
0.0296750384 0.5060973770 0.0000000000 0.0000000000 0.0000000000 -488.3249754173 0.0296750385 0.0060973770
0.0090125513 0.5056702562 0.0000000000 0.0000000000 0.0000000000 -499.0461594389 0.0296750385 0.0060973770
-0.0116146343 0.5043896235 0.0000000000 0.0000000000 0.0000000000 -508.0294459831 0.0296750385 0.0060973770
-0.0321712772 0.5022576668 0.0000000000 0.0000000000 0.0000000000 -514.8058449038 0.0296750385 0.0060973770
-0.0526222568 0.4992780287 0.0000000000 0.0000000000 0.0000000000 -518.9265082531 0.0296750385 0.0060973770
-0.0729326327 0.4954557996 0.0000000000 0.0000000000 0.0000000000 -519.9796638784 0.0296750385 0.0060973770
-0.0930677052 0.4907975099 0.0000000000 0.0000000000 0.0000000000 -517.6052636089 0.0296750385 0.0060973770
-0.1129930737 0.4853111182 0.0000000000 0.0000000000 0.0000000000 -511.5066718803 0.0296750385 0.0060973770
-0.1326746962 0.4790059978 0.0000000000 0.0000000000 0.0000000000 -501.4590448355 0.0296750385 0.0060973770
-0.1520789469 0.4718929210 0.0000000000 0.0000000000 0.0000000000 -487.3143896699 0.0296750385 0.0060973770
-0.1711726740 0.4639840403 0.0000000000 0.0000000000 0.0000000000 -469.0035405370 0.0296750385 0.0060973770
-0.1899232560 0.4552928679 0.0000000000 0.0000000000 0.0000000000 -446.5354605505 0.0296750385 0.0060973770
-0.2082986581 0.4458342525 0.0000000000 0.0000000000 0.0000000000 -419.9943631789 0.0296750385 0.0060973770
-0.2262674862 0.4356243541 0.0000000000 0.0000000000 0.0000000000 -389.5351613902 0.0296750385 0.0060973770
-0.2437990407 0.4246806160 0.0000000000 0.0000000000 0.0000000000 -355.3777137340 0.0296750385 0.0060973770
-0.2608633693 0.4130217355 0.0000000000 0.0000000000 0.0000000000 -317.8002652867 0.0296750385 0.0060973770
-0.2774313180 0.4006676316 0.0000000000 0.0000000000 0.0000000000 -277.1323969022 0.0296750385 0.0060973770
-0.2934745805 0.3876394110 0.0000000000 0.0000000000 0.0000000000 -233.7477164407 0.0296750385 0.0060973770
-0.3089657474 0.3739593322 0.0000000000 0.0000000000 0.0000000000 -188.0564635784 0.0296750385 0.0060973770
-0.3381869169 0.3447381627 0.0000000000 0.0000000000 0.0000000000 -91.5344310974 0.0296750385 0.0060973770
-0.3518669957 0.3292469958 0.0000000000 0.0000000000 0.0000000000 -41.6420752695 0.0296750385 0.0060973770
-0.3648952163 0.3132037332 0.0000000000 0.0000000000 0.0000000000 8.6934715422 0.0296750385 0.0060973770
-0.3772493202 0.2966357846 0.0000000000 0.0000000000 0.0000000000 58.9842579914 0.0296750385 0.0060973770
-0.3889082007 0.2795714559 0.0000000000 0.0000000000 0.0000000000 108.7454605549 0.0296750385 0.0060973770
-0.3998519388 0.2620399014 0.0000000000 0.0000000000 0.0000000000 157.5005623366 0.0296750385 0.0060973770
-0.4100618372 0.2440710734 0.0000000000 0.0000000000 0.0000000000 204.7860988800 0.0296750385 0.0060973770
-0.4195204525 0.2256956713 0.0000000000 0.0000000000 0.0000000000 250.1560169626 0.0296750385 0.0060973770
-0.4282116249 0.2069450892 0.0000000000 0.0000000000 0.0000000000 293.1856900369 0.0296750385 0.0060973770
-0.4361205056 0.1878513621 0.0000000000 0.0000000000 0.0000000000 333.4756218351 0.0296750385 0.0060973770
-0.4432335824 0.1684471114 0.0000000000 0.0000000000 0.0000000000 370.6548544017 0.0296750385 0.0060973770
-0.4495387028 0.1487654889 0.0000000000 0.0000000000 0.0000000000 404.3840835005 0.0296750385 0.0060973770
-0.4550250945 0.1288401204 0.0000000000 0.0000000000 0.0000000000 434.3584753298 0.0296750385 0.0060973770
-0.4596833842 0.1087050479 0.0000000000 0.0000000000 0.0000000000 460.3101739687 0.0296750385 0.0060973770
-0.4635056132 0.0883946719 0.0000000000 0.0000000000 0.0000000000 482.0104880040 0.0296750385 0.0060973770
-0.4664852514 0.0679436924 0.0000000000 0.0000000000 0.0000000000 499.2717460440 0.0296750385 0.0060973770
-0.4686172080 0.0473870495 0.0000000000 0.0000000000 0.0000000000 511.9488131607 0.0296750385 0.0060973770
-0.4698978407 0.0267598639 0.0000000000 0.0000000000 0.0000000000 519.9402628447 0.0296750385 0.0060973770
-0.4703249615 0.0060973768 0.0000000000 0.0000000000 0.0000000000 523.1892012496 0.0296750385 0.0060973770
-0.4698978407 -0.0145651103 0.0000000000 0.0000000000 0.0000000000 521.6837420195 0.0296750385 0.0060973770
-0.4686172080 -0.0351922960 0.0000000000 0.0000000000 0.0000000000 515.4571307614 0.0296750385 0.0060973770
-0.4664852513 -0.0557489389 0.0000000000 0.0000000000 0.0000000000 504.5875183212 0.0296750385 0.0060973770
-0.4635056132 -0.0761999184 0.0000000000 0.0000000000 0.0000000000 489.1973816652 0.0296750385 0.0060973770
-0.4596833841 -0.0965102943 0.0000000000 0.0000000000 0.0000000000 469.4525905992 0.0296750385 0.0060973770
-0.4550250944 -0.1166453668 0.0000000000 0.0000000000 0.0000000000 445.5611180533 0.0296750385 0.0060973770
-0.4495387027 -0.1365707353 0.0000000000 0.0000000000 0.0000000000 417.7713913472 0.0296750385 0.0060973770
-0.4432335823 -0.1562523578 0.0000000000 0.0000000000 0.0000000000 386.3702817774 0.0296750385 0.0060973770
-0.4361205054 -0.1756566085 0.0000000000 0.0000000000 0.0000000000 351.6807298720 0.0296750385 0.0060973770
-0.4282116247 -0.1947503355 0.0000000000 0.0000000000 0.0000000000 314.0590036523 0.0296750385 0.0060973770
-0.4195204523 -0.2135009176 0.0000000000 0.0000000000 0.0000000000 273.8915868321 0.0296750385 0.0060973770
-0.4100618370 -0.2318763197 0.0000000000 0.0000000000 0.0000000000 231.5916933334 0.0296750385 0.0060973770
-0.3998519386 -0.2498451478 0.0000000000 0.0000000000 0.0000000000 187.5954030869 0.0296750385 0.0060973770
-0.3889082005 -0.2673767023 0.0000000000 0.0000000000 0.0000000000 142.3574133268 0.0296750385 0.0060973770
-0.3772493200 -0.2844410309 0.0000000000 0.0000000000 0.0000000000 96.3463973228 0.0296750385 0.0060973770
-0.3648952161 -0.3010089795 0.0000000000 0.0000000000 0.0000000000 50.0399638865 0.0296750385 0.0060973770
-0.3518669954 -0.3170522421 0.0000000000 0.0000000000 0.0000000000 3.9192082257 0.0296750385 0.0060973770
-0.3381869167 -0.3325434090 0.0000000000 0.0000000000 0.0000000000 -41.5371456105 0.0296750385 0.0060973770
-0.3089657471 -0.3617645785 0.0000000000 0.0000000000 0.0000000000 -128.5916175401 0.0296750385 0.0060973770
-0.2934745802 -0.3754446573 0.0000000000 0.0000000000 0.0000000000 -169.3024973315 0.0296750385 0.0060973770
-0.2774313176 -0.3884728779 0.0000000000 0.0000000000 0.0000000000 -207.5888489300 0.0296750385 0.0060973770
-0.2608633690 -0.4008269818 0.0000000000 0.0000000000 0.0000000000 -243.0850556520 0.0296750385 0.0060973770
-0.2437990403 -0.4124858623 0.0000000000 0.0000000000 0.0000000000 -275.4702904201 0.0296750385 0.0060973770
-0.2262674858 -0.4234296003 0.0000000000 0.0000000000 0.0000000000 -304.4759907612 0.0296750385 0.0060973770
-0.2082986578 -0.4336394987 0.0000000000 0.0000000000 0.0000000000 -329.8929373385 0.0296750385 0.0060973770
-0.1899232557 -0.4430981141 0.0000000000 0.0000000000 0.0000000000 -351.5776067451 0.0296750385 0.0060973770
-0.1711726736 -0.4517892864 0.0000000000 0.0000000000 0.0000000000 -369.4573951104 0.0296750385 0.0060973770
-0.1520789465 -0.4596981671 0.0000000000 0.0000000000 0.0000000000 -383.5342609068 0.0296750385 0.0060973770
-0.1326746958 -0.4668112440 0.0000000000 0.0000000000 0.0000000000 -393.8863090140 0.0296750385 0.0060973770
-0.1129930734 -0.4731163643 0.0000000000 0.0000000000 0.0000000000 -400.6668613950 0.0296750385 0.0060973770
-0.0930677048 -0.4786027560 0.0000000000 0.0000000000 0.0000000000 -404.1006413912 0.0296750385 0.0060973770
-0.0729326323 -0.4832610457 0.0000000000 0.0000000000 0.0000000000 -404.4768534195 0.0296750385 0.0060973770
-0.0526222564 -0.4870832748 0.0000000000 0.0000000000 0.0000000000 -402.1391653776 0.0296750385 0.0060973770
-0.0321712768 -0.4900629129 0.0000000000 0.0000000000 0.0000000000 -397.4728852318 0.0296750385 0.0060973770
-0.0116146339 -0.4921948695 0.0000000000 0.0000000000 0.0000000000 -390.8899324388 0.0296750385 0.0060973770
0.0090125517 -0.4934755022 0.0000000000 0.0000000000 0.0000000000 -382.8124961309 0.0296750385 0.0060973770
0.0296750388 -0.4939026230 0.0000000000 0.0000000000 0.0000000000 -373.6564856032 0.0296750385 0.0060973770
0.0503375259 -0.4934755022 0.0000000000 0.0000000000 0.0000000000 -363.8159766383 0.0296750385 0.0060973770
0.0709647115 -0.4921948695 0.0000000000 0.0000000000 0.0000000000 -353.6497884524 0.0296750385 0.0060973770
0.0915213544 -0.4900629128 0.0000000000 0.0000000000 0.0000000000 -343.4711317388 0.0296750385 0.0060973770
0.1119723339 -0.4870832747 0.0000000000 0.0000000000 0.0000000000 -333.5408944088 0.0296750385 0.0060973770
0.1322827099 -0.4832610456 0.0000000000 0.0000000000 0.0000000000 -324.0647780867 0.0296750385 0.0060973770
0.1524177824 -0.4786027559 0.0000000000 0.0000000000 0.0000000000 -315.1938783560 0.0296750385 0.0060973770
0.1723431509 -0.4731163641 0.0000000000 0.0000000000 0.0000000000 -307.0281020432 0.0296750385 0.0060973770
0.1920247734 -0.4668112438 0.0000000000 0.0000000000 0.0000000000 -299.6209345669 0.0296750385 0.0060973770
0.2114290241 -0.4596981669 0.0000000000 0.0000000000 0.0000000000 -292.9854504888 0.0296750385 0.0060973770
0.2305227511 -0.4517892862 0.0000000000 0.0000000000 0.0000000000 -287.0999910887 0.0296750385 0.0060973770
0.2492733332 -0.4430981138 0.0000000000 0.0000000000 0.0000000000 -281.9177618299 0.0296750385 0.0060973770
0.2676487353 -0.4336394985 0.0000000000 0.0000000000 0.0000000000 -277.3742411502 0.0296750385 0.0060973770
0.2856175633 -0.4234296000 0.0000000000 0.0000000000 0.0000000000 -273.4060241495 0.0296750385 0.0060973770
0.3031491178 -0.4124858620 0.0000000000 0.0000000000 0.0000000000 -269.9482556371 0.0296750385 0.0060973770
0.3202134465 -0.4008269814 0.0000000000 0.0000000000 0.0000000000 -266.9722586260 0.0296750385 0.0060973770
0.3367813951 -0.3884728775 0.0000000000 0.0000000000 0.0000000000 -264.4236425628 0.0296750385 0.0060973770
0.3528246577 -0.3754446569 0.0000000000 0.0000000000 0.0000000000 -262.3556450401 0.0296750385 0.0060973770
0.3683158246 -0.3617645781 0.0000000000 0.0000000000 0.0000000000 -260.6255388628 0.0296750385 0.0060973770
0.5792261896 -0.5041210196 0.0000000000 0.0251668153 -0.0298719052 -249.9687838209 0.0294372854 0.0060085333
0.5979292894 -0.4832113121 0.0000000000 0.0046382623 -0.0337401763 -249.8203288747 0.0294504967 0.0060042459
0.6158371548 -0.4616169251 0.0000000000 -0.0086979657 -0.0389240304 -249.9259122863 0.0294635427 0.0060004259
0.6329246647 -0.4393680787 0.0000000000 -0.0165871587 -0.0450089561 -250.2858813394 0.0294763296 0.0059970600
0.6491678523 -0.4164959056 0.0000000000 -0.0207170930 -0.0515433870 -250.8833946453 0.0294887713 0.0059941375
0.6645439420 -0.3930324089 0.0000000000 -0.0225431544 -0.0580943258 -251.6927342615 0.0295007923 0.0059916481
0.6790313836 -0.3690104186 0.0000000000 -0.0231931520 -0.0642898453 -252.6859181777 0.0295123305 0.0059895810
0.6926098836 -0.3444635454 0.0000000000 -0.0234550972 -0.0698398328 -253.8368409853 0.0295233383 0.0059879254
0.7052604336 -0.3194261338 0.0000000000 -0.0238230978 -0.0745375388 -255.1229834508 0.0295337824 0.0059866702
0.7169653358 -0.2939332135 0.0000000000 -0.0245681958 -0.0782495179 -256.5258037435 0.0295436437 0.0059858044
0.7277082264 -0.2680204508 0.0000000000 -0.0258083588 -0.0809013024 -258.0307174984 0.0295529148 0.0059853171
0.7374740964 -0.2417240985 0.0000000000 -0.0275646044 -0.0824634421 -259.6270603629 0.0295615985 0.0059851976
0.7462493101 -0.2150809449 0.0000000000 -0.0298005791 -0.0829398514 -261.3080594237 0.0295697057 0.0059854355
0.7540216227 -0.1881282632 0.0000000000 -0.0324482913 -0.0823587619 -263.0707151593 0.0295772529 0.0059860203
0.7607801953 -0.1609037590 0.0000000000 -0.0354241064 -0.0807659151 -264.9155133435 0.0295842611 0.0059869411
0.7665156086 -0.1334455185 0.0000000000 -0.0386385173 -0.0782195214 -266.8459401789 0.0295907536 0.0059881865
0.7712198749 -0.1057919549 0.0000000000 -0.0420020785 -0.0747865864 -268.8678148444 0.0295967552 0.0059897444
0.7748864485 -0.0779817555 0.0000000000 -0.0454289087 -0.0705402939 -270.9884744271 0.0296022910 0.0059916012
0.7775102339 -0.0500538275 0.0000000000 -0.0488385081 -0.0655582017 -273.2158535726 0.0296073860 0.0059937423
0.7790875926 -0.0220472442 0.0000000000 -0.0521562480 -0.0599210520 -275.5575013147 0.0296120640 0.0059961512
0.7796163476 0.0059988098 0.0000000000 -0.0553126950 -0.0537120509 -278.0195735752 0.0296163476 0.0059988094
0.7790957866 0.0340450931 0.0000000000 -0.0582418519 -0.0470165300 -280.6058332075 0.0296202580 0.0060016971
0.7775266624 0.0620523624 0.0000000000 -0.0608783999 -0.0399219595 -283.3166816672 0.0296238145 0.0060047919
0.7749111922 0.0899814275 0.0000000000 -0.0631540851 -0.0325183284 -286.1482397072 0.0296270348 0.0060080702
0.7712530547 0.1177932061 0.0000000000 -0.0649934884 -0.0248989183 -289.0914921369 0.0296299351 0.0060115062
0.7665573851 0.1454487785 0.0000000000 -0.0663095202 -0.0171614703 -292.1315172126 0.0296325303 0.0060150729
0.7608307681 0.1729094428 0.0000000000 -0.0669990689 -0.0094096718 -295.2468373749 0.0296348340 0.0060187421
0.7540812288 0.2001367688 0.0000000000 -0.0669392402 -0.0017547770 -298.4089553152 0.0296368591 0.0060224848
0.7463182222 0.2270926523 0.0000000000 -0.0659845172 0.0056829526 -301.5821743289 0.0296386179 0.0060262713
0.7375526197 0.2537393688 0.0000000000 -0.0639648968 0.0127734204 -304.7238363483 0.0296401220 0.0060300721
0.7277966940 0.2800396270 0.0000000000 -0.0606846036 0.0193769825 -307.7851320624 0.0296413826 0.0060338586
0.7170641021 0.3059566212 0.0000000000 -0.0559203658 0.0253463682 -310.7126304409 0.0296424103 0.0060376028
0.7053698661 0.3314540834 0.0000000000 -0.0494175429 0.0305307156 -313.4506286587 0.0296432152 0.0060412789
0.6927303519 0.3564963345 0.0000000000 -0.0408817320 0.0347821866 -315.9443374873 0.0296438069 0.0060448632
0.6791632467 0.3810483351 0.0000000000 -0.0299630586 0.0379657065 -318.1438060078 0.0296441940 0.0060483349
0.6646875338 0.4050757340 0.0000000000 -0.0162305288 0.0399726277 -320.0083766992 0.0296443845 0.0060516765
0.6493234663 0.4285449176 0.0000000000 0.0008647075 0.0407394491 -321.5113582580 0.0296443856 0.0060548740
0.6330925389 0.4514230561 0.0000000000 0.0220343304 0.0402727168 -322.6444843158 0.0296442041 0.0060579168
0.6160174579 0.4736781496 0.0000000000 0.0481951836 0.0386799926 -323.4215101396 0.0296438461 0.0060607981
0.5981221098 0.4952790728 0.0000000000 0.0804860146 0.0362032329 -323.8800112144 0.0296433175 0.0060635142
0.5794315281 0.5161956182 0.0000000000 0.1202220784 0.0332452028 -324.0764631604 0.0296426243 0.0060660648
0.5376017309 0.5578641042 0.0000000000 0.2340820904 0.0281954102 -324.0314187089 0.0296405523 0.0060711712
0.5143635432 0.5783866952 0.0000000000 0.3122932643 0.0280544199 -323.9489093609 0.0296391149 0.0060736440
0.4902970148 0.5979312686 0.0000000000 0.4026750400 0.0308707710 -323.9717681548 0.0296374803 0.0060758865
0.4654432768 0.6164644465 0.0000000000 0.5028561243 0.0372618376 -324.2016364268 0.0296356653 0.0060779085
0.4398448059 0.6339545770 0.0000000000 0.6089078181 0.0474138039 -324.7121212360 0.0296336874 0.0060797183
0.4135453525 0.6503717883 0.0000000000 0.7159076520 0.0610574437 -325.5281738560 0.0296315658 0.0060813225
0.3865898666 0.6656880402 0.0000000000 0.8187598455 0.0775509776 -326.6077123069 0.0296293220 0.0060827268
0.3590244212 0.6798771720 0.0000000000 0.9130119615 0.0960317308 -327.8431219667 0.0296269797 0.0060839356
0.3308961334 0.6929149477 0.0000000000 0.9954482564 0.1155890815 -329.0854896284 0.0296245650 0.0060849527
0.3022530837 0.7047790975 0.0000000000 1.0643502184 0.1354174095 -330.1771879065 0.0296221059 0.0060857814
0.2731442338 0.7154493563 0.0000000000 1.1194309053 0.1549189477 -330.9764526961 0.0296196320 0.0060864250
0.2436193417 0.7249074992 0.0000000000 1.1615344353 0.1737436971 -331.3673989529 0.0296171737 0.0060868873
0.2137288771 0.7331373720 0.0000000000 1.1922271084 0.1917726720 -331.2579061513 0.0296147619 0.0060871725
0.1835239341 0.7401249200 0.0000000000 1.2133948913 0.2090637160 -330.5708623911 0.0296124276 0.0060872860
0.1530561435 0.7458582114 0.0000000000 1.2269225088 0.2257825303 -329.2336489599 0.0296102009 0.0060872339
0.1223775846 0.7503274582 0.0000000000 1.2344843820 0.2421374054 -327.1692270459 0.0296081113 0.0060870234
0.0915406955 0.7535250324 0.0000000000 1.2374423218 0.2583285699 -324.2906836271 0.0296061866 0.0060866626
0.0605981836 0.7554454793 0.0000000000 1.2368251046 0.2745156481 -320.4997492163 0.0296044530 0.0060861605
0.0296029347 0.7560855266 0.0000000000 1.2333594850 0.2908015358 -315.6887657015 0.0296029348 0.0060855266
-0.0013920771 0.7554440900 0.0000000000 1.2275259362 0.3072285096 -309.7450095387 0.0296016537 0.0060847713
-0.0323338804 0.7535222752 0.0000000000 1.2196201642 0.3237820039 -302.5561647728 0.0296006289 0.0060839054
-0.0631695969 0.7503233758 0.0000000000 1.2098093711 0.3403982933 -294.0159469893 0.0295998767 0.0060829410
-0.0938465324 0.7458528684 0.0000000000 1.1981784188 0.3569735041 -284.0292156040 0.0295994105 0.0060818908
-0.1243122666 0.7401184031 0.0000000000 1.1847649865 0.3733724668 -272.5162338698 0.0295992402 0.0060807692
-0.1545147429 0.7331297911 0.0000000000 1.1695848703 0.3894367157 -259.4159725817 0.0295993727 0.0060795917
-0.1844023574 0.7248989876 0.0000000000 1.1526493464 0.4049914289 -244.6884933153 0.0295998110 0.0060783758
-0.2139240474 0.7154400722 0.0000000000 1.1339765605 0.4198513560 -228.3165105128 0.0296005547 0.0060771410
-0.2430293785 0.7047692243 0.0000000000 1.1135986215 0.4338258777 -210.3062475983 0.0296015996 0.0060759083
-0.2716686310 0.6929046959 0.0000000000 1.0915656949 0.4467233578 -190.6876947268 0.0296029377 0.0060747010
-0.2997928849 0.6798667801 0.0000000000 1.0679480417 0.4583549232 -169.5143604263 0.0296045570 0.0060735438
-0.3273541037 0.6656777760 0.0000000000 1.0428366593 0.4685377755 -146.8625942814 0.0296064413 0.0060724627
-0.3543052163 0.6503619502 0.0000000000 1.0163429715 0.4770981043 -122.8305458699 0.0296085707 0.0060714845
-0.3806001977 0.6339454951 0.0000000000 0.9885978693 0.4838736489 -97.5368166150 0.0296109211 0.0060706365
-0.4061941470 0.6164564831 0.0000000000 0.9597503015 0.4887159356 -71.1188552018 0.0296134647 0.0060699453
-0.4310433644 0.5979248181 0.0000000000 0.9299655545 0.4914922098 -43.7311427312 0.0296161703 0.0060694362
-0.4551054249 0.5783821838 0.0000000000 0.8994233150 0.4920870739 -15.5432099890 0.0296190036 0.0060691328
-0.4783392506 0.5578619884 0.0000000000 0.8683155833 0.4904038408 13.2624738752 0.0296219283 0.0060690556
-0.5221650398 0.5140308347 0.0000000000 0.8052200609 0.4799160675 71.9458186259 0.0296278934 0.0060696562
-0.5426821952 0.4907947869 0.0000000000 0.7736579298 0.4710200699 101.4139640529 0.0296308561 0.0060703587
-0.5622216261 0.4667308710 0.0000000000 0.7423770865 0.4596639206 130.6854282950 0.0296337561 0.0060713367
-0.5807499804 0.4418802045 0.0000000000 0.7115976257 0.4458554572 159.5469010395 0.0296365577 0.0060725931
-0.5982356307 0.4162852451 0.0000000000 0.6815385464 0.4296239114 187.7857111457 0.0296392282 0.0060741268
-0.6146487273 0.3899897189 0.0000000000 0.6524156160 0.4110195635 215.1919963905 0.0296417386 0.0060759323
-0.6299612493 0.3630385455 0.0000000000 0.6244393166 0.3901132084 241.5607919569 0.0296440642 0.0060780009
-0.6441470524 0.3354777622 0.0000000000 0.5978128887 0.3669954434 266.6940236359 0.0296461842 0.0060803208
-0.6571819132 0.3073544454 0.0000000000 0.5727304855 0.3417757906 290.4023943667 0.0296480819 0.0060828772
-0.6690435716 0.2787166303 0.0000000000 0.5493754464 0.3145816645 312.5071544287 0.0296497445 0.0060856526
-0.6797117692 0.2496132294 0.0000000000 0.5279187041 0.2855571988 332.8417465172 0.0296511621 0.0060886278
-0.6891682845 0.2200939493 0.0000000000 0.5085173343 0.2548619427 351.2533177708 0.0296523274 0.0060917814
-0.6973969644 0.1902092055 0.0000000000 0.4913132609 0.2226694377 367.6040921271 0.0296532351 0.0060950904
-0.7043837528 0.1600100372 0.0000000000 0.4764321195 0.1891656781 381.7725972355 0.0296538813 0.0060985308
-0.7101167149 0.1295480198 0.0000000000 0.4639822632 0.1545474573 393.6547384329 0.0296542627 0.0061020774
-0.7145860579 0.0988751773 0.0000000000 0.4540538809 0.1190206077 403.1647070337 0.0296543770 0.0061057041
-0.7177841482 0.0680438933 0.0000000000 0.4467181951 0.0827981631 410.2357059762 0.0296542216 0.0061093845
-0.7197055246 0.0371068223 0.0000000000 0.4420267421 0.0460984857 414.8204813921 0.0296537942 0.0061130919
-0.7203469078 0.0061167994 0.0000000000 0.4400107776 0.0091434030 416.8916648627 0.0296530922 0.0061167997
-0.7197072062 -0.0248732494 0.0000000000 0.4406808807 -0.0278436308 416.4419502225 0.0296521125 0.0061204816
-0.7177875180 -0.0558103971 0.0000000000 0.4440267870 -0.0646393489 413.4841191565 0.0296508517 0.0061241123
-0.7145911293 -0.0866418064 0.0000000000 0.4500174772 -0.1010224698 408.0509256424 0.0296493055 0.0061276673
-0.7101235086 -0.1173148191 0.0000000000 0.4586015457 -0.1367754997 400.1948451218 0.0296474689 0.0061311239
-0.7043922981 -0.1477770460 0.0000000000 0.4697078070 -0.1716865597 389.9876678639 0.0296453358 0.0061344610
-0.6974073000 -0.1779764559 0.0000000000 0.4832460787 -0.2055512274 377.5199148597 0.0296428994 0.0061376598
-0.6891804608 -0.2078614645 0.0000000000 0.4991080892 -0.2381743665 362.9000615513 0.0296401509 0.0061407040