 TITLE = "Tecplot data"
 VARIABLES = "X", "Y", "Z" "U", "V", "p", "dispX", "dispY"
 ZONE SOLUTIONTIME=151.900000, NODES=26114 , ELEMENTS=25916, DATAPACKING=POINT, ZONETYPE=FEQUADRILATERAL
2.1768428682 5.2145929602 0.0000000000 0.0000000000 0.0000000000 -20700.4815717990 1.8232894776 4.8610395696
2.1768428684 4.5074861792 0.0000000000 0.0000000000 0.0000000000 -2334.9161430663 1.8232894776 4.8610395696
1.4697360869 5.2145929601 0.0000000000 0.0000000000 0.0000000000 20365.0866206011 1.8232894776 4.8610395696
1.4697360872 4.5074861788 0.0000000000 0.0000000000 0.0000000000 7025.6214070880 1.8232894776 4.8610395696
2.3663915014 5.3720281851 0.0000000000 1.2813310777 -0.7427784409 -10715.8714907874 1.8360614155 4.8416980992
2.3160231489 4.3020675372 0.0000000000 0.2139205104 0.1205804204 -1635.7216946835 1.7856930626 4.8323976227
1.2963224259 5.3890311583 0.0000000000 1.5524999829 1.1417535506 12550.3107597980 1.8266525120 4.8587010726
1.2806672080 4.3377920797 0.0000000000 0.2171909215 0.1190280938 6824.0198948705 1.8109972936 4.8681221659
2.9651719362 5.7696320608 0.0000000000 1.0129305800 -0.1597803785 -3533.4326848498 1.9045117645 4.7089718890
2.6588205670 3.6214079175 0.0000000000 0.4515265678 0.0004791880 -18.3749679432 1.5981603945 4.6820680885
0.7800934009 5.8992007793 0.0000000000 1.2321485942 0.5758297390 6522.0329307246 1.8407535730 4.8385406078
0.6680428354 3.8301424524 0.0000000000 0.5607658990 0.3760289711 5377.2824806183 1.7287030066 4.8908026247
6.4736318291 7.2008707225 0.0000000000 0.6483949336 0.1899054515 265.3940186430 2.2736318291 3.9008707225
4.9427532338 0.4291859821 0.0000000000 0.6620384553 -0.2500023775 1118.6325858101 0.7427532338 3.7291859821
20.0000000000 4.7000000000 0.0000000000 1.1052229316 0.8805382834 13.2190074149 0.0000000000 0.0000000000
20.0000000000 -4.7000000000 0.0000000000 0.5923580262 -0.0731477169 -6.3017196916 0.0000000000 0.0000000000
-10.0000000000 15.0000000000 0.0000000000 1.0000000000 0.0000000000 3083.3333670384 0.0000000000 0.0000000000
20.0000000000 15.0000000000 0.0000000000 1.9696528626 0.0000000000 -0.6006526932 0.0000000000 0.0000000000
20.0000000000 -15.0000000000 0.0000000000 1.9074644673 0.0000000000 0.0992041003 0.0000000000 0.0000000000
-10.0000000000 -15.0000000000 0.0000000000 1.0000000000 0.0000000000 2395.4913304329 0.0000000000 0.0000000000
2.1898154138 4.5209532009 0.0000000000 0.0000000000 0.0000000000 -2593.7099640411 1.8232894776 4.8610395696
2.2022753394 4.5348958642 0.0000000000 0.0000000000 0.0000000000 -2858.1850452161 1.8232894776 4.8610395696
2.2142052190 4.5492946689 0.0000000000 0.0000000000 0.0000000000 -3130.9690315703 1.8232894776 4.8610395696
2.2255883677 4.5641294771 0.0000000000 0.0000000000 0.0000000000 -3412.0635176131 1.8232894776 4.8610395696
2.2364088649 4.5793795408 0.0000000000 0.0000000000 0.0000000000 -3702.8762497166 1.8232894776 4.8610395696
2.2466515774 4.5950235316 0.0000000000 0.0000000000 0.0000000000 -4004.3646102131 1.8232894776 4.8610395696
2.2563021796 4.6110395698 0.0000000000 0.0000000000 0.0000000000 -4317.8735688657 1.8232894776 4.8610395696
2.2653471745 4.6274052557 0.0000000000 0.0000000000 0.0000000000 -4644.8665909496 1.8232894776 4.8610395696
2.2737739117 4.6440977003 0.0000000000 0.0000000000 0.0000000000 -4987.1070255550 1.8232894776 4.8610395696
2.2815706056 4.6610935577 0.0000000000 0.0000000000 0.0000000000 -5346.8278158379 1.8232894776 4.8610395696
2.2887263520 4.6783690576 0.0000000000 0.0000000000 0.0000000000 -5727.0517161648 1.8232894776 4.8610395696
2.2952311428 4.6959000389 0.0000000000 0.0000000000 0.0000000000 -6132.1521679863 1.8232894776 4.8610395696
2.3010758806 4.7136619826 0.0000000000 0.0000000000 0.0000000000 -6568.4638206785 1.8232894776 4.8610395696
2.3062523908 4.7316300473 0.0000000000 0.0000000000 0.0000000000 -7044.3500835295 1.8232894776 4.8610395696
2.3107534337 4.7497791028 0.0000000000 0.0000000000 0.0000000000 -7568.8637669709 1.8232894776 4.8610395696
2.3145727143 4.7680837662 0.0000000000 0.0000000000 0.0000000000 -8148.7793902795 1.8232894776 4.8610395696
2.3177048907 4.7865184367 0.0000000000 0.0000000000 0.0000000000 -8785.4867134815 1.8232894776 4.8610395696
2.3201455826 4.8050573317 0.0000000000 0.0000000000 0.0000000000 -9473.5823070526 1.8232894776 4.8610395696
2.3218913762 4.8236745230 0.0000000000 0.0000000000 0.0000000000 -10202.2610090063 1.8232894776 4.8610395696
2.3229398300 4.8423439726 0.0000000000 0.0000000000 0.0000000000 -10958.0538172692 1.8232894776 4.8610395696
2.3232894776 4.8610395698 0.0000000000 0.0000000000 0.0000000000 -11727.8099110453 1.8232894776 4.8610395696
2.3229398300 4.8797351669 0.0000000000 0.0000000000 0.0000000000 -12500.0359826451 1.8232894776 4.8610395696
2.3218913762 4.8984046166 0.0000000000 0.0000000000 0.0000000000 -13265.7695307271 1.8232894776 4.8610395696
2.3201455825 4.9170218078 0.0000000000 0.0000000000 0.0000000000 -14017.7116191507 1.8232894776 4.8610395696
2.3177048907 4.9355607028 0.0000000000 0.0000000000 0.0000000000 -14750.5214316577 1.8232894776 4.8610395696
2.3145727142 4.9539953733 0.0000000000 0.0000000000 0.0000000000 -15459.1442892619 1.8232894776 4.8610395696
2.3107534337 4.9723000367 0.0000000000 0.0000000000 0.0000000000 -16140.0394371768 1.8232894776 4.8610395696
2.3062523907 4.9904490923 0.0000000000 0.0000000000 0.0000000000 -16788.6898126751 1.8232894776 4.8610395696
2.3010758804 5.0084171569 0.0000000000 0.0000000000 0.0000000000 -17402.5651538566 1.8232894776 4.8610395696
2.2952311427 5.0261791007 0.0000000000 0.0000000000 0.0000000000 -17976.7483390509 1.8232894776 4.8610395696
2.2887263519 5.0437100819 0.0000000000 0.0000000000 0.0000000000 -18509.8619756558 1.8232894776 4.8610395696
2.2815706055 5.0609855818 0.0000000000 0.0000000000 0.0000000000 -18995.8246203651 1.8232894776 4.8610395696
2.2737739115 5.0779814392 0.0000000000 0.0000000000 0.0000000000 -19435.2846578060 1.8232894776 4.8610395696
2.2653471743 5.0946738838 0.0000000000 0.0000000000 0.0000000000 -19819.7801370427 1.8232894776 4.8610395696
2.2563021794 5.1110395697 0.0000000000 0.0000000000 0.0000000000 -20153.8637549831 1.8232894776 4.8610395696
2.2466515772 5.1270556079 0.0000000000 0.0000000000 0.0000000000 -20424.1609554786 1.8232894776 4.8610395696
2.2364088647 5.1426995987 0.0000000000 0.0000000000 0.0000000000 -20643.1634326954 1.8232894776 4.8610395696
2.2255883674 5.1579496624 0.0000000000 0.0000000000 0.0000000000 -20786.5602980011 1.8232894776 4.8610395696
2.2142052188 5.1727844706 0.0000000000 0.0000000000 0.0000000000 -20885.0847008683 1.8232894776 4.8610395696
2.2022753391 5.1871832753 0.0000000000 0.0000000000 0.0000000000 -20885.5266309542 1.8232894776 4.8610395696
2.1898154135 5.2011259385 0.0000000000 0.0000000000 0.0000000000 -20872.6299925177 1.8232894776 4.8610395696
2.1619302634 5.2289015249 0.0000000000 0.0000000000 0.0000000000 -20513.4591017200 1.8232894776 4.8610395696
2.1464390965 5.2425816037 0.0000000000 0.0000000000 0.0000000000 -20214.2114662513 1.8232894776 4.8610395696
2.1303958339 5.2556098243 0.0000000000 0.0000000000 0.0000000000 -19822.6621276969 1.8232894776 4.8610395696
2.1138278852 5.2679639282 0.0000000000 0.0000000000 0.0000000000 -19347.9008413962 1.8232894776 4.8610395696
2.0967635566 5.2796228087 0.0000000000 0.0000000000 0.0000000000 -18782.1354101548 1.8232894776 4.8610395696
2.0792320021 5.2905665468 0.0000000000 0.0000000000 0.0000000000 -18131.9844566888 1.8232894776 4.8610395696
2.0612631741 5.3007764452 0.0000000000 0.0000000000 0.0000000000 -17395.8810124918 1.8232894776 4.8610395696
2.0428877720 5.3102350606 0.0000000000 0.0000000000 0.0000000000 -16577.7353382812 1.8232894776 4.8610395696
2.0241371899 5.3189262329 0.0000000000 0.0000000000 0.0000000000 -15679.2630986217 1.8232894776 4.8610395696
2.0050434628 5.3268351136 0.0000000000 0.0000000000 0.0000000000 -14704.1822750516 1.8232894776 4.8610395696
1.9856392121 5.3339481904 0.0000000000 0.0000000000 0.0000000000 -13655.9278031715 1.8232894776 4.8610395696
1.9659575896 5.3402533108 0.0000000000 0.0000000000 0.0000000000 -12538.8340906510 1.8232894776 4.8610395696
1.9460322211 5.3457397026 0.0000000000 0.0000000000 0.0000000000 -11357.4528993001 1.8232894776 4.8610395696
1.9258971486 5.3503979923 0.0000000000 0.0000000000 0.0000000000 -10116.8581917873 1.8232894776 4.8610395696
1.9055867726 5.3542202213 0.0000000000 0.0000000000 0.0000000000 -8822.4547026874 1.8232894776 4.8610395696
1.8851357931 5.3571998595 0.0000000000 0.0000000000 0.0000000000 -7480.0707193314 1.8232894776 4.8610395696
1.8645791502 5.3593318161 0.0000000000 0.0000000000 0.0000000000 -6095.9196278629 1.8232894776 4.8610395696
1.8439519646 5.3606124488 0.0000000000 0.0000000000 0.0000000000 -4676.5934009709 1.8232894776 4.8610395696
1.8232894775 5.3610395696 0.0000000000 0.0000000000 0.0000000000 -3228.9705168807 1.8232894776 4.8610395696
1.8026269904 5.3606124488 0.0000000000 0.0000000000 0.0000000000 -1760.0881025241 1.8232894776 4.8610395696
1.7819998048 5.3593318161 0.0000000000 0.0000000000 0.0000000000 -277.0366858595 1.8232894776 4.8610395696
1.7614431619 5.3571998594 0.0000000000 0.0000000000 0.0000000000 1213.0929250807 1.8232894776 4.8610395696
1.7409921823 5.3542202213 0.0000000000 0.0000000000 0.0000000000 2703.1786344094 1.8232894776 4.8610395696
1.7206818064 5.3503979922 0.0000000000 0.0000000000 0.0000000000 4186.0309863137 1.8232894776 4.8610395696
1.7005467339 5.3457397025 0.0000000000 0.0000000000 0.0000000000 5654.1771331791 1.8232894776 4.8610395696
1.6806213654 5.3402533108 0.0000000000 0.0000000000 0.0000000000 7100.2460875950 1.8232894776 4.8610395696
1.6609397429 5.3339481904 0.0000000000 0.0000000000 0.0000000000 8517.0718888961 1.8232894776 4.8610395696
1.6415354922 5.3268351136 0.0000000000 0.0000000000 0.0000000000 9897.7255737750 1.8232894776 4.8610395696
1.6224417652 5.3189262328 0.0000000000 0.0000000000 0.0000000000 11235.4947296962 1.8232894776 4.8610395696
1.6036911831 5.3102350605 0.0000000000 0.0000000000 0.0000000000 12523.8958397149 1.8232894776 4.8610395696
1.5853157810 5.3007764451 0.0000000000 0.0000000000 0.0000000000 13756.6888956339 1.8232894776 4.8610395696
1.5673469529 5.2905665467 0.0000000000 0.0000000000 0.0000000000 14927.8971453977 1.8232894776 4.8610395696
1.5498153984 5.2796228086 0.0000000000 0.0000000000 0.0000000000 16031.8174907462 1.8232894776 4.8610395696
1.5327510698 5.2679639281 0.0000000000 0.0000000000 0.0000000000 17063.0381027924 1.8232894776 4.8610395696
1.5161831211 5.2556098242 0.0000000000 0.0000000000 0.0000000000 18016.4691666367 1.8232894776 4.8610395696
1.5001398586 5.2425816036 0.0000000000 0.0000000000 0.0000000000 18887.3927894651 1.8232894776 4.8610395696
1.4846486917 5.2289015248 0.0000000000 0.0000000000 0.0000000000 19671.5257701454 1.8232894776 4.8610395696
1.4554275222 5.1996803553 0.0000000000 0.0000000000 0.0000000000 20964.8552125200 1.8232894776 4.8610395696
1.4417474434 5.1841891884 0.0000000000 0.0000000000 0.0000000000 21468.2155516065 1.8232894776 4.8610395696
1.4287192228 5.1681459258 0.0000000000 0.0000000000 0.0000000000 21873.1745793512 1.8232894776 4.8610395696
1.4163651189 5.1515779771 0.0000000000 0.0000000000 0.0000000000 22178.3544956021 1.8232894776 4.8610395696
1.4047062384 5.1345136485 0.0000000000 0.0000000000 0.0000000000 22382.9605221056 1.8232894776 4.8610395696
1.3937625003 5.1169820940 0.0000000000 0.0000000000 0.0000000000 22486.7300660934 1.8232894776 4.8610395696
1.3835526019 5.0990132659 0.0000000000 0.0000000000 0.0000000000 22489.8716491085 1.8232894776 4.8610395696
1.3740939866 5.0806378638 0.0000000000 0.0000000000 0.0000000000 22393.0035089753 1.8232894776 4.8610395696
1.3654028142 5.0618872817 0.0000000000 0.0000000000 0.0000000000 22197.1040365410 1.8232894776 4.8610395696
1.3574939335 5.0427935547 0.0000000000 0.0000000000 0.0000000000 21903.4922279892 1.8232894776 4.8610395696
1.3503808567 5.0233893040 0.0000000000 0.0000000000 0.0000000000 21513.8696718877 1.8232894776 4.8610395696
1.3440757363 5.0037076815 0.0000000000 0.0000000000 0.0000000000 21030.4798872948 1.8232894776 4.8610395696
1.3385893446 4.9837823130 0.0000000000 0.0000000000 0.0000000000 20456.4762902591 1.8232894776 4.8610395696
1.3339310549 4.9636472405 0.0000000000 0.0000000000 0.0000000000 19796.6258157845 1.8232894776 4.8610395696
1.3301088259 4.9433368645 0.0000000000 0.0000000000 0.0000000000 19058.4725049304 1.8232894776 4.8610395696
1.3271291877 4.9228858850 0.0000000000 0.0000000000 0.0000000000 18253.9636546009 1.8232894776 4.8610395696
1.3249972311 4.9023292421 0.0000000000 0.0000000000 0.0000000000 17401.1966662928 1.8232894776 4.8610395696
1.3237165984 4.8817020565 0.0000000000 0.0000000000 0.0000000000 16525.3662618818 1.8232894776 4.8610395696
1.3232894776 4.8610395694 0.0000000000 0.0000000000 0.0000000000 15657.4732637765 1.8232894776 4.8610395696
1.3237165984 4.8403770822 0.0000000000 0.0000000000 0.0000000000 14829.6069427576 1.8232894776 4.8610395696
1.3249972311 4.8197498966 0.0000000000 0.0000000000 0.0000000000 14067.3704955508 1.8232894776 4.8610395696
1.3271291878 4.7991932537 0.0000000000 0.0000000000 0.0000000000 13382.8812928409 1.8232894776 4.8610395696
1.3301088259 4.7787422742 0.0000000000 0.0000000000 0.0000000000 12773.1138762586 1.8232894776 4.8610395696
1.3339310550 4.7584318983 0.0000000000 0.0000000000 0.0000000000 12225.1587407931 1.8232894776 4.8610395696
1.3385893447 4.7382968258 0.0000000000 0.0000000000 0.0000000000 11724.2173793425 1.8232894776 4.8610395696
1.3440757364 4.7183714572 0.0000000000 0.0000000000 0.0000000000 11258.6620142302 1.8232894776 4.8610395696
1.3503808568 4.6986898348 0.0000000000 0.0000000000 0.0000000000 10820.7984829669 1.8232894776 4.8610395696
1.3574939337 4.6792855841 0.0000000000 0.0000000000 0.0000000000 10405.6534015790 1.8232894776 4.8610395696
1.3654028144 4.6601918570 0.0000000000 0.0000000000 0.0000000000 10009.8026006545 1.8232894776 4.8610395696
1.3740939868 4.6414412749 0.0000000000 0.0000000000 0.0000000000 9630.7169615927 1.8232894776 4.8610395696
1.3835526021 4.6230658728 0.0000000000 0.0000000000 0.0000000000 9266.4347242414 1.8232894776 4.8610395696
1.3937625005 4.6050970448 0.0000000000 0.0000000000 0.0000000000 8915.3799751740 1.8232894776 4.8610395696
1.4047062386 4.5875654903 0.0000000000 0.0000000000 0.0000000000 8576.2508751102 1.8232894776 4.8610395696
1.4163651191 4.5705011617 0.0000000000 0.0000000000 0.0000000000 8247.9472224943 1.8232894776 4.8610395696
1.4287192231 4.5539332130 0.0000000000 0.0000000000 0.0000000000 7929.5213322884 1.8232894776 4.8610395696
1.4417474437 4.5378899505 0.0000000000 0.0000000000 0.0000000000 7620.1421634064 1.8232894776 4.8610395696
1.4554275224 4.5223987836 0.0000000000 0.0000000000 0.0000000000 7319.0673267670 1.8232894776 4.8610395696
1.4846486920 4.4931776141 0.0000000000 0.0000000000 0.0000000000 6739.1808418878 1.8232894776 4.8610395696
1.5001398589 4.4794975353 0.0000000000 0.0000000000 0.0000000000 6459.1659957124 1.8232894776 4.8610395696
1.5161831215 4.4664693147 0.0000000000 0.0000000000 0.0000000000 6185.0384256279 1.8232894776 4.8610395696
1.5327510701 4.4541152108 0.0000000000 0.0000000000 0.0000000000 5916.3012248626 1.8232894776 4.8610395696
1.5498153988 4.4424563303 0.0000000000 0.0000000000 0.0000000000 5652.4986526769 1.8232894776 4.8610395696
1.5673469533 4.4315125922 0.0000000000 0.0000000000 0.0000000000 5393.2138492560 1.8232894776 4.8610395696
1.5853157813 4.4213026938 0.0000000000 0.0000000000 0.0000000000 5138.0640364749 1.8232894776 4.8610395696
1.6036911834 4.4118440785 0.0000000000 0.0000000000 0.0000000000 4886.6946199001 1.8232894776 4.8610395696
1.6224417655 4.4031529061 0.0000000000 0.0000000000 0.0000000000 4638.7732722074 1.8232894776 4.8610395696
1.6415354926 4.3952440254 0.0000000000 0.0000000000 0.0000000000 4393.9850510041 1.8232894776 4.8610395696
1.6609397433 4.3881309486 0.0000000000 0.0000000000 0.0000000000 4152.0286882056 1.8232894776 4.8610395696
1.6806213657 4.3818258283 0.0000000000 0.0000000000 0.0000000000 3912.6139474487 1.8232894776 4.8610395696
1.7005467343 4.3763394365 0.0000000000 0.0000000000 0.0000000000 3675.4596335268 1.8232894776 4.8610395696
1.7206818068 4.3716811468 0.0000000000 0.0000000000 0.0000000000 3440.2920040083 1.8232894776 4.8610395696
1.7409921828 4.3678589178 0.0000000000 0.0000000000 0.0000000000 3206.8433099244 1.8232894776 4.8610395696
1.7614431623 4.3648792797 0.0000000000 0.0000000000 0.0000000000 2974.8504689853 1.8232894776 4.8610395696
1.7819998052 4.3627473230 0.0000000000 0.0000000000 0.0000000000 2744.0536556243 1.8232894776 4.8610395696
1.8026269908 4.3614666904 0.0000000000 0.0000000000 0.0000000000 2514.1950747645 1.8232894776 4.8610395696
1.8232894779 4.3610395696 0.0000000000 0.0000000000 0.0000000000 2285.0174015949 1.8232894776 4.8610395696
1.8439519650 4.3614666904 0.0000000000 0.0000000000 0.0000000000 2056.2627400201 1.8232894776 4.8610395696
1.8645791506 4.3627473231 0.0000000000 0.0000000000 0.0000000000 1827.6705767866 1.8232894776 4.8610395696
1.8851357935 4.3648792797 0.0000000000 0.0000000000 0.0000000000 1598.9773171856 1.8232894776 4.8610395696
1.9055867731 4.3678589179 0.0000000000 0.0000000000 0.0000000000 1369.9128904120 1.8232894776 4.8610395696
1.9258971490 4.3716811470 0.0000000000 0.0000000000 0.0000000000 1140.2021282395 1.8232894776 4.8610395696
1.9460322215 4.3763394367 0.0000000000 0.0000000000 0.0000000000 909.5576353792 1.8232894776 4.8610395696
1.9659575900 4.3818258284 0.0000000000 0.0000000000 0.0000000000 677.6868201183 1.8232894776 4.8610395696
1.9856392125 4.3881309488 0.0000000000 0.0000000000 0.0000000000 444.2742791800 1.8232894776 4.8610395696
2.0050434632 4.3952440257 0.0000000000 0.0000000000 0.0000000000 209.0056214379 1.8232894776 4.8610395696
2.0241371902 4.4031529064 0.0000000000 0.0000000000 0.0000000000 -28.4798581173 1.8232894776 4.8610395696
2.0428877723 4.4118440788 0.0000000000 0.0000000000 0.0000000000 -268.5164895387 1.8232894776 4.8610395696
2.0612631744 4.4213026941 0.0000000000 0.0000000000 0.0000000000 -511.5439151668 1.8232894776 4.8610395696
2.0792320024 4.4315125926 0.0000000000 0.0000000000 0.0000000000 -757.8942967412 1.8232894776 4.8610395696
2.0967635569 4.4424563306 0.0000000000 0.0000000000 0.0000000000 -1008.1623566420 1.8232894776 4.8610395696
2.1138278856 4.4541152111 0.0000000000 0.0000000000 0.0000000000 -1262.5961404250 1.8232894776 4.8610395696
2.1303958342 4.4664693151 0.0000000000 0.0000000000 0.0000000000 -1522.1324506434 1.8232894776 4.8610395696
2.1464390968 4.4794975357 0.0000000000 0.0000000000 0.0000000000 -1786.6848804716 1.8232894776 4.8610395696
2.1619302637 4.4931776145 0.0000000000 0.0000000000 0.0000000000 -2058.0043400687 1.8232894776 4.8610395696
2.3375511239 4.3203144944 0.0000000000 0.2152619763 -0.0142416365 -1859.2813138352 1.7877622197 4.8304440474
2.3583201919 4.3393470131 0.0000000000 0.2181869165 -0.0897896439 -2082.6791502419 1.7898413992 4.8285625712
2.3782935467 4.3591394948 0.0000000000 0.2217544287 -0.1166725952 -2310.8149801327 1.7919199345 4.8267568458
2.3974342641 4.3796689296 0.0000000000 0.2254546233 -0.1275718036 -2546.5406025485 1.7939859290 4.8250340684
2.4157069288 4.4009123736 0.0000000000 0.2296423754 -0.1422333330 -2788.3025593396 1.7960278478 4.8234024167
2.4330784176 4.4228462408 0.0000000000 0.2344629350 -0.1622484319 -3033.7234548035 1.7980352679 4.8218702977
2.4495183608 4.4454459826 0.0000000000 0.2397734385 -0.1836262696 -3282.6889193279 1.7999993078 4.8204459822
2.4649993903 4.4686859149 0.0000000000 0.2455233897 -0.2046912965 -3536.3809833191 1.8019128450 4.8191373857
2.4794972079 4.4925391193 0.0000000000 0.2518081315 -0.2257552251 -3795.6216089452 1.8037705568 4.8179519233
2.4929905026 4.5169773852 0.0000000000 0.2587296348 -0.2471985407 -4060.7319429733 1.8055688105 4.8168964030
2.5054607570 4.5419711678 0.0000000000 0.2663560165 -0.2690621109 -4331.9698818967 1.8073054453 4.8159769356
2.5168919933 4.5674895532 0.0000000000 0.2747579247 -0.2913166210 -4609.6475011962 1.8089794954 4.8151988493
2.5272705071 4.5935002235 0.0000000000 0.2840252567 -0.3139715996 -4894.0320513738 1.8105909026 4.8145666040
2.5365846211 4.6199694227 0.0000000000 0.2942616989 -0.3370463146 -5185.2792323138 1.8121402513 4.8140837062
2.5448244777 4.6468619276 0.0000000000 0.3055809049 -0.3605481328 -5483.4078583736 1.8136285435 4.8137526277
2.5519818726 4.6741410249 0.0000000000 0.3181062832 -0.3844699565 -5788.2694764492 1.8150570176 4.8135747299
2.5580501308 4.7017684983 0.0000000000 0.3319699385 -0.4087885305 -6099.5106230995 1.8164270111 4.8135501976
2.5630240170 4.7297046278 0.0000000000 0.3473101579 -0.4334613362 -6416.5368246091 1.8177398595 4.8136779845
2.5668996781 4.7579082019 0.0000000000 0.3642680145 -0.4584239748 -6738.4822468228 1.8189968302 4.8139557718
2.5696746139 4.7863365464 0.0000000000 0.3829832608 -0.4835884684 -7064.1877532022 1.8201990853 4.8143799418
2.5713476724 4.8149455692 0.0000000000 0.4035896515 -0.5088425113 -7392.1902853593 1.8213476724 4.8149455689
2.5719190682 4.8436898235 0.0000000000 0.4262099679 -0.5340497777 -7720.7256923586 1.8224435397 4.8156464275
2.5713904204 4.8725225905 0.0000000000 0.4509510732 -0.5590513527 -8047.7458358859 1.8234875726 4.8164750200
2.5697648061 4.9013959824 0.0000000000 0.4778993351 -0.5836682491 -8370.9493930741 1.8244806487 4.8174226251
2.5670468232 4.9302610698 0.0000000000 0.5071167072 -0.6077048749 -8687.8245228914 1.8254237036 4.8184793699
2.5632426569 4.9590680332 0.0000000000 0.5386376895 -0.6309532360 -8995.7006674510 1.8263178020 4.8196343276
2.5583601413 4.9877663453 0.0000000000 0.5724672985 -0.6531976198 -9291.8063134392 1.8271642072 4.8208756446
2.5524088111 5.0163049860 0.0000000000 0.6085800995 -0.6742194906 -9573.3294851478 1.8279644415 4.8221907020
2.5453999404 5.0446326934 0.0000000000 0.6469202852 -0.6938023414 -9837.4779350827 1.8287203361 4.8235663124
2.5373465649 5.0726982534 0.0000000000 0.6874027344 -0.7117362703 -10081.5362953481 1.8294340672 4.8249889567
2.5282634926 5.1004508258 0.0000000000 0.7299149447 -0.7278220707 -10302.9177618486 1.8301081812 4.8264450574
2.5181673055 5.1278403028 0.0000000000 0.7743196950 -0.7418746612 -10499.2082350196 1.8307456137 4.8279212844
2.5070763575 5.1548176895 0.0000000000 0.8204582568 -0.7537257108 -10668.2012107169 1.8313497066 4.8294048850
2.4950107739 5.1813354967 0.0000000000 0.8681539399 -0.7632253867 -10807.9224871620 1.8319242289 4.8308840253
2.4819924518 5.2073481309 0.0000000000 0.9172157384 -0.7702431858 -10916.6439074935 1.8324733990 4.8323481308
2.4680450513 5.2328122711 0.0000000000 0.9674418737 -0.7746680092 -10992.8884707385 1.8330019020 4.8337882136
2.4531939636 5.2576872244 0.0000000000 1.0186229738 -0.7764073323 -11035.4221273346 1.8335148829 4.8351971807
2.4374662382 5.2819352617 0.0000000000 1.0705451285 -0.7753867237 -11043.2563618481 1.8340179035 4.8365701224
2.4208904997 5.3055219482 0.0000000000 1.1229911109 -0.7715458625 -11015.5780582055 1.8345168879 4.8379045967
2.4034969827 5.3284165130 0.0000000000 1.1757466095 -0.7648463008 -10951.9341464028 1.8350181904 4.8392009545
2.3853181439 5.3505922651 0.0000000000 1.2285778180 -0.7552297919 -10851.3344462197 1.8355292400 4.8404627117
2.3443123610 5.3945875877 0.0000000000 1.3395049584 -0.7262848403 -10530.6991781263 1.8363511823 4.8427946547
2.3213758230 5.4161684237 0.0000000000 1.3971682422 -0.7061984576 -10300.8517068282 1.8366513947 4.8438553725
2.2976133979 5.4367291158 0.0000000000 1.4540259943 -0.6825966120 -10026.9096856756 1.8369538634 4.8448737337
2.2730601201 5.4562346787 0.0000000000 1.5098237454 -0.6555343577 -9709.5807401683 1.8372525086 4.8458481407
2.2477530632 5.4746534691 0.0000000000 1.5643157306 -0.6250757946 -9349.7005531634 1.8375419447 4.8467786104
2.2217308506 5.4919562978 0.0000000000 1.6172636261 -0.5912947597 -8948.2373710347 1.8378170638 4.8476658320
2.1950333112 5.5081162165 0.0000000000 1.6684360620 -0.5542751272 -8506.2859028150 1.8380727665 4.8485109030
2.1677013122 5.5231084411 0.0000000000 1.7176081124 -0.5141107513 -8025.0609682741 1.8383038707 4.8493152046
2.1397767073 5.5369102806 0.0000000000 1.7645605833 -0.4709064921 -7505.8954947549 1.8385051389 4.8500802856
2.1113023637 5.5495010625 0.0000000000 1.8090792644 -0.4247802255 -6950.2439510120 1.8386713859 4.8508077464
2.0823222328 5.5608620730 0.0000000000 1.8509542286 -0.3758646357 -6359.6904878633 1.8387976310 4.8514991417
2.0528814338 5.5709765214 0.0000000000 1.8899793049 -0.3243069296 -5735.9605242705 1.8388792657 4.8521559095
2.0230263280 5.5798295226 0.0000000000 1.9259519956 -0.2702659636 -5080.9352078215 1.8389122128 4.8527793232
1.9928045667 5.5874080914 0.0000000000 1.9586742301 -0.2139098641 -4396.6687942580 1.8388930602 4.8533704574
1.9622651039 5.5937011414 0.0000000000 1.9879541821 -0.1554194917 -3685.4075478036 1.8388191613 4.8539301638
1.9314581720 5.5986994889 0.0000000000 2.0136088631 -0.0949987948 -2949.6057475321 1.8386886987 4.8544590541
1.9004352213 5.6023958651 0.0000000000 2.0354667018 -0.0328831459 -2191.9338908650 1.8385007124 4.8549574954
1.8692488293 5.6047849396 0.0000000000 2.0533694317 0.0306675416 -1415.2788863260 1.8382550988 4.8554256208
1.8379525869 5.6058633587 0.0000000000 2.0671736243 0.0953908816 -622.7413145453 1.8379525870 4.8558633587
1.8066009693 5.6056297974 0.0000000000 2.0767535144 0.1610350111 182.3667582456 1.8375947001 4.8562704786
1.7752491978 5.6040850219 0.0000000000 2.0820062973 0.2273355473 996.5303666588 1.8371837071 4.8566466521
1.7439530967 5.6012319545 0.0000000000 2.0828571103 0.2939772022 1816.0630333183 1.8367225704 4.8569915197
1.7127689486 5.5970757371 0.0000000000 2.0792619619 0.3605991275 2637.1383762685 1.8362148914 4.8573047596
1.6817533478 5.5916237859 0.0000000000 2.0712062195 0.4268158003 3455.8309037838 1.8356648546 4.8575861519
1.6509630530 5.5848858370 0.0000000000 2.0586968013 0.4923333031 4268.1308296096 1.8350771685 4.8578356376
1.6204548361 5.5768739818 0.0000000000 2.0417744660 0.5568421274 5069.9935699692 1.8344570045 4.8580533700
1.5902853275 5.5676026938 0.0000000000 2.0205166461 0.6200001495 5857.3841938398 1.8338099296 4.8582397626
1.5605108562 5.5570888483 0.0000000000 1.9950333670 0.6814653763 6626.3210842311 1.8331418343 4.8583955323
1.5311872840 5.5453517365 0.0000000000 1.9654665900 0.7409073338 7372.9259780447 1.8324588526 4.8585217416
1.5023698342 5.5324130712 0.0000000000 1.9319892632 0.7980103831 8093.4672749490 1.8317672760 4.8586198349
1.4741129142 5.5182969812 0.0000000000 1.8948026605 0.8524849846 8784.4006121230 1.8310734591 4.8586916679
1.4464699325 5.5030299910 0.0000000000 1.8541338586 0.9040760789 9442.4091358309 1.8303837195 4.8587395253
1.4194931119 5.4866409802 0.0000000000 1.8102343053 0.9525586857 10064.4412193799 1.8297042307 4.8587661216
1.3932332992 5.4691611197 0.0000000000 1.7633783657 0.9977271523 10647.7428502795 1.8290409109 4.8587745819
1.3677397739 5.4506237844 0.0000000000 1.7138606175 1.0393898558 11189.8841187294 1.8283993086 4.8587684024
1.3430600614 5.4310644403 0.0000000000 1.6619918790 1.0773733922 11688.7801596666 1.8277844900 4.8587513893
1.3192397585 5.4105205077 0.0000000000 1.6080948234 1.1115316680 12142.7066571311 1.8272009373 4.8587275749
1.2743483301 5.3666375925 0.0000000000 1.4955405396 1.1679638408 12910.5981543640 1.8261412633 4.8586764139
1.2533570539 5.3433819922 0.0000000000 1.4375540623 1.1901254391 13222.9645312660 1.8256701052 4.8586575640
1.2333846104 5.3193081517 0.0000000000 1.3788749949 1.2082329649 13487.1604002613 1.8252399926 4.8586486174
1.2144644485 5.2944609894 0.0000000000 1.3198340479 1.2223107063 13703.2918978180 1.8248509866 4.8586533780
1.1966273384 5.2688864404 0.0000000000 1.2607558424 1.2324103846 13871.8100198123 1.8245021973 4.8586753221
1.1799013481 5.2426313156 0.0000000000 1.2019567493 1.2386099603 13993.5001975728 1.8241918140 4.8587175290
1.1643118690 5.2157431685 0.0000000000 1.1437428762 1.2410131297 14069.4731873242 1.8239171825 4.8587826239
1.1498816796 5.1882701774 0.0000000000 1.0864080723 1.2397491424 14101.1573800198 1.8236749162 4.8588727360
1.1366310379 5.1602610424 0.0000000000 1.0302318040 1.2349726808 14090.2922811994 1.8234610330 4.8589894741
1.1245777907 5.1317648968 0.0000000000 0.9754767550 1.2268636072 14038.9220188517 1.8232711068 4.8591339191
1.1137374900 5.1028312330 0.0000000000 0.9223860340 1.2156264037 13949.3869191079 1.8231004213 4.8593066314
1.1041235040 5.0735098378 0.0000000000 0.8711799475 1.2014891109 13824.3104914791 1.8229441159 4.8595076698
1.0957471158 5.0438507355 0.0000000000 0.8220523930 1.1847015502 13666.5787549880 1.8227973153 4.8597366205
1.0886176018 5.0139041359 0.0000000000 0.7751670480 1.1655326086 13479.3088739970 1.8226552359 4.8599926295
1.0827422879 4.9837203821 0.0000000000 0.7306536610 1.1442664101 13265.8047074296 1.8225132655 4.8602744397
1.0781265808 4.9533499004 0.0000000000 0.6886048565 1.1211972966 13029.4981964130 1.8223670157 4.8605804272
1.0747739785 4.9228431474 0.0000000000 0.6490739284 1.0966236989 12773.8774764480 1.8222123483 4.8609086386
1.0726860608 4.8922505589 0.0000000000 0.6120740768 1.0708411729 12502.4049577352 1.8220453796 4.8612568285
1.0718624675 4.8616224976 0.0000000000 0.5775794293 1.0441350634 12218.4309234243 1.8218624675 4.8616224979
1.0723008688 4.8310092033 0.0000000000 0.5455279830 1.0167733977 11925.1098739272 1.8216601876 4.8620029343
1.0739969313 4.8004607451 0.0000000000 0.5158263483 0.9890006724 11625.3273368974 1.8214353010 4.8623952545
1.0769442848 4.7700269755 0.0000000000 0.4883560089 0.9610332261 11321.6439881454 1.8211847196 4.8627964493
1.0811344896 4.7397574865 0.0000000000 0.4629804666 0.9330564496 11016.2624678237 1.8209054671 4.8632034295
1.0865570028 4.7097015669 0.0000000000 0.4395511293 0.9052217959 10711.0178338331 1.8205946367 4.8636130738
1.0931991428 4.6799081598 0.0000000000 0.4179110250 0.8776436246 10407.3785075995 1.8202493421 4.8640222755