 TITLE = "Tecplot data"
 VARIABLES = "X", "Y", "Z" "U", "V", "p", "dispX", "dispY"
 ZONE SOLUTIONTIME=11.900000, NODES=26114 , ELEMENTS=25916, DATAPACKING=POINT, ZONETYPE=FEQUADRILATERAL
0.4527639834 0.4527639835 0.0000000000 0.0180655179 0.0180655179 -664.8051040006 0.0992105929 0.0992105929
0.4527639837 -0.2543427975 0.0000000000 0.0180655179 0.0180655179 -281.6549929265 0.0992105929 0.0992105929
-0.2543427978 0.4527639833 0.0000000000 0.0180655179 0.0180655179 -224.3013927803 0.0992105929 0.0992105929
-0.2543427976 -0.2543427979 0.0000000000 0.0180655179 0.0180655179 -103.2214793096 0.0992105929 0.0992105929
0.6212661061 0.6213671755 0.0000000000 0.5731412071 -0.1152543089 -628.7413279190 0.0909360203 0.0910370895
0.6125828905 -0.4479125910 0.0000000000 0.1681760144 0.0598845531 -257.1839362717 0.0822528042 0.0824174945
-0.4486137969 0.6123405855 0.0000000000 0.8581240590 0.4782334908 9.0622162096 0.0817162892 0.0820104998
-0.4401056720 -0.4392309141 0.0000000000 0.8722863599 -0.4707504707 79.7620526575 0.0902244136 0.0910991721
1.1328064393 1.1329407064 0.0000000000 0.9871796943 -0.1110865267 -167.9785935853 0.0721462676 0.0722805345
1.1187770879 -1.0019343237 0.0000000000 1.2932800333 0.0018319582 -182.8135929398 0.0581169153 0.0587258473
-1.0039648313 1.1181979743 0.0000000000 0.9404838461 0.1525825744 44.2494811413 0.0566953408 0.0575378029
-0.9906799885 -0.9884636063 0.0000000000 0.9534448937 -0.1602286243 92.6821024574 0.0699801827 0.0721965660
4.2372356507 3.3326861726 0.0000000000 1.0818208005 -0.0577878143 -24.7087200156 0.0372356507 0.0326861726
4.2223637938 -3.2801596154 0.0000000000 1.0687127972 -0.0284151686 9.3933072383 0.0223637938 0.0198403846
20.0000000000 4.7000000000 0.0000000000 0.9994986117 -0.0019833325 0.0022786109 0.0000000000 0.0000000000
20.0000000000 -4.7000000000 0.0000000000 0.9986441994 0.0017044934 0.0030778060 0.0000000000 0.0000000000
-10.0000000000 15.0000000000 0.0000000000 1.0000000000 0.0000000000 9.4292269741 0.0000000000 0.0000000000
20.0000000000 15.0000000000 0.0000000000 1.0020387704 0.0000000000 0.0012678095 0.0000000000 0.0000000000
20.0000000000 -15.0000000000 0.0000000000 1.0013257807 0.0000000000 0.0022399469 0.0000000000 0.0000000000
-10.0000000000 -15.0000000000 0.0000000000 1.0000000000 0.0000000000 25.5621481449 0.0000000000 0.0000000000
0.4657365290 -0.2408757758 0.0000000000 0.0180655179 0.0180655179 -281.0199646293 0.0992105929 0.0992105929
0.4781964547 -0.2269331125 0.0000000000 0.0180655179 0.0180655179 -281.2064422542 0.0992105929 0.0992105929
0.4901263343 -0.2125343078 0.0000000000 0.0180655179 0.0180655179 -283.1591665522 0.0992105929 0.0992105929
0.5015094829 -0.1976994997 0.0000000000 0.0180655179 0.0180655179 -286.3091336160 0.0992105929 0.0992105929
0.5123299802 -0.1824494359 0.0000000000 0.0180655179 0.0180655179 -290.6941304099 0.0992105929 0.0992105929
0.5225726926 -0.1668054451 0.0000000000 0.0180655179 0.0180655179 -295.9823242992 0.0992105929 0.0992105929
0.5322232949 -0.1507894069 0.0000000000 0.0180655179 0.0180655179 -302.0273271100 0.0992105929 0.0992105929
0.5412682897 -0.1344237210 0.0000000000 0.0180655179 0.0180655179 -308.6656916395 0.0992105929 0.0992105929
0.5496950269 -0.1177312764 0.0000000000 0.0180655179 0.0180655179 -315.8401243037 0.0992105929 0.0992105929
0.5574917209 -0.1007354190 0.0000000000 0.0180655179 0.0180655179 -323.5354738107 0.0992105929 0.0992105929
0.5646474673 -0.0834599191 0.0000000000 0.0180655179 0.0180655179 -331.7818959599 0.0992105929 0.0992105929
0.5711522581 -0.0659289379 0.0000000000 0.0180655179 0.0180655179 -340.6202053129 0.0992105929 0.0992105929
0.5769969958 -0.0481669941 0.0000000000 0.0180655179 0.0180655179 -350.0918681475 0.0992105929 0.0992105929
0.5821735061 -0.0301989295 0.0000000000 0.0180655179 0.0180655179 -360.2297597154 0.0992105929 0.0992105929
0.5866745490 -0.0120498739 0.0000000000 0.0180655179 0.0180655179 -371.0602224101 0.0992105929 0.0992105929
0.5904938295 0.0062547895 0.0000000000 0.0180655179 0.0180655179 -382.6060965562 0.0992105929 0.0992105929
0.5936260060 0.0246894600 0.0000000000 0.0180655179 0.0180655179 -394.8895952888 0.0992105929 0.0992105929
0.5960666978 0.0432283550 0.0000000000 0.0180655179 0.0180655179 -407.9308817044 0.0992105929 0.0992105929
0.5978124915 0.0618455463 0.0000000000 0.0180655179 0.0180655179 -421.7421212618 0.0992105929 0.0992105929
0.5988609453 0.0805149959 0.0000000000 0.0180655179 0.0180655179 -436.3172327078 0.0992105929 0.0992105929
0.5992105929 0.0992105931 0.0000000000 0.0180655179 0.0180655179 -451.6193137216 0.0992105929 0.0992105929
0.5988609452 0.1179061902 0.0000000000 0.0180655179 0.0180655179 -467.5682631765 0.0992105929 0.0992105929
0.5978124914 0.1365756398 0.0000000000 0.0180655179 0.0180655179 -484.0315805101 0.0992105929 0.0992105929
0.5960666978 0.1551928311 0.0000000000 0.0180655179 0.0180655179 -500.8209838199 0.0992105929 0.0992105929
0.5936260059 0.1737317261 0.0000000000 0.0180655179 0.0180655179 -517.6966380211 0.0992105929 0.0992105929
0.5904938294 0.1921663966 0.0000000000 0.0180655179 0.0180655179 -534.3794655486 0.0992105929 0.0992105929
0.5866745489 0.2104710600 0.0000000000 0.0180655179 0.0180655179 -550.5704546689 0.0992105929 0.0992105929
0.5821735060 0.2286201156 0.0000000000 0.0180655179 0.0180655179 -565.9745992535 0.0992105929 0.0992105929
0.5769969957 0.2465881802 0.0000000000 0.0180655179 0.0180655179 -580.3260020573 0.0992105929 0.0992105929
0.5711522580 0.2643501240 0.0000000000 0.0180655179 0.0180655179 -593.4107342174 0.0992105929 0.0992105929
0.5646474671 0.2818811052 0.0000000000 0.0180655179 0.0180655179 -605.0838868079 0.0992105929 0.0992105929
0.5574917207 0.2991566051 0.0000000000 0.0180655179 0.0180655179 -615.2794068236 0.0992105929 0.0992105929
0.5496950268 0.3161524625 0.0000000000 0.0180655179 0.0180655179 -624.0107306773 0.0992105929 0.0992105929
0.5412682896 0.3328449071 0.0000000000 0.0180655179 0.0180655179 -631.3653599890 0.0992105929 0.0992105929
0.5322232947 0.3492105929 0.0000000000 0.0180655179 0.0180655179 -637.4911233270 0.0992105929 0.0992105929
0.5225726924 0.3652266312 0.0000000000 0.0180655179 0.0180655179 -642.5846489171 0.0992105929 0.0992105929
0.5123299800 0.3808706220 0.0000000000 0.0180655179 0.0180655179 -646.8703149426 0.0992105929 0.0992105929
0.5015094827 0.3961206857 0.0000000000 0.0180655179 0.0180655179 -650.5982343919 0.0992105929 0.0992105929
0.4901263340 0.4109554938 0.0000000000 0.0180655179 0.0180655179 -654.0102309685 0.0992105929 0.0992105929
0.4781964544 0.4253542985 0.0000000000 0.0180655179 0.0180655179 -657.3734401054 0.0992105929 0.0992105929
0.4657365287 0.4392969618 0.0000000000 0.0180655179 0.0180655179 -660.8712874473 0.0992105929 0.0992105929
0.4378513786 0.4670725482 0.0000000000 0.0180655179 0.0180655179 -669.6637560742 0.0992105929 0.0992105929
0.4223602117 0.4807526270 0.0000000000 0.0180655179 0.0180655179 -675.4006196650 0.0992105929 0.0992105929
0.4063169492 0.4937808476 0.0000000000 0.0180655179 0.0180655179 -681.9183592869 0.0992105929 0.0992105929
0.3897490005 0.5061349515 0.0000000000 0.0180655179 0.0180655179 -689.3053283104 0.0992105929 0.0992105929
0.3726846719 0.5177938320 0.0000000000 0.0180655179 0.0180655179 -697.4954116296 0.0992105929 0.0992105929
0.3551531173 0.5287375701 0.0000000000 0.0180655179 0.0180655179 -706.4761526979 0.0992105929 0.0992105929
0.3371842893 0.5389474685 0.0000000000 0.0180655179 0.0180655179 -716.1977664771 0.0992105929 0.0992105929
0.3188088872 0.5484060838 0.0000000000 0.0180655179 0.0180655179 -726.6224405033 0.0992105929 0.0992105929
0.3000583051 0.5570972562 0.0000000000 0.0180655179 0.0180655179 -737.6823908817 0.0992105929 0.0992105929
0.2809645781 0.5650061369 0.0000000000 0.0180655179 0.0180655179 -749.2824267811 0.0992105929 0.0992105929
0.2615603274 0.5721192137 0.0000000000 0.0180655179 0.0180655179 -761.2799433615 0.0992105929 0.0992105929
0.2418787049 0.5784243341 0.0000000000 0.0180655179 0.0180655179 -773.4833987602 0.0992105929 0.0992105929
0.2219533363 0.5839107258 0.0000000000 0.0180655179 0.0180655179 -785.6472357132 0.0992105929 0.0992105929
0.2018182639 0.5885690155 0.0000000000 0.0180655179 0.0180655179 -797.4747983660 0.0992105929 0.0992105929
0.1815078879 0.5923912446 0.0000000000 0.0180655179 0.0180655179 -808.6222104987 0.0992105929 0.0992105929
0.1610569084 0.5953708827 0.0000000000 0.0180655179 0.0180655179 -818.7066196107 0.0992105929 0.0992105929
0.1405002655 0.5975028394 0.0000000000 0.0180655179 0.0180655179 -827.3164648137 0.0992105929 0.0992105929
0.1198730799 0.5987834721 0.0000000000 0.0180655179 0.0180655179 -834.0242471150 0.0992105929 0.0992105929
0.0992105928 0.5992105929 0.0000000000 0.0180655179 0.0180655179 -838.4004222409 0.0992105929 0.0992105929
0.0785481056 0.5987834720 0.0000000000 0.0180655179 0.0180655179 -840.0278066792 0.0992105929 0.0992105929
0.0579209200 0.5975028393 0.0000000000 0.0180655179 0.0180655179 -838.5154355383 0.0992105929 0.0992105929
0.0373642771 0.5953708827 0.0000000000 0.0180655179 0.0180655179 -833.5111683319 0.0992105929 0.0992105929
0.0169132976 0.5923912445 0.0000000000 0.0180655179 0.0180655179 -824.7123987239 0.0992105929 0.0992105929
-0.0033970784 0.5885690155 0.0000000000 0.0180655179 0.0180655179 -811.8745078703 0.0992105929 0.0992105929
-0.0235321508 0.5839107258 0.0000000000 0.0180655179 0.0180655179 -794.8168879536 0.0992105929 0.0992105929
-0.0434575194 0.5784243340 0.0000000000 0.0180655179 0.0180655179 -773.4265710136 0.0992105929 0.0992105929
-0.0631391419 0.5721192137 0.0000000000 0.0180655179 0.0180655179 -747.6596395172 0.0992105929 0.0992105929
-0.0825433925 0.5650061368 0.0000000000 0.0180655179 0.0180655179 -717.5406988472 0.0992105929 0.0992105929
-0.1016371196 0.5570972561 0.0000000000 0.0180655179 0.0180655179 -683.1607425740 0.0992105929 0.0992105929
-0.1203877017 0.5484060837 0.0000000000 0.0180655179 0.0180655179 -644.6737543103 0.0992105929 0.0992105929
-0.1387631038 0.5389474684 0.0000000000 0.0180655179 0.0180655179 -602.2923703170 0.0992105929 0.0992105929
-0.1567319318 0.5287375700 0.0000000000 0.0180655179 0.0180655179 -556.2828860946 0.0992105929 0.0992105929
-0.1742634863 0.5177938319 0.0000000000 0.0180655179 0.0180655179 -506.9598357704 0.0992105929 0.0992105929
-0.1913278150 0.5061349514 0.0000000000 0.0180655179 0.0180655179 -454.6803140194 0.0992105929 0.0992105929
-0.2078957636 0.4937808475 0.0000000000 0.0180655179 0.0180655179 -399.8381547735 0.0992105929 0.0992105929
-0.2239390262 0.4807526269 0.0000000000 0.0180655179 0.0180655179 -342.8580378753 0.0992105929 0.0992105929
-0.2394301931 0.4670725481 0.0000000000 0.0180655179 0.0180655179 -284.1895710876 0.0992105929 0.0992105929
-0.2686513626 0.4378513786 0.0000000000 0.0180655179 0.0180655179 -163.6753548550 0.0992105929 0.0992105929
-0.2823314413 0.4223602117 0.0000000000 0.0180655179 0.0180655179 -102.8008634401 0.0992105929 0.0992105929
-0.2953596619 0.4063169491 0.0000000000 0.0180655179 0.0180655179 -42.1694620629 0.0992105929 0.0992105929
-0.3077137659 0.3897490004 0.0000000000 0.0180655179 0.0180655179 17.7302704162 0.0992105929 0.0992105929
-0.3193726464 0.3726846718 0.0000000000 0.0180655179 0.0180655179 76.4174649122 0.0992105929 0.0992105929
-0.3303163844 0.3551531173 0.0000000000 0.0180655179 0.0180655179 133.4233446190 0.0992105929 0.0992105929
-0.3405262828 0.3371842892 0.0000000000 0.0180655179 0.0180655179 188.2952689562 0.0992105929 0.0992105929
-0.3499848982 0.3188088871 0.0000000000 0.0180655179 0.0180655179 240.6004774418 0.0992105929 0.0992105929
-0.3586760705 0.3000583050 0.0000000000 0.0180655179 0.0180655179 289.9295706177 0.0992105929 0.0992105929
-0.3665849512 0.2809645780 0.0000000000 0.0180655179 0.0180655179 335.8997533075 0.0992105929 0.0992105929
-0.3736980281 0.2615603273 0.0000000000 0.0180655179 0.0180655179 378.1578500919 0.0992105929 0.0992105929
-0.3800031484 0.2418787048 0.0000000000 0.0180655179 0.0180655179 416.3830893543 0.0992105929 0.0992105929
-0.3854895402 0.2219533362 0.0000000000 0.0180655179 0.0180655179 450.2896431203 0.0992105929 0.0992105929
-0.3901478298 0.2018182638 0.0000000000 0.0180655179 0.0180655179 479.6289054337 0.0992105929 0.0992105929
-0.3939700589 0.1815078878 0.0000000000 0.0180655179 0.0180655179 504.1914911566 0.0992105929 0.0992105929
-0.3969496970 0.1610569083 0.0000000000 0.0180655179 0.0180655179 523.8089385160 0.0992105929 0.0992105929
-0.3990816537 0.1405002654 0.0000000000 0.0180655179 0.0180655179 538.3551013863 0.0992105929 0.0992105929
-0.4003622863 0.1198730798 0.0000000000 0.0180655179 0.0180655179 547.7472204574 0.0992105929 0.0992105929
-0.4007894071 0.0992105927 0.0000000000 0.0180655179 0.0180655179 551.9466656825 0.0992105929 0.0992105929
-0.4003622863 0.0785481055 0.0000000000 0.0180655179 0.0180655179 550.9593454671 0.0992105929 0.0992105929
-0.3990816536 0.0579209199 0.0000000000 0.0180655179 0.0180655179 544.8357807267 0.0992105929 0.0992105929
-0.3969496970 0.0373642770 0.0000000000 0.0180655179 0.0180655179 533.6708440645 0.0992105929 0.0992105929
-0.3939700588 0.0169132975 0.0000000000 0.0180655179 0.0180655179 517.6031657564 0.0992105929 0.0992105929
-0.3901478298 -0.0033970785 0.0000000000 0.0180655179 0.0180655179 496.8142089600 0.0992105929 0.0992105929
-0.3854895401 -0.0235321509 0.0000000000 0.0180655179 0.0180655179 471.5270166120 0.0992105929 0.0992105929
-0.3800031483 -0.0434575195 0.0000000000 0.0180655179 0.0180655179 442.0046319789 0.0992105929 0.0992105929
-0.3736980279 -0.0631391420 0.0000000000 0.0180655179 0.0180655179 408.5481939358 0.0992105929 0.0992105929
-0.3665849511 -0.0825433926 0.0000000000 0.0180655179 0.0180655179 371.4947069164 0.0992105929 0.0992105929
-0.3586760704 -0.1016371197 0.0000000000 0.0180655179 0.0180655179 331.2144841885 0.0992105929 0.0992105929
-0.3499848980 -0.1203877018 0.0000000000 0.0180655179 0.0180655179 288.1082616994 0.0992105929 0.0992105929
-0.3405262826 -0.1387631039 0.0000000000 0.0180655179 0.0180655179 242.6039781455 0.0992105929 0.0992105929
-0.3303163842 -0.1567319319 0.0000000000 0.0180655179 0.0180655179 195.1532151185 0.0992105929 0.0992105929
-0.3193726461 -0.1742634864 0.0000000000 0.0180655179 0.0180655179 146.2272891532 0.0992105929 0.0992105929
-0.3077137656 -0.1913278150 0.0000000000 0.0180655179 0.0180655179 96.3129853250 0.0992105929 0.0992105929
-0.2953596617 -0.2078957637 0.0000000000 0.0180655179 0.0180655179 45.9079199936 0.0992105929 0.0992105929
-0.2823314411 -0.2239390263 0.0000000000 0.0180655179 0.0180655179 -4.4844812215 0.0992105929 0.0992105929
-0.2686513623 -0.2394301931 0.0000000000 0.0180655179 0.0180655179 -54.3604043872 0.0992105929 0.0992105929
-0.2394301928 -0.2686513627 0.0000000000 0.0180655179 0.0180655179 -150.5810293626 0.0992105929 0.0992105929
-0.2239390259 -0.2823314414 0.0000000000 0.0180655179 0.0180655179 -195.9707351392 0.0992105929 0.0992105929
-0.2078957633 -0.2953596620 0.0000000000 0.0180655179 0.0180655179 -238.9476903266 0.0992105929 0.0992105929
-0.1913278146 -0.3077137659 0.0000000000 0.0180655179 0.0180655179 -279.1018014943 0.0992105929 0.0992105929
-0.1742634860 -0.3193726464 0.0000000000 0.0180655179 0.0180655179 -316.0634457539 0.0992105929 0.0992105929
-0.1567319315 -0.3303163845 0.0000000000 0.0180655179 0.0180655179 -349.5112499810 0.0992105929 0.0992105929
-0.1387631034 -0.3405262829 0.0000000000 0.0180655179 0.0180655179 -379.1797921353 0.0992105929 0.0992105929
-0.1203877013 -0.3499848982 0.0000000000 0.0180655179 0.0180655179 -404.8669506602 0.0992105929 0.0992105929
-0.1016371192 -0.3586760706 0.0000000000 0.0180655179 0.0180655179 -426.4405464412 0.0992105929 0.0992105929
-0.0825433922 -0.3665849513 0.0000000000 0.0180655179 0.0180655179 -443.8438415503 0.0992105929 0.0992105929
-0.0631391415 -0.3736980281 0.0000000000 0.0180655179 0.0180655179 -457.0993927610 0.0992105929 0.0992105929
-0.0434575190 -0.3800031485 0.0000000000 0.0180655179 0.0180655179 -466.3107224603 0.0992105929 0.0992105929
-0.0235321504 -0.3854895402 0.0000000000 0.0180655179 0.0180655179 -471.6612851084 0.0992105929 0.0992105929
-0.0033970780 -0.3901478299 0.0000000000 0.0180655179 0.0180655179 -473.4102927422 0.0992105929 0.0992105929
0.0169132980 -0.3939700589 0.0000000000 0.0180655179 0.0180655179 -471.8851328487 0.0992105929 0.0992105929
0.0373642775 -0.3969496971 0.0000000000 0.0180655179 0.0180655179 -467.4703666099 0.0992105929 0.0992105929
0.0579209204 -0.3990816537 0.0000000000 0.0180655179 0.0180655179 -460.5936225389 0.0992105929 0.0992105929
0.0785481060 -0.4003622864 0.0000000000 0.0180655179 0.0180655179 -451.7090567706 0.0992105929 0.0992105929
0.0992105932 -0.4007894071 0.0000000000 0.0180655179 0.0180655179 -441.2793938139 0.0992105929 0.0992105929
0.1198730803 -0.4003622863 0.0000000000 0.0180655179 0.0180655179 -429.7578011328 0.0992105929 0.0992105929
0.1405002659 -0.3990816536 0.0000000000 0.0180655179 0.0180655179 -417.5709797323 0.0992105929 0.0992105929
0.1610569088 -0.3969496970 0.0000000000 0.0180655179 0.0180655179 -405.1047469026 0.0992105929 0.0992105929
0.1815078883 -0.3939700588 0.0000000000 0.0180655179 0.0180655179 -392.6932470205 0.0992105929 0.0992105929
0.2018182643 -0.3901478297 0.0000000000 0.0180655179 0.0180655179 -380.6123890658 0.0992105929 0.0992105929
0.2219533367 -0.3854895400 0.0000000000 0.0180655179 0.0180655179 -369.0778958537 0.0992105929 0.0992105929
0.2418787053 -0.3800031483 0.0000000000 0.0180655179 0.0180655179 -358.2467930808 0.0992105929 0.0992105929
0.2615603278 -0.3736980279 0.0000000000 0.0180655179 0.0180655179 -348.2213674337 0.0992105929 0.0992105929
0.2809645784 -0.3665849511 0.0000000000 0.0180655179 0.0180655179 -339.0507879390 0.0992105929 0.0992105929
0.3000583055 -0.3586760703 0.0000000000 0.0180655179 0.0180655179 -330.7321311109 0.0992105929 0.0992105929
0.3188088876 -0.3499848979 0.0000000000 0.0180655179 0.0180655179 -323.2039138735 0.0992105929 0.0992105929
0.3371842897 -0.3405262826 0.0000000000 0.0180655179 0.0180655179 -316.3565276330 0.0992105929 0.0992105929
0.3551531177 -0.3303163842 0.0000000000 0.0180655179 0.0180655179 -310.0336746404 0.0992105929 0.0992105929
0.3726846722 -0.3193726461 0.0000000000 0.0180655179 0.0180655179 -304.1083039557 0.0992105929 0.0992105929
0.3897490008 -0.3077137656 0.0000000000 0.0180655179 0.0180655179 -298.4643679047 0.0992105929 0.0992105929
0.4063169495 -0.2953596616 0.0000000000 0.0180655179 0.0180655179 -293.2137682737 0.0992105929 0.0992105929
0.4223602121 -0.2823314410 0.0000000000 0.0180655179 0.0180655179 -288.3859655813 0.0992105929 0.0992105929
0.4378513789 -0.2686513622 0.0000000000 0.0180655179 0.0180655179 -284.6255171825 0.0992105929 0.0992105929
0.6323926682 -0.4280140495 0.0000000000 0.1009357136 0.0673138619 -252.4926928029 0.0826037640 0.0821155034
0.6514546816 -0.4073761474 0.0000000000 0.0510718303 0.0682871242 -248.6496395925 0.0829758889 0.0818394106
0.6697407829 -0.3860266269 0.0000000000 0.0213038735 0.0598961845 -246.2594349577 0.0833671708 0.0815907241
0.6872238319 -0.3639943386 0.0000000000 0.0113009607 0.0405315243 -245.6831459017 0.0837754968 0.0813708002
0.7038777423 -0.3413092069 0.0000000000 0.0170746175 0.0107950239 -246.9047542056 0.0841986613 0.0811808362
0.7196775270 -0.3180021923 0.0000000000 0.0322483944 -0.0266668041 -249.6333637636 0.0846343773 0.0810218647
0.7345993423 -0.2941052521 0.0000000000 0.0503098358 -0.0682007755 -253.5503601185 0.0850802892 0.0808947475
0.7486205302 -0.2696512994 0.0000000000 0.0662725739 -0.1102278989 -258.4788221651 0.0855339849 0.0808001714
0.7617196603 -0.2446741591 0.0000000000 0.0770819001 -0.1498160839 -264.3884580028 0.0859930092 0.0807386448
0.7738765689 -0.2192085232 0.0000000000 0.0812442374 -0.1848224580 -271.3227247413 0.0864548769 0.0807104947
0.7850723974 -0.1932899028 0.0000000000 0.0783603772 -0.2138995593 -279.3410031202 0.0869170858 0.0807158651
0.7952896285 -0.1669545797 0.0000000000 0.0688139805 -0.2364762667 -288.4982216289 0.0873771306 0.0807547164
0.8045121207 -0.1402395547 0.0000000000 0.0535534664 -0.2526584582 -298.8486099648 0.0878325162 0.0808268257
0.8127251408 -0.1131824958 0.0000000000 0.0338838219 -0.2630152681 -310.4576809367 0.0882807709 0.0809317877
0.8199153941 -0.0858216829 0.0000000000 0.0112676811 -0.2683120302 -323.4104406362 0.0887194599 0.0810690172
0.8260710532 -0.0581959529 0.0000000000 -0.0128241694 -0.2692885416 -337.8087312537 0.0891461982 0.0812377521
0.8311817833 -0.0303446417 0.0000000000 -0.0369918310 -0.2665414873 -353.7563673947 0.0895586635 0.0814370576
0.8352387665 -0.0023075258 0.0000000000 -0.0599296683 -0.2605078228 -371.3350725848 0.0899546090 0.0816658309
0.8382347228 0.0258752378 0.0000000000 -0.0804262199 -0.2515098253 -390.5758260205 0.0903318749 0.0819228077
0.8401639290 0.0541631728 0.0000000000 -0.0973680679 -0.2398202798 -411.4299153878 0.0906884004 0.0822065682
0.8410222350 0.0825155456 0.0000000000 -0.1097610040 -0.2257211869 -433.7434373303 0.0910222350 0.0825155453
0.8408070774 0.1108914286 0.0000000000 -0.1167693661 -0.2095448907 -457.2390996033 0.0913315488 0.0828480326
0.8395174903 0.1392497640 0.0000000000 -0.1177669440 -0.1916958666 -481.5096200220 0.0916146425 0.0832021936
0.8371541140 0.1675494290 0.0000000000 -0.1123893580 -0.1726551989 -506.0268190850 0.0918699566 0.0835760717
0.8337191998 0.1957493003 0.0000000000 -0.1005767706 -0.1529708277 -530.1688966723 0.0920960801 0.0839676004
0.8292166132 0.2238083201 0.0000000000 -0.0825964351 -0.1332370156 -553.2652815386 0.0922917583 0.0843746145
0.8236518335 0.2516855624 0.0000000000 -0.0590367752 -0.1140669484 -574.6545121106 0.0924558994 0.0847948617
0.8170319505 0.2793402987 0.0000000000 -0.0307683360 -0.0960628994 -593.7470259943 0.0925875809 0.0852260147
0.8093656590 0.3067320646 0.0000000000 0.0011283082 -0.0797886076 -610.0827486095 0.0926860547 0.0856656836
0.8006632491 0.3338207256 0.0000000000 0.0354627326 -0.0657480665 -623.3738060605 0.0927507514 0.0861114289
0.7909365952 0.3605665432 0.0000000000 0.0710548103 -0.0543733493 -633.5256021015 0.0927812838 0.0865607747
0.7801991407 0.3869302404 0.0000000000 0.1068674040 -0.0460210209 -640.6340760560 0.0927774488 0.0870112220
0.7684658805 0.4128730666 0.0000000000 0.1421489717 -0.0409720766 -644.9617140032 0.0927392296 0.0874602621
0.7557533405 0.4383568619 0.0000000000 0.1765876756 -0.0394250860 -646.8982477597 0.0926667955 0.0879053906
0.7420795542 0.4633441207 0.0000000000 0.2104718275 -0.0414690144 -646.9130682308 0.0925605014 0.0883441206
0.7274640361 0.4877980542 0.0000000000 0.2448236368 -0.0470260015 -645.5055047757 0.0924208867 0.0887739967
0.7119277529 0.5116826518 0.0000000000 0.2814291704 -0.0557702252 -643.1575326551 0.0922486722 0.0891926081
0.6954930916 0.5349627412 0.0000000000 0.3226610280 -0.0670548037 -640.2926057208 0.0920447568 0.0895976020
0.6781838249 0.5576040478 0.0000000000 0.3710331467 -0.0798979883 -637.2448601525 0.0918102131 0.0899866964
0.6600250740 0.5795732514 0.0000000000 0.4285576463 -0.0930680728 -634.2441446397 0.0915462817 0.0903576929
0.6410432688 0.6008380424 0.0000000000 0.4961223349 -0.1052568327 -631.4182338065 0.0912543650 0.0907084890
0.5985165904 0.6431651908 0.0000000000 0.6667418096 -0.1227419731 -626.1998728814 0.0905554118 0.0913722578
0.5748715225 0.6639887209 0.0000000000 0.7654613663 -0.1255772696 -623.7630323934 0.0901470942 0.0916756697
0.5503732864 0.6838005680 0.0000000000 0.8645681418 -0.1235226326 -621.4129951994 0.0897137520 0.0919451859
0.5250658531 0.7025654297 0.0000000000 0.9596535807 -0.1166339391 -619.0663165246 0.0892582417 0.0921788917
0.4989946914 0.7202499694 0.0000000000 1.0470825664 -0.1052930725 -616.6195198928 0.0887835729 0.0923751107
0.4722066756 0.7368228827 0.0000000000 1.1243002679 -0.0901024589 -613.9726866459 0.0882928888 0.0925324169
0.4447499903 0.7522549588 0.0000000000 1.1899210613 -0.0717819207 -611.0375714966 0.0877894456 0.0926496453
0.4166740322 0.7665191372 0.0000000000 1.2436396096 -0.0510642580 -607.7395859074 0.0872765906 0.0927259007
0.3880293085 0.7795905594 0.0000000000 1.2860120117 -0.0286111661 -604.0138853809 0.0867577401 0.0927605643
0.3588673344 0.7914466155 0.0000000000 1.3181717775 -0.0049620855 -599.7982340067 0.0862363566 0.0927532994
0.3292405272 0.8020669853 0.0000000000 1.3415450352 0.0194824363 -595.0253914067 0.0857159254 0.0927040540
0.2992020994 0.8114336746 0.0000000000 1.3576124227 0.0444500346 -589.6169821140 0.0851999313 0.0926130627
0.2688059499 0.8195310455 0.0000000000 1.3677411571 0.0697693582 -583.4799568081 0.0846918347 0.0924808460
0.2381065547 0.8263458416 0.0000000000 1.3730893829 0.0953369152 -576.5060438280 0.0841950482 0.0923082076
0.2071588555 0.8318672077 0.0000000000 1.3745709110 0.1210856635 -568.5739909740 0.0837129129 0.0920962302
0.1760181492 0.8360867036 0.0000000000 1.3728624675 0.1469597018 -559.5539584062 0.0832486759 0.0918462688
0.1447399763 0.8389983128 0.0000000000 1.3684356599 0.1728965260 -549.3132067890 0.0828054673 0.0915599430
0.1133800095 0.8405984452 0.0000000000 1.3615993812 0.1988164131 -537.7222305808 0.0823862789 0.0912391264
0.0819939428 0.8408859346 0.0000000000 1.3525429834 0.2246175422 -524.6606477117 0.0819939429 0.0908859346
0.0506373813 0.8398620308 0.0000000000 1.3413747568 0.2501752332 -510.0223839948 0.0816311122 0.0905027120
0.0193657321 0.8375303859 0.0000000000 1.3281534038 0.2753438431 -493.7199095295 0.0813002413 0.0900920161
-0.0117659043 0.8338970355 0.0000000000 1.3129121902 0.2999601937 -475.6874540331 0.0810035693 0.0896566007
-0.0427028395 0.8289703750 0.0000000000 1.2956765171 0.3238477382 -455.8832377518 0.0807431033 0.0891993974
-0.0733909027 0.8227611302 0.0000000000 1.2764760803 0.3468209568 -434.2908125652 0.0805206041 0.0887234963
-0.1037765423 0.8152823240 0.0000000000 1.2553528192 0.3686896765 -410.9196296678 0.0803375732 0.0882321246
-0.1338069267 0.8065492367 0.0000000000 1.2323657247 0.3892631440 -385.8049508756 0.0801952417 0.0877286249
-0.1634300411 0.7965793635 0.0000000000 1.2075933662 0.4083537659 -359.0072114121 0.0800945610 0.0872164323
-0.1925947826 0.7853923667 0.0000000000 1.1811347980 0.4257804764 -330.6109298174 0.0800361955 0.0866990507
-0.2212510515 0.7730100233 0.0000000000 1.1531093322 0.4413717219 -300.7232488275 0.0800205172 0.0861800283
-0.2493498396 0.7594561695 0.0000000000 1.1236555291 0.4549680628 -269.4721809053 0.0800476023 0.0856629332
-0.2768433150 0.7447566412 0.0000000000 1.0929296566 0.4664244035 -237.0046236559 0.0801172300 0.0851513279
-0.3036849035 0.7289392105 0.0000000000 1.0611037960 0.4756118619 -203.4842032399 0.0802288835 0.0846487449
-0.3298293659 0.7120335198 0.0000000000 1.0283637243 0.4824192946 -169.0889976636 0.0803817529 0.0841586612
-0.3552328715 0.6940710118 0.0000000000 0.9949066639 0.4867544954 -134.0091860772 0.0805747403 0.0836844740
-0.3798530679 0.6750848581 0.0000000000 0.9609389699 0.4885450842 -98.4446647167 0.0808064668 0.0832294762
-0.4036491464 0.6551098843 0.0000000000 0.9266738067 0.4877391068 -62.6026647516 0.0810752821 0.0827968333
-0.4265819033 0.6341824930 0.0000000000 0.8923288519 0.4843053643 -26.6954020425 0.0813792756 0.0823895602
-0.4697090005 0.5896234812 0.0000000000 0.8242794996 0.4695337994 44.4548075241 0.0820839326 0.0816623026
-0.4898334511 0.5660718354 0.0000000000 0.7910133001 0.4582369150 79.2686363565 0.0824796002 0.0813474072
-0.5089548935 0.5417275571 0.0000000000 0.7585396853 0.4443932110 113.2936287691 0.0829004887 0.0810680228
-0.5270429206 0.5166337242 0.0000000000 0.7270671343 0.4280720720 146.3252676304 0.0833436175 0.0808261128
-0.5440690094 0.4908344995 0.0000000000 0.6967966535 0.4093610015 178.1663573584 0.0838058494 0.0806233811
-0.5600065529 0.4643750453 0.0000000000 0.6679201750 0.3883645981 208.6286480351 0.0842839130 0.0804612587
-0.5748308875 0.4373014385 0.0000000000 0.6406190865 0.3652034231 237.5343103100 0.0847744261 0.0803408939
-0.5885193172 0.4096605851 0.0000000000 0.6150629033 0.3400127818 264.7172555849 0.0852739193 0.0802631437
-0.6010511336 0.3815001354 0.0000000000 0.5914080925 0.3129414362 290.0243003581 0.0857788615 0.0802285671
-0.6124076315 0.3528683990 0.0000000000 0.5697970528 0.2841502618 313.3161779916 0.0862856847 0.0802374213
-0.6225721220 0.3238142612 0.0000000000 0.5503572491 0.2538108589 334.4684037713 0.0867908094 0.0802896596
-0.6315299411 0.2943870993 0.0000000000 0.5332004938 0.2221041278 353.3719991208 0.0872906709 0.0803849314
-0.6392684554 0.2646367000 0.0000000000 0.5184223723 0.1892188205 369.9340795937 0.0877817442 0.0805225849
-0.6457770644 0.2346131782 0.0000000000 0.5061018183 0.1553500792 384.0783113061 0.0882605696 0.0807016718
-0.6510471999 0.2043668964 0.0000000000 0.4963008503 0.1206979703 395.7452425274 0.0887237777 0.0809209539
-0.6550723221 0.1739483853 0.0000000000 0.4890644704 0.0854660038 404.8925171222 0.0891681127 0.0811789121
-0.6578479131 0.1434082662 0.0000000000 0.4844206926 0.0498596343 411.4949698775 0.0895904567 0.0814737573
-0.6593714678 0.1127971741 0.0000000000 0.4823806404 0.0140847488 415.5445947962 0.0899878510 0.0818034437
-0.6596424822 0.0821656828 0.0000000000 0.4829386656 -0.0216538253 417.0503753388 0.0903575178 0.0821656831
-0.6586624394 0.0515642308 0.0000000000 0.4860724991 -0.0571537570 416.0379865390 0.0906968793 0.0825579618
-0.6564347932 0.0210430492 0.0000000000 0.4917434626 -0.0922165727 412.5493861422 0.0910035765 0.0829775586
-0.6529649496 -0.0093479092 0.0000000000 0.4998967650 -0.1266489346 406.6423115943 0.0912754852 0.0834215645
-0.6482602467 -0.0395590394 0.0000000000 0.5104619263 -0.1602638388 398.3897043401 0.0915107308 0.0838869036
-0.6423299322 -0.0695411519 0.0000000000 0.5233533591 -0.1928817529 387.8790712364 0.0917077017 0.0843703551
-0.6351851396 -0.0992455391 0.0000000000 0.5384711103 -0.2243317169 375.2117808850 0.0918650598 0.0848685766
-0.6268388622 -0.1286240407 0.0000000000 0.5557017400 -0.2544524179 360.5022847511 0.0919817496 0.0853781278