 TITLE = "Tecplot data"
 VARIABLES = "X", "Y", "Z" "U", "V", "p", "dispX", "dispY"
 ZONE SOLUTIONTIME=150.900000, NODES=26114 , ELEMENTS=25916, DATAPACKING=POINT, ZONETYPE=FEQUADRILATERAL
2.7901202224 -6.8354236246 0.0000000000 0.0000000000 0.0000000000 -9287.5299464327 2.4365668318 -7.1889770153
2.7901202227 -7.5425304056 0.0000000000 0.0000000000 0.0000000000 -512.1777375297 2.4365668318 -7.1889770153
2.0830134411 -6.8354236248 0.0000000000 0.0000000000 0.0000000000 11736.8410067022 2.4365668318 -7.1889770153
2.0830134414 -7.5425304060 0.0000000000 0.0000000000 0.0000000000 3650.1139988306 2.4365668318 -7.1889770153
2.9387716090 -6.6309168717 0.0000000000 0.8816380034 -0.5242649240 -4883.2996777936 2.4084415231 -7.1612469576
2.9842877060 -7.6859703267 0.0000000000 0.0830819771 0.2214577672 -535.1670186340 2.4539576197 -7.1556402412
1.8910770818 -6.6599158573 0.0000000000 0.9463026205 0.2519435631 6500.4391206261 2.4214071679 -7.1902459431
1.9088607591 -7.7192168558 0.0000000000 0.2288819979 -0.4289209845 3500.0434823341 2.4391908447 -7.1888867697
3.3128922418 -5.9217127702 0.0000000000 0.8329402835 -0.5284825976 -1032.5681019838 2.2522320701 -6.9823729421
3.5956461791 -8.0214788472 0.0000000000 0.3345451471 -0.4100437762 -208.4438415904 2.5349860065 -6.9608186762
1.2860690233 -6.1232093905 0.0000000000 0.8528663203 -0.0674488826 3184.4778808163 2.3467291954 -7.1838695620
1.3995827979 -8.2390531461 0.0000000000 0.5649369733 -0.5318451133 2828.3369482717 2.4602429691 -7.1783929738
5.7156529906 -2.6165027467 0.0000000000 0.6580608681 0.0396861357 670.5672477563 1.5156529906 -5.9165027467
7.1374755066 -9.1975227116 0.0000000000 1.1511361348 -0.2780561378 488.2268168803 2.9374755066 -5.8975227116
20.0000000000 4.7000000000 0.0000000000 1.0087286034 0.5120474631 -0.2358556780 0.0000000000 0.0000000000
20.0000000000 -4.7000000000 0.0000000000 0.5896473151 -0.0412191599 -6.7103085092 0.0000000000 0.0000000000
-10.0000000000 15.0000000000 0.0000000000 1.0000000000 0.0000000000 1387.4248897629 0.0000000000 0.0000000000
20.0000000000 15.0000000000 0.0000000000 1.8882180658 0.0000000000 -0.3297628423 0.0000000000 0.0000000000
20.0000000000 -15.0000000000 0.0000000000 1.8318102819 0.0000000000 -0.1183794143 0.0000000000 0.0000000000
-10.0000000000 -15.0000000000 0.0000000000 1.0000000000 0.0000000000 1835.3537568387 0.0000000000 0.0000000000
2.8030927680 -7.5290633839 0.0000000000 0.0000000000 0.0000000000 -614.9860939951 2.4365668318 -7.1889770153
2.8155526936 -7.5151207206 0.0000000000 0.0000000000 0.0000000000 -719.2530126101 2.4365668318 -7.1889770153
2.8274825733 -7.5007219159 0.0000000000 0.0000000000 0.0000000000 -825.9264665506 2.4365668318 -7.1889770153
2.8388657219 -7.4858871078 0.0000000000 0.0000000000 0.0000000000 -934.9092082570 2.4365668318 -7.1889770153
2.8496862192 -7.4706370440 0.0000000000 0.0000000000 0.0000000000 -1046.6248889697 2.4365668318 -7.1889770153
2.8599289316 -7.4549930533 0.0000000000 0.0000000000 0.0000000000 -1161.2972923689 2.4365668318 -7.1889770153
2.8695795339 -7.4389770150 0.0000000000 0.0000000000 0.0000000000 -1279.2671974686 2.4365668318 -7.1889770153
2.8786245287 -7.4226113291 0.0000000000 0.0000000000 0.0000000000 -1400.8784230053 2.4365668318 -7.1889770153
2.8870512659 -7.4059188846 0.0000000000 0.0000000000 0.0000000000 -1526.5191950723 2.4365668318 -7.1889770153
2.8948479599 -7.3889230272 0.0000000000 0.0000000000 0.0000000000 -1656.6263071597 2.4365668318 -7.1889770153
2.9020037062 -7.3716475272 0.0000000000 0.0000000000 0.0000000000 -1791.6888821929 2.4365668318 -7.1889770153
2.9085084971 -7.3541165460 0.0000000000 0.0000000000 0.0000000000 -1932.2668298103 2.4365668318 -7.1889770153
2.9143532348 -7.3363546022 0.0000000000 0.0000000000 0.0000000000 -2079.0084574876 2.4365668318 -7.1889770153
2.9195297450 -7.3183865376 0.0000000000 0.0000000000 0.0000000000 -2232.6876192693 2.4365668318 -7.1889770153
2.9240307880 -7.3002374820 0.0000000000 0.0000000000 0.0000000000 -2394.2719369746 2.4365668318 -7.1889770153
2.9278500685 -7.2819328186 0.0000000000 0.0000000000 0.0000000000 -2565.0326913865 2.4365668318 -7.1889770153
2.9309822450 -7.2634981481 0.0000000000 0.0000000000 0.0000000000 -2746.7404179851 2.4365668318 -7.1889770153
2.9334229368 -7.2449592531 0.0000000000 0.0000000000 0.0000000000 -2941.8792786441 2.4365668318 -7.1889770153
2.9351687304 -7.2263420618 0.0000000000 0.0000000000 0.0000000000 -3153.7967121417 2.4365668318 -7.1889770153
2.9362171842 -7.2076726122 0.0000000000 0.0000000000 0.0000000000 -3386.4174680418 2.4365668318 -7.1889770153
2.9365668318 -7.1889770151 0.0000000000 0.0000000000 0.0000000000 -3643.4631068154 2.4365668318 -7.1889770153
2.9362171842 -7.1702814179 0.0000000000 0.0000000000 0.0000000000 -3927.1015304281 2.4365668318 -7.1889770153
2.9351687304 -7.1516119683 0.0000000000 0.0000000000 0.0000000000 -4236.9196899910 2.4365668318 -7.1889770153
2.9334229367 -7.1329947770 0.0000000000 0.0000000000 0.0000000000 -4569.3608961150 2.4365668318 -7.1889770153
2.9309822449 -7.1144558820 0.0000000000 0.0000000000 0.0000000000 -4918.5565025025 2.4365668318 -7.1889770153
2.9278500684 -7.0960212115 0.0000000000 0.0000000000 0.0000000000 -5277.1784961014 2.4365668318 -7.1889770153
2.9240307879 -7.0777165481 0.0000000000 0.0000000000 0.0000000000 -5638.2429361164 2.4365668318 -7.1889770153
2.9195297449 -7.0595674926 0.0000000000 0.0000000000 0.0000000000 -5995.2462234541 2.4365668318 -7.1889770153
2.9143532347 -7.0415994279 0.0000000000 0.0000000000 0.0000000000 -6343.6538417763 2.4365668318 -7.1889770153
2.9085084969 -7.0238374842 0.0000000000 0.0000000000 0.0000000000 -6679.3377670870 2.4365668318 -7.1889770153
2.9020037061 -7.0063065030 0.0000000000 0.0000000000 0.0000000000 -7000.6005880079 2.4365668318 -7.1889770153
2.8948479597 -6.9890310030 0.0000000000 0.0000000000 0.0000000000 -7304.7062058731 2.4365668318 -7.1889770153
2.8870512657 -6.9720351456 0.0000000000 0.0000000000 0.0000000000 -7592.1702103033 2.4365668318 -7.1889770153
2.8786245285 -6.9553427010 0.0000000000 0.0000000000 0.0000000000 -7860.0557445359 2.4365668318 -7.1889770153
2.8695795337 -6.9389770152 0.0000000000 0.0000000000 0.0000000000 -8111.0943231004 2.4365668318 -7.1889770153
2.8599289314 -6.9229609769 0.0000000000 0.0000000000 0.0000000000 -8340.2715111860 2.4365668318 -7.1889770153
2.8496862189 -6.9073169862 0.0000000000 0.0000000000 0.0000000000 -8553.9342853836 2.4365668318 -7.1889770153
2.8388657217 -6.8920669224 0.0000000000 0.0000000000 0.0000000000 -8741.7864261509 2.4365668318 -7.1889770153
2.8274825730 -6.8772321143 0.0000000000 0.0000000000 0.0000000000 -8918.3241078061 2.4365668318 -7.1889770153
2.8155526934 -6.8628333096 0.0000000000 0.0000000000 0.0000000000 -9059.5748057915 2.4365668318 -7.1889770153
2.8030927677 -6.8488906463 0.0000000000 0.0000000000 0.0000000000 -9204.1182700133 2.4365668318 -7.1889770153
2.7752076176 -6.8211150599 0.0000000000 0.0000000000 0.0000000000 -9387.5877903362 2.4365668318 -7.1889770153
2.7597164507 -6.8074349811 0.0000000000 0.0000000000 0.0000000000 -9448.6074035623 2.4365668318 -7.1889770153
2.7436731881 -6.7944067605 0.0000000000 0.0000000000 0.0000000000 -9476.9236506777 2.4365668318 -7.1889770153
2.7271052395 -6.7820526566 0.0000000000 0.0000000000 0.0000000000 -9474.8749095852 2.4365668318 -7.1889770153
2.7100409108 -6.7703937761 0.0000000000 0.0000000000 0.0000000000 -9437.4482806583 2.4365668318 -7.1889770153
2.6925093563 -6.7594500380 0.0000000000 0.0000000000 0.0000000000 -9365.6313373430 2.4365668318 -7.1889770153
2.6745405283 -6.7492401396 0.0000000000 0.0000000000 0.0000000000 -9256.1962813951 2.4365668318 -7.1889770153
2.6561651262 -6.7397815243 0.0000000000 0.0000000000 0.0000000000 -9108.2145461108 2.4365668318 -7.1889770153
2.6374145441 -6.7310903519 0.0000000000 0.0000000000 0.0000000000 -8919.0870116620 2.4365668318 -7.1889770153
2.6183208170 -6.7231814712 0.0000000000 0.0000000000 0.0000000000 -8686.8002532908 2.4365668318 -7.1889770153
2.5989165663 -6.7160683944 0.0000000000 0.0000000000 0.0000000000 -8408.6769559517 2.4365668318 -7.1889770153
2.5792349439 -6.7097632740 0.0000000000 0.0000000000 0.0000000000 -8082.1633770578 2.4365668318 -7.1889770153
2.5593095753 -6.7042768823 0.0000000000 0.0000000000 0.0000000000 -7704.5700925146 2.4365668318 -7.1889770153
2.5391745028 -6.6996185926 0.0000000000 0.0000000000 0.0000000000 -7273.3988924030 2.4365668318 -7.1889770153
2.5188641269 -6.6957963636 0.0000000000 0.0000000000 0.0000000000 -6786.3620820176 2.4365668318 -7.1889770153
2.4984131474 -6.6928167254 0.0000000000 0.0000000000 0.0000000000 -6241.6037804813 2.4365668318 -7.1889770153
2.4778565045 -6.6906847688 0.0000000000 0.0000000000 0.0000000000 -5637.9550048377 2.4365668318 -7.1889770153
2.4572293188 -6.6894041361 0.0000000000 0.0000000000 0.0000000000 -4975.3082466155 2.4365668318 -7.1889770153
2.4365668317 -6.6889770153 0.0000000000 0.0000000000 0.0000000000 -4254.7790882287 2.4365668318 -7.1889770153
2.4159043446 -6.6894041361 0.0000000000 0.0000000000 0.0000000000 -3478.4496208071 2.4365668318 -7.1889770153
2.3952771590 -6.6906847688 0.0000000000 0.0000000000 0.0000000000 -2648.8482160239 2.4365668318 -7.1889770153
2.3747205161 -6.6928167254 0.0000000000 0.0000000000 0.0000000000 -1768.9989052103 2.4365668318 -7.1889770153
2.3542695366 -6.6957963636 0.0000000000 0.0000000000 0.0000000000 -843.1231204730 2.4365668318 -7.1889770153
2.3339591606 -6.6996185926 0.0000000000 0.0000000000 0.0000000000 122.6771307025 2.4365668318 -7.1889770153
2.3138240881 -6.7042768823 0.0000000000 0.0000000000 0.0000000000 1120.4787742557 2.4365668318 -7.1889770153
2.2938987196 -6.7097632741 0.0000000000 0.0000000000 0.0000000000 2140.0801283860 2.4365668318 -7.1889770153
2.2742170971 -6.7160683945 0.0000000000 0.0000000000 0.0000000000 3170.0835507596 2.4365668318 -7.1889770153
2.2548128464 -6.7231814713 0.0000000000 0.0000000000 0.0000000000 4198.5444346622 2.4365668318 -7.1889770153
2.2357191194 -6.7310903520 0.0000000000 0.0000000000 0.0000000000 5213.0885547375 2.4365668318 -7.1889770153
2.2169685373 -6.7397815244 0.0000000000 0.0000000000 0.0000000000 6200.6730154596 2.4365668318 -7.1889770153
2.1985931352 -6.7492401397 0.0000000000 0.0000000000 0.0000000000 7147.6865042696 2.4365668318 -7.1889770153
2.1806243072 -6.7594500382 0.0000000000 0.0000000000 0.0000000000 8040.6155407320 2.4365668318 -7.1889770153
2.1630927526 -6.7703937762 0.0000000000 0.0000000000 0.0000000000 8867.0844764427 2.4365668318 -7.1889770153
2.1460284240 -6.7820526567 0.0000000000 0.0000000000 0.0000000000 9616.8232349068 2.4365668318 -7.1889770153
2.1294604754 -6.7944067607 0.0000000000 0.0000000000 0.0000000000 10282.2443706610 2.4365668318 -7.1889770153
2.1134172128 -6.8074349813 0.0000000000 0.0000000000 0.0000000000 10858.5450387875 2.4365668318 -7.1889770153
2.0979260459 -6.8211150600 0.0000000000 0.0000000000 0.0000000000 11343.4579570913 2.4365668318 -7.1889770153
2.0687048764 -6.8503362296 0.0000000000 0.0000000000 0.0000000000 12040.2600246839 2.4365668318 -7.1889770153
2.0550247976 -6.8658273965 0.0000000000 0.0000000000 0.0000000000 12256.6384719889 2.4365668318 -7.1889770153
2.0419965770 -6.8818706590 0.0000000000 0.0000000000 0.0000000000 12389.9820304886 2.4365668318 -7.1889770153
2.0296424731 -6.8984386077 0.0000000000 0.0000000000 0.0000000000 12445.1538664257 2.4365668318 -7.1889770153
2.0179835926 -6.9155029363 0.0000000000 0.0000000000 0.0000000000 12427.6745806114 2.4365668318 -7.1889770153
2.0070398546 -6.9330344909 0.0000000000 0.0000000000 0.0000000000 12343.5332046906 2.4365668318 -7.1889770153
1.9968299561 -6.9510033189 0.0000000000 0.0000000000 0.0000000000 12199.0091921982 2.4365668318 -7.1889770153
1.9873713408 -6.9693787210 0.0000000000 0.0000000000 0.0000000000 12000.5130733732 2.4365668318 -7.1889770153
1.9786801684 -6.9881293031 0.0000000000 0.0000000000 0.0000000000 11754.4547401935 2.4365668318 -7.1889770153
1.9707712877 -7.0072230302 0.0000000000 0.0000000000 0.0000000000 11467.1453167056 2.4365668318 -7.1889770153
1.9636582109 -7.0266272808 0.0000000000 0.0000000000 0.0000000000 11144.7340329167 2.4365668318 -7.1889770153
1.9573530905 -7.0463089033 0.0000000000 0.0000000000 0.0000000000 10793.1773272533 2.4365668318 -7.1889770153
1.9518666988 -7.0662342719 0.0000000000 0.0000000000 0.0000000000 10418.2344638388 2.4365668318 -7.1889770153
1.9472084091 -7.0863693444 0.0000000000 0.0000000000 0.0000000000 10025.4823742372 2.4365668318 -7.1889770153
1.9433861801 -7.1066797203 0.0000000000 0.0000000000 0.0000000000 9620.3419034065 2.4365668318 -7.1889770153
1.9404065419 -7.1271306998 0.0000000000 0.0000000000 0.0000000000 9208.1075996244 2.4365668318 -7.1889770153
1.9382745853 -7.1476873427 0.0000000000 0.0000000000 0.0000000000 8793.9729458426 2.4365668318 -7.1889770153
1.9369939526 -7.1683145283 0.0000000000 0.0000000000 0.0000000000 8383.0416673783 2.4365668318 -7.1889770153
1.9365668318 -7.1889770155 0.0000000000 0.0000000000 0.0000000000 7980.3126165008 2.4365668318 -7.1889770153
1.9369939526 -7.2096395026 0.0000000000 0.0000000000 0.0000000000 7590.6202313574 2.4365668318 -7.1889770153
1.9382745853 -7.2302666882 0.0000000000 0.0000000000 0.0000000000 7218.5056940428 2.4365668318 -7.1889770153
1.9404065420 -7.2508233311 0.0000000000 0.0000000000 0.0000000000 6867.9903995224 2.4365668318 -7.1889770153
1.9433861802 -7.2712743106 0.0000000000 0.0000000000 0.0000000000 6542.2343097668 2.4365668318 -7.1889770153
1.9472084092 -7.2915846866 0.0000000000 0.0000000000 0.0000000000 6243.1038766618 2.4365668318 -7.1889770153
1.9518666989 -7.3117197591 0.0000000000 0.0000000000 0.0000000000 5970.7570738531 2.4365668318 -7.1889770153
1.9573530907 -7.3316451276 0.0000000000 0.0000000000 0.0000000000 5723.4494959062 2.4365668318 -7.1889770153
1.9636582110 -7.3513267501 0.0000000000 0.0000000000 0.0000000000 5497.7862788273 2.4365668318 -7.1889770153
1.9707712879 -7.3707310008 0.0000000000 0.0000000000 0.0000000000 5289.4832729758 2.4365668318 -7.1889770153
1.9786801686 -7.3898247278 0.0000000000 0.0000000000 0.0000000000 5094.3827803119 2.4365668318 -7.1889770153
1.9873713410 -7.4085753099 0.0000000000 0.0000000000 0.0000000000 4909.2475359916 2.4365668318 -7.1889770153
1.9968299563 -7.4269507120 0.0000000000 0.0000000000 0.0000000000 4731.9970412610 2.4365668318 -7.1889770153
2.0070398548 -7.4449195400 0.0000000000 0.0000000000 0.0000000000 4561.4554197317 2.4365668318 -7.1889770153
2.0179835928 -7.4624510945 0.0000000000 0.0000000000 0.0000000000 4396.9460930416 2.4365668318 -7.1889770153
2.0296424733 -7.4795154232 0.0000000000 0.0000000000 0.0000000000 4237.9967442204 2.4365668318 -7.1889770153
2.0419965773 -7.4960833718 0.0000000000 0.0000000000 0.0000000000 4084.2043319371 2.4365668318 -7.1889770153
2.0550247979 -7.5121266344 0.0000000000 0.0000000000 0.0000000000 3935.1938809801 2.4365668318 -7.1889770153
2.0687048767 -7.5276178013 0.0000000000 0.0000000000 0.0000000000 3790.6097007410 2.4365668318 -7.1889770153
2.0979260462 -7.5568389708 0.0000000000 0.0000000000 0.0000000000 3513.3875575103 2.4365668318 -7.1889770153
2.1134172131 -7.5705190495 0.0000000000 0.0000000000 0.0000000000 3380.1311423647 2.4365668318 -7.1889770153
2.1294604757 -7.5835472701 0.0000000000 0.0000000000 0.0000000000 3250.0671215337 2.4365668318 -7.1889770153
2.1460284243 -7.5959013741 0.0000000000 0.0000000000 0.0000000000 3122.9402071779 2.4365668318 -7.1889770153
2.1630927530 -7.6075602545 0.0000000000 0.0000000000 0.0000000000 2998.5173233274 2.4365668318 -7.1889770153
2.1806243075 -7.6185039926 0.0000000000 0.0000000000 0.0000000000 2876.5863479281 2.4365668318 -7.1889770153
2.1985931355 -7.6287138910 0.0000000000 0.0000000000 0.0000000000 2756.9542045891 2.4365668318 -7.1889770153
2.2169685376 -7.6381725063 0.0000000000 0.0000000000 0.0000000000 2639.4445049040 2.4365668318 -7.1889770153
2.2357191198 -7.6468636787 0.0000000000 0.0000000000 0.0000000000 2523.8951799590 2.4365668318 -7.1889770153
2.2548128468 -7.6547725594 0.0000000000 0.0000000000 0.0000000000 2410.1562667662 2.4365668318 -7.1889770153
2.2742170975 -7.6618856362 0.0000000000 0.0000000000 0.0000000000 2298.0880374402 2.4365668318 -7.1889770153
2.2938987200 -7.6681907566 0.0000000000 0.0000000000 0.0000000000 2187.5594635159 2.4365668318 -7.1889770153
2.3138240885 -7.6736771483 0.0000000000 0.0000000000 0.0000000000 2078.4469693953 2.4365668318 -7.1889770153
2.3339591610 -7.6783354380 0.0000000000 0.0000000000 0.0000000000 1970.6333400081 2.4365668318 -7.1889770153
2.3542695370 -7.6821576670 0.0000000000 0.0000000000 0.0000000000 1864.0066783501 2.4365668318 -7.1889770153
2.3747205165 -7.6851373052 0.0000000000 0.0000000000 0.0000000000 1758.4593574537 2.4365668318 -7.1889770153
2.3952771594 -7.6872692618 0.0000000000 0.0000000000 0.0000000000 1653.8869527001 2.4365668318 -7.1889770153
2.4159043450 -7.6885498945 0.0000000000 0.0000000000 0.0000000000 1550.1872069926 2.4365668318 -7.1889770153
2.4365668321 -7.6889770153 0.0000000000 0.0000000000 0.0000000000 1447.2590052802 2.4365668318 -7.1889770153
2.4572293193 -7.6885498944 0.0000000000 0.0000000000 0.0000000000 1345.0014896339 2.4365668318 -7.1889770153
2.4778565049 -7.6872692617 0.0000000000 0.0000000000 0.0000000000 1243.3131286313 2.4365668318 -7.1889770153
2.4984131478 -7.6851373051 0.0000000000 0.0000000000 0.0000000000 1142.0911207121 2.4365668318 -7.1889770153
2.5188641273 -7.6821576669 0.0000000000 0.0000000000 0.0000000000 1041.2304303335 2.4365668318 -7.1889770153
2.5391745032 -7.6783354379 0.0000000000 0.0000000000 0.0000000000 940.6237339879 2.4365668318 -7.1889770153
2.5593095757 -7.6736771482 0.0000000000 0.0000000000 0.0000000000 840.1598956802 2.4365668318 -7.1889770153
2.5792349443 -7.6681907564 0.0000000000 0.0000000000 0.0000000000 739.7252800425 2.4365668318 -7.1889770153
2.5989165667 -7.6618856360 0.0000000000 0.0000000000 0.0000000000 639.1999922340 2.4365668318 -7.1889770153
2.6183208174 -7.6547725592 0.0000000000 0.0000000000 0.0000000000 538.4633517014 2.4365668318 -7.1889770153
2.6374145445 -7.6468636785 0.0000000000 0.0000000000 0.0000000000 437.3826087306 2.4365668318 -7.1889770153
2.6561651265 -7.6381725061 0.0000000000 0.0000000000 0.0000000000 335.8317767358 2.4365668318 -7.1889770153
2.6745405286 -7.6287138907 0.0000000000 0.0000000000 0.0000000000 233.6560507489 2.4365668318 -7.1889770153
2.6925093567 -7.6185039923 0.0000000000 0.0000000000 0.0000000000 130.7335675526 2.4365668318 -7.1889770153
2.7100409112 -7.6075602542 0.0000000000 0.0000000000 0.0000000000 26.8626220772 2.4365668318 -7.1889770153
2.7271052398 -7.5959013737 0.0000000000 0.0000000000 0.0000000000 -78.0407151867 2.4365668318 -7.1889770153
2.7436731884 -7.5835472697 0.0000000000 0.0000000000 0.0000000000 -184.2959947502 2.4365668318 -7.1889770153
2.7597164510 -7.5705190491 0.0000000000 0.0000000000 0.0000000000 -291.8424769124 2.4365668318 -7.1889770153
2.7752076179 -7.5568389704 0.0000000000 0.0000000000 0.0000000000 -401.3152236259 2.4365668318 -7.1889770153
3.0026894940 -7.6633173249 0.0000000000 0.0848786752 0.1983972194 -626.1419286468 2.4529005898 -7.1531877719
3.0202917604 -7.6399820414 0.0000000000 0.0962339683 0.1244522281 -724.6569007138 2.4518129677 -7.1507664833
3.0370690528 -7.6160047945 0.0000000000 0.1166255048 0.0102421688 -834.7887068229 2.4506954406 -7.1483874435
3.0529992137 -7.5914306016 0.0000000000 0.1422029629 -0.1172935923 -954.2455916266 2.4495508786 -7.1460654628
3.0680619522 -7.5663066134 0.0000000000 0.1669703280 -0.2289795979 -1076.4310155620 2.4483828712 -7.1438165703
3.0822382990 -7.5406811775 0.0000000000 0.1859995412 -0.3079676706 -1195.5473099380 2.4471951493 -7.1416571206
3.0955103444 -7.5146032778 0.0000000000 0.1978941264 -0.3548523528 -1310.1563560595 2.4459912914 -7.1396032782
3.1078611189 -7.4881221265 0.0000000000 0.2048415034 -0.3818726447 -1423.5018697369 2.4447745736 -7.1376706557
3.1192745707 -7.4612868420 0.0000000000 0.2104833641 -0.4025501018 -1540.5315276907 2.4435479196 -7.1358740381
3.1297356179 -7.4341461815 0.0000000000 0.2174535472 -0.4245794534 -1663.9670076947 2.4423139258 -7.1342271636
3.1392302472 -7.4067483103 0.0000000000 0.2264067047 -0.4492055421 -1793.0923149139 2.4410749355 -7.1327425424
3.1477456322 -7.3791405980 0.0000000000 0.2367310145 -0.4746309972 -1925.7228625597 2.4398331343 -7.1314313019
3.1552702456 -7.3513694347 0.0000000000 0.2477278827 -0.4992046631 -2060.4093808535 2.4385906412 -7.1303030542
3.1617939513 -7.3234800666 0.0000000000 0.2591709500 -0.5224122939 -2196.8614161853 2.4373495815 -7.1293657832
3.1673080703 -7.2955164502 0.0000000000 0.2711747050 -0.5443876962 -2335.1961392849 2.4361121361 -7.1286257501
3.1718054231 -7.2675211241 0.0000000000 0.2838926128 -0.5653036433 -2475.3213004773 2.4348805681 -7.1280874191
3.1752803493 -7.2395350993 0.0000000000 0.2973930755 -0.5851838114 -2616.8612769879 2.4336572296 -7.1277534000
3.1777287087 -7.2115977668 0.0000000000 0.3116906670 -0.6039666797 -2759.3114485499 2.4324445512 -7.1276244100
3.1791478639 -7.1837468226 0.0000000000 0.3267940754 -0.6215770140 -2902.1299677596 2.4312450160 -7.1276992527
3.1795366450 -7.1560182093 0.0000000000 0.3427171575 -0.6379427443 -3044.7454425047 2.4300611164 -7.1279748140
3.1788952960 -7.1284460747 0.0000000000 0.3594718717 -0.6529896134 -3186.5516580131 2.4288952960 -7.1284460750
3.1772254047 -7.1010627471 0.0000000000 0.3770634720 -0.6666379276 -3326.9162151781 2.4277498761 -7.1291061432
3.1745298196 -7.0738987310 0.0000000000 0.3954904220 -0.6788034620 -3465.1952921302 2.4266269717 -7.1299463014
3.1708125580 -7.0469827217 0.0000000000 0.4147456990 -0.6893991662 -3600.7466419135 2.4255284006 -7.1309560791
3.1660787116 -7.0203416483 0.0000000000 0.4348180181 -0.6983363540 -3732.9389116867 2.4244555920 -7.1321233482
3.1603343567 -6.9940007455 0.0000000000 0.4556929470 -0.7055254322 -3861.1570291803 2.4234095018 -7.1334344511
3.1535864730 -6.9679836649 0.0000000000 0.4773539589 -0.7108763936 -3984.8035565275 2.4223905389 -7.1348743656
3.1458428742 -6.9423126311 0.0000000000 0.4997833185 -0.7142992461 -4103.2963005930 2.4213985045 -7.1364269152
3.1371121495 -6.9170086486 0.0000000000 0.5229626885 -0.7157045524 -4216.0629274637 2.4204325453 -7.1380750296
3.1274036137 -6.8920917633 0.0000000000 0.5468733943 -0.7150042756 -4322.5336429290 2.4194911160 -7.1398010599
3.1167272580 -6.8675813782 0.0000000000 0.5714963353 -0.7121131339 -4422.1331557687 2.4185719466 -7.1415871467
3.1050936984 -6.8434966181 0.0000000000 0.5968115767 -0.7069506529 -4514.2731493282 2.4176720065 -7.1434156365
3.0925141133 -6.8198567318 0.0000000000 0.6227976932 -0.6994440651 -4598.3463550401 2.4167874625 -7.1452695363
3.0790001722 -6.7966815203 0.0000000000 0.6494309616 -0.6895321483 -4673.7230665977 2.4159136271 -7.1471329917
3.0645639594 -6.7739917747 0.0000000000 0.6766845088 -0.6771699926 -4739.7505463835 2.4150449066 -7.1489917748
3.0492179154 -6.7518097130 0.0000000000 0.7045275132 -0.6623345629 -4795.7554445583 2.4141747661 -7.1508337705
3.0329748276 -6.7301594117 0.0000000000 0.7329244991 -0.6450307254 -4841.0485257196 2.4132957470 -7.1526494554
3.0158478952 -6.7090672344 0.0000000000 0.7618348211 -0.6252972883 -4874.9329407698 2.4123995605 -7.1544323737
2.9978508229 -6.6885622850 0.0000000000 0.7912119894 -0.6032119100 -4896.7095214446 2.4114772112 -7.1561796365
2.9789977134 -6.6686769550 0.0000000000 0.8210049751 -0.5788953212 -4905.7142930713 2.4105189211 -7.1578925136
2.9593019746 -6.6494475615 0.0000000000 0.8511498441 -0.5525048712 -4901.2070438977 2.4095130708 -7.1595771149
2.9156771099 -6.6108240655 0.0000000000 0.9152452652 -0.4909911907 -4838.3758254128 2.4077159312 -7.1626169986
2.8916564068 -6.5916585549 0.0000000000 0.9488724371 -0.4559478910 -4774.5212570499 2.4069319785 -7.1639716061
2.8667667429 -6.5734413913 0.0000000000 0.9823643090 -0.4194271748 -4690.7316227081 2.4061072084 -7.1652967734
2.8410627802 -6.5562013828 0.0000000000 1.0155627778 -0.3816295295 -4586.1756946075 2.4052551687 -7.1665879208
2.8145994989 -6.5399686923 0.0000000000 1.0482907805 -0.3426714076 -4460.1503520040 2.4043883804 -7.1678435511
2.7874329913 -6.5247731057 0.0000000000 1.0803564462 -0.3025872978 -4312.0872048297 2.4035192046 -7.1690635715
2.7596209431 -6.5106435081 0.0000000000 1.1115583673 -0.2613712593 -4141.5754275381 2.4026603984 -7.1702488216
2.7312227441 -6.4976075889 0.0000000000 1.1416922113 -0.2190456721 -3948.3889418500 2.4018253026 -7.1714008254
2.7022993447 -6.4856915433 0.0000000000 1.1705546218 -0.1757293660 -3732.5086154370 2.4010277763 -7.1725215383
2.6729129344 -6.4749197629 0.0000000000 1.1979408135 -0.1316703008 -3494.1347633708 2.4002819565 -7.1736130790
2.6431265136 -6.4653145572 0.0000000000 1.2236374065 -0.0872288471 -3233.6912300367 2.3996019118 -7.1746774885
2.6130034246 -6.4568959283 0.0000000000 1.2474194510 -0.0428370945 -2951.8261569935 2.3990012566 -7.1757165402
2.5826068922 -6.4496814007 0.0000000000 1.2690614817 0.0010190027 -2649.4112817871 2.3984927769 -7.1767316002
2.5519996101 -6.4436858959 0.0000000000 1.2883598772 0.0437796461 -2327.5330252710 2.3980881036 -7.1777235299
2.5212433928 -6.4389216466 0.0000000000 1.3051469286 0.0848023660 -1987.4672682480 2.3977974502 -7.1786926242
2.4903988981 -6.4353981479 0.0000000000 1.3192815287 0.1234210151 -1630.6450082593 2.3976294247 -7.1796385827
2.4595254166 -6.4331221460 0.0000000000 1.3306356783 0.1590302263 -1258.6317954550 2.3975909076 -7.1805605158
2.4286807184 -6.4320976640 0.0000000000 1.3391098216 0.1910828134 -873.1206989190 2.3976869879 -7.1814569828
2.3979209426 -6.4323260592 0.0000000000 1.3446496351 0.2190520456 -475.9050699730 2.3979209428 -7.1823260592
2.3673005182 -6.4338061042 0.0000000000 1.3471937380 0.2425891224 -68.8359871720 2.3982942491 -7.1831654230
2.3368721055 -6.4365340792 0.0000000000 1.3466402165 0.2616968203 346.1241865460 2.3988066148 -7.1839724490
2.3066865512 -6.4405038650 0.0000000000 1.3429972402 0.2762830600 766.9153181371 2.3994560248 -7.1847442998
2.2767928537 -6.4457070284 0.0000000000 1.3364556216 0.2858986301 1191.4735624162 2.4002387966 -7.1854780059
2.2472381372 -6.4521328974 0.0000000000 1.3271420317 0.2904903351 1617.6715991908 2.4011496440 -7.1861705313
2.2180676343 -6.4597686293 0.0000000000 1.3151740492 0.2902715367 2043.3574725181 2.4021817498 -7.1868188287
2.1893246782 -6.4685992778 0.0000000000 1.3005165612 0.2860941916 2466.2663991887 2.4033268466 -7.1874198896
2.1610507060 -6.4786078684 0.0000000000 1.2831967625 0.2788828056 2884.1013314628 2.4045753081 -7.1879707996
2.1332852736 -6.4897754892 0.0000000000 1.2633306933 0.2694876142 3294.5035134594 2.4059162517 -7.1884688052
2.1060660848 -6.5020814031 0.0000000000 1.2409822528 0.2590319244 3695.0542218930 2.4073376535 -7.1889113981
2.0794290367 -6.5155031799 0.0000000000 1.2161267099 0.2489707712 4083.3283693132 2.4088264785 -7.1892964162
2.0534082847 -6.5300168452 0.0000000000 1.1887576756 0.2406941158 4456.9597757310 2.4103688297 -7.1896221585
2.0280363312 -6.5455970379 0.0000000000 1.1589937888 0.2351006999 4813.7010236476 2.4119501182 -7.1898875035
2.0033441413 -6.5622171646 0.0000000000 1.1270889769 0.2324767742 5151.4802336039 2.4135552601 -7.1900920232
1.9793612900 -6.5798495417 0.0000000000 1.0933677987 0.2326504814 5468.4503872322 2.4151689017 -7.1902360796
1.9561161404 -6.5984655145 0.0000000000 1.0581545676 0.2352140792 5763.0216098538 2.4167756751 -7.1903208964
1.9336360554 -6.6180355518 0.0000000000 1.0217385038 0.2396650183 6033.8726625714 2.4183604839 -7.1903486028
1.9119476388 -6.6385293253 0.0000000000 0.9843749949 0.2454467632 6279.9464784537 2.4199088177 -7.1903222582
1.8710501209 -6.6821608268 0.0000000000 0.9077606163 0.2584796230 6694.7545588345 2.4228430540 -7.1901220054
1.8518928183 -6.7052336064 0.0000000000 0.8689905780 0.2643573908 6862.5828074590 2.4242058696 -7.1899580346
1.8336312157 -6.7290998700 0.0000000000 0.8302406022 0.2689005502 7003.7974277290 2.4254865979 -7.1897594044
1.8162918770 -6.7537244654 0.0000000000 0.7917592220 0.2715134673 7118.4978480857 2.4266784151 -7.1895320767
1.7999018725 -6.7790711435 0.0000000000 0.7537893834 0.2717242447 7207.0041840228 2.4277767313 -7.1892822619
1.7844887622 -6.8051024298 0.0000000000 0.7165628429 0.2692088661 7269.8577894665 2.4287792281 -7.1890162164
1.7700804814 -6.8317795353 0.0000000000 0.6802951810 0.2637949620 7307.8179224905 2.4296857949 -7.1887400799
1.7567051235 -6.8590622985 0.0000000000 0.6451817400 0.2554490817 7321.8534186894 2.4304983601 -7.1884597399
1.7443906344 -6.8869091564 0.0000000000 0.6113945730 0.2442532984 7313.1278496554 2.4312206295 -7.1881807247
1.7331644434 -6.9152771483 0.0000000000 0.5790804201 0.2303771529 7282.9784446675 2.4318577595 -7.1879081259
1.7230530629 -6.9441219477 0.0000000000 0.5483596150 0.2140498325 7232.8899759264 2.4324159943 -7.1876465493
1.7140816899 -6.9733979221 0.0000000000 0.5193257448 0.1955358129 7164.4653593644 2.4329023019 -7.1874000900
1.7062738379 -7.0030582109 0.0000000000 0.4920458710 0.1751155015 7079.3947481783 2.4333240374 -7.1871723260
1.6996510213 -7.0330548180 0.0000000000 0.4665611505 0.1530710677 6979.4245845967 2.4336886554 -7.1869663244
1.6942325058 -7.0633387114 0.0000000000 0.4428877586 0.1296767913 6866.3276086586 2.4340034834 -7.1867846538
1.6900351258 -7.0938599252 0.0000000000 0.4210180679 0.1051928741 6741.8743633044 2.4342755606 -7.1866293984
1.6870731666 -7.1245676626 0.0000000000 0.4009220833 0.0798616367 6607.8063873967 2.4345115364 -7.1865021714
1.6853582989 -7.1554103968 0.0000000000 0.3825491525 0.0539051963 6465.8111033503 2.4347176177 -7.1864041272
1.6848995557 -7.1863359709 0.0000000000 0.3658299771 0.0275239753 6317.4983935405 2.4348995557 -7.1863359706
1.6857033373 -7.2172916962 0.0000000000 0.3506789443 0.0008956360 6164.3789971249 2.4350626560 -7.1862979652
1.6877734356 -7.2482244507 0.0000000000 0.3369967851 -0.0258257721 6007.8450971378 2.4352118054 -7.1862899412