 TITLE = "Tecplot data"
 VARIABLES = "X", "Y", "Z" "U", "V", "p", "dispX", "dispY"
 ZONE SOLUTIONTIME=97.900000, NODES=26114 , ELEMENTS=25916, DATAPACKING=POINT, ZONETYPE=FEQUADRILATERAL
0.6974785309 1.4701789777 0.0000000000 0.0000000000 0.0000000000 -468.0276404678 0.3439251404 1.1166255871
0.6974785312 0.7630721967 0.0000000000 0.0000000000 0.0000000000 -2190.1719588966 0.3439251404 1.1166255871
-0.0096282503 1.4701789776 0.0000000000 0.0000000000 0.0000000000 551.6595321586 0.3439251404 1.1166255871
-0.0096282501 0.7630721963 0.0000000000 0.0000000000 0.0000000000 1862.8489542438 0.3439251404 1.1166255871
0.8773238436 1.6425255122 0.0000000000 0.0251414110 -0.0489429108 -459.0532217330 0.3469937577 1.1121954263
0.8661765516 0.5798478276 0.0000000000 0.5236078962 0.2104060056 -1278.4195606141 0.3358464653 1.1101779131
-0.1854837901 1.6464874798 0.0000000000 0.2230653910 0.4394544246 540.5525098222 0.3448462960 1.1161573940
-0.1890015962 0.5877682785 0.0000000000 0.6846851392 -0.3387649952 1071.1312911213 0.3413284895 1.1180983646
1.4241798525 2.1426212758 0.0000000000 0.1853983788 -0.2402085553 -327.5428443832 0.3635196808 1.0819611039
1.3562932631 0.0153869485 0.0000000000 0.5310910442 0.2502340238 -535.0457758498 0.2956330906 1.0760471195
-0.7117893316 2.1725285417 0.0000000000 0.6827928633 0.4377086580 444.8769772603 0.3488708405 1.1118683702
-0.7367667111 0.0620055300 0.0000000000 0.7304554315 -0.1311365475 494.1826955941 0.3238934601 1.1226657024
4.6510924943 4.1982185212 0.0000000000 1.3894031766 0.0152077360 -225.1295530478 0.4510924943 0.8982185212
4.3117248263 -2.4377910270 0.0000000000 0.5995228507 0.0033713224 -131.0879980926 0.1117248263 0.8622089730
20.0000000000 4.7000000000 0.0000000000 0.9800349672 -0.0493923194 -0.0848101608 0.0000000000 0.0000000000
20.0000000000 -4.7000000000 0.0000000000 1.0917869356 -0.0225761027 -0.0075806887 0.0000000000 0.0000000000
-10.0000000000 15.0000000000 0.0000000000 1.0000000000 0.0000000000 138.0176501605 0.0000000000 0.0000000000
20.0000000000 15.0000000000 0.0000000000 1.0454352055 0.0000000000 0.0232737002 0.0000000000 0.0000000000
20.0000000000 -15.0000000000 0.0000000000 1.0498757429 0.0000000000 0.0385219025 0.0000000000 0.0000000000
-10.0000000000 -15.0000000000 0.0000000000 1.0000000000 0.0000000000 100.9662203552 0.0000000000 0.0000000000
0.7104510765 0.7765392184 0.0000000000 0.0000000000 0.0000000000 -2153.1977716986 0.3439251404 1.1166255871
0.7229110022 0.7904818817 0.0000000000 0.0000000000 0.0000000000 -2101.6903620524 0.3439251404 1.1166255871
0.7348408818 0.8048806864 0.0000000000 0.0000000000 0.0000000000 -2053.6010631500 0.3439251404 1.1166255871
0.7462240304 0.8197154946 0.0000000000 0.0000000000 0.0000000000 -1999.4939648262 0.3439251404 1.1166255871
0.7570445277 0.8349655583 0.0000000000 0.0000000000 0.0000000000 -1944.6234712328 0.3439251404 1.1166255871
0.7672872401 0.8506095491 0.0000000000 0.0000000000 0.0000000000 -1886.7854206560 0.3439251404 1.1166255871
0.7769378424 0.8666255873 0.0000000000 0.0000000000 0.0000000000 -1827.6475563025 0.3439251404 1.1166255871
0.7859828372 0.8829912732 0.0000000000 0.0000000000 0.0000000000 -1766.8200014142 0.3439251404 1.1166255871
0.7944095744 0.8996837178 0.0000000000 0.0000000000 0.0000000000 -1705.0208758057 0.3439251404 1.1166255871
0.8022062684 0.9166795752 0.0000000000 0.0000000000 0.0000000000 -1642.3720177599 0.3439251404 1.1166255871
0.8093620148 0.9339550751 0.0000000000 0.0000000000 0.0000000000 -1579.3299086617 0.3439251404 1.1166255871
0.8158668056 0.9514860564 0.0000000000 0.0000000000 0.0000000000 -1516.1759311988 0.3439251404 1.1166255871
0.8217115433 0.9692480001 0.0000000000 0.0000000000 0.0000000000 -1453.2989587756 0.3439251404 1.1166255871
0.8268880536 0.9872160648 0.0000000000 0.0000000000 0.0000000000 -1391.0378577470 0.3439251404 1.1166255871
0.8313890965 1.0053651203 0.0000000000 0.0000000000 0.0000000000 -1329.7687570418 0.3439251404 1.1166255871
0.8352083770 1.0236697837 0.0000000000 0.0000000000 0.0000000000 -1269.8527487895 0.3439251404 1.1166255871
0.8383405535 1.0421044542 0.0000000000 0.0000000000 0.0000000000 -1211.6593740364 0.3439251404 1.1166255871
0.8407812453 1.0606433492 0.0000000000 0.0000000000 0.0000000000 -1155.5419987032 0.3439251404 1.1166255871
0.8425270390 1.0792605405 0.0000000000 0.0000000000 0.0000000000 -1101.8345669386 0.3439251404 1.1166255871
0.8435754928 1.0979299901 0.0000000000 0.0000000000 0.0000000000 -1050.8293520159 0.3439251404 1.1166255871
0.8439251404 1.1166255873 0.0000000000 0.0000000000 0.0000000000 -1002.7604578799 0.3439251404 1.1166255871
0.8435754927 1.1353211844 0.0000000000 0.0000000000 0.0000000000 -957.7822318712 0.3439251404 1.1166255871
0.8425270389 1.1539906341 0.0000000000 0.0000000000 0.0000000000 -915.9546305167 0.3439251404 1.1166255871
0.8407812453 1.1726078253 0.0000000000 0.0000000000 0.0000000000 -877.2351336559 0.3439251404 1.1166255871
0.8383405534 1.1911467203 0.0000000000 0.0000000000 0.0000000000 -841.4832318272 0.3439251404 1.1166255871
0.8352083769 1.2095813908 0.0000000000 0.0000000000 0.0000000000 -808.4765875022 0.3439251404 1.1166255871
0.8313890964 1.2278860542 0.0000000000 0.0000000000 0.0000000000 -777.9374195254 0.3439251404 1.1166255871
0.8268880535 1.2460351098 0.0000000000 0.0000000000 0.0000000000 -749.5633884471 0.3439251404 1.1166255871
0.8217115432 1.2640031744 0.0000000000 0.0000000000 0.0000000000 -723.0568665779 0.3439251404 1.1166255871
0.8158668055 1.2817651182 0.0000000000 0.0000000000 0.0000000000 -698.1470591087 0.3439251404 1.1166255871
0.8093620146 1.2992960994 0.0000000000 0.0000000000 0.0000000000 -674.6020205877 0.3439251404 1.1166255871
0.8022062682 1.3165715993 0.0000000000 0.0000000000 0.0000000000 -652.2309458760 0.3439251404 1.1166255871
0.7944095743 1.3335674567 0.0000000000 0.0000000000 0.0000000000 -630.8797593827 0.3439251404 1.1166255871
0.7859828371 1.3502599013 0.0000000000 0.0000000000 0.0000000000 -610.4218904671 0.3439251404 1.1166255871
0.7769378422 1.3666255872 0.0000000000 0.0000000000 0.0000000000 -590.7530815004 0.3439251404 1.1166255871
0.7672872399 1.3826416254 0.0000000000 0.0000000000 0.0000000000 -571.7764856481 0.3439251404 1.1166255871
0.7570445275 1.3982856162 0.0000000000 0.0000000000 0.0000000000 -553.4164255010 0.3439251404 1.1166255871
0.7462240302 1.4135356799 0.0000000000 0.0000000000 0.0000000000 -535.5752621330 0.3439251404 1.1166255871
0.7348408815 1.4283704881 0.0000000000 0.0000000000 0.0000000000 -518.2141162549 0.3439251404 1.1166255871
0.7229110019 1.4427692928 0.0000000000 0.0000000000 0.0000000000 -501.1906176761 0.3439251404 1.1166255871
0.7104510762 1.4567119560 0.0000000000 0.0000000000 0.0000000000 -484.5602067669 0.3439251404 1.1166255871
0.6825659261 1.4844875424 0.0000000000 0.0000000000 0.0000000000 -450.1655591580 0.3439251404 1.1166255871
0.6670747592 1.4981676212 0.0000000000 0.0000000000 0.0000000000 -432.2782050828 0.3439251404 1.1166255871
0.6510314967 1.5111958418 0.0000000000 0.0000000000 0.0000000000 -414.5244583099 0.3439251404 1.1166255871
0.6344635480 1.5235499457 0.0000000000 0.0000000000 0.0000000000 -396.6688338684 0.3439251404 1.1166255871
0.6173992194 1.5352088262 0.0000000000 0.0000000000 0.0000000000 -378.7231569086 0.3439251404 1.1166255871
0.5998676648 1.5461525643 0.0000000000 0.0000000000 0.0000000000 -360.5490592287 0.3439251404 1.1166255871
0.5818988368 1.5563624627 0.0000000000 0.0000000000 0.0000000000 -342.1049968228 0.3439251404 1.1166255871
0.5635234347 1.5658210781 0.0000000000 0.0000000000 0.0000000000 -323.2954160654 0.3439251404 1.1166255871
0.5447728526 1.5745122504 0.0000000000 0.0000000000 0.0000000000 -304.0639726344 0.3439251404 1.1166255871
0.5256791256 1.5824211311 0.0000000000 0.0000000000 0.0000000000 -284.3382471376 0.3439251404 1.1166255871
0.5062748749 1.5895342079 0.0000000000 0.0000000000 0.0000000000 -264.0641323672 0.3439251404 1.1166255871
0.4865932524 1.5958393283 0.0000000000 0.0000000000 0.0000000000 -243.1862779074 0.3439251404 1.1166255871
0.4666678838 1.6013257201 0.0000000000 0.0000000000 0.0000000000 -221.6604460622 0.3439251404 1.1166255871
0.4465328114 1.6059840098 0.0000000000 0.0000000000 0.0000000000 -199.4467569353 0.3439251404 1.1166255871
0.4262224354 1.6098062388 0.0000000000 0.0000000000 0.0000000000 -176.5138734984 0.3439251404 1.1166255871
0.4057714559 1.6127858770 0.0000000000 0.0000000000 0.0000000000 -152.8365651027 0.3439251404 1.1166255871
0.3852148130 1.6149178336 0.0000000000 0.0000000000 0.0000000000 -128.3968441659 0.3439251404 1.1166255871
0.3645876274 1.6161984663 0.0000000000 0.0000000000 0.0000000000 -103.1828492474 0.3439251404 1.1166255871
0.3439251403 1.6166255871 0.0000000000 0.0000000000 0.0000000000 -77.1888175060 0.3439251404 1.1166255871
0.3232626531 1.6161984663 0.0000000000 0.0000000000 0.0000000000 -50.4142968639 0.3439251404 1.1166255871
0.3026354675 1.6149178336 0.0000000000 0.0000000000 0.0000000000 -22.8636536797 0.3439251404 1.1166255871
0.2820788246 1.6127858769 0.0000000000 0.0000000000 0.0000000000 5.4546801135 0.3439251404 1.1166255871
0.2616278451 1.6098062388 0.0000000000 0.0000000000 0.0000000000 34.5288995484 0.3439251404 1.1166255871
0.2413174691 1.6059840097 0.0000000000 0.0000000000 0.0000000000 64.3446118867 0.3439251404 1.1166255871
0.2211823967 1.6013257200 0.0000000000 0.0000000000 0.0000000000 94.8856149131 0.3439251404 1.1166255871
0.2012570281 1.5958393283 0.0000000000 0.0000000000 0.0000000000 126.1346957839 0.3439251404 1.1166255871
0.1815754056 1.5895342079 0.0000000000 0.0000000000 0.0000000000 158.0744067517 0.3439251404 1.1166255871
0.1621711550 1.5824211311 0.0000000000 0.0000000000 0.0000000000 190.6878057140 0.3439251404 1.1166255871
0.1430774279 1.5745122503 0.0000000000 0.0000000000 0.0000000000 223.9591365921 0.3439251404 1.1166255871
0.1243268458 1.5658210780 0.0000000000 0.0000000000 0.0000000000 257.8744423285 0.3439251404 1.1166255871
0.1059514437 1.5563624626 0.0000000000 0.0000000000 0.0000000000 292.4221114052 0.3439251404 1.1166255871
0.0879826157 1.5461525642 0.0000000000 0.0000000000 0.0000000000 327.5933646026 0.3439251404 1.1166255871
0.0704510612 1.5352088261 0.0000000000 0.0000000000 0.0000000000 363.3826770239 0.3439251404 1.1166255871
0.0533867325 1.5235499456 0.0000000000 0.0000000000 0.0000000000 399.7881061372 0.3439251404 1.1166255871
0.0368187839 1.5111958417 0.0000000000 0.0000000000 0.0000000000 436.8114658407 0.3439251404 1.1166255871
0.0207755213 1.4981676211 0.0000000000 0.0000000000 0.0000000000 474.4582550321 0.3439251404 1.1166255871
0.0052843544 1.4844875423 0.0000000000 0.0000000000 0.0000000000 512.7372282676 0.3439251404 1.1166255871
-0.0239368151 1.4552663728 0.0000000000 0.0000000000 0.0000000000 591.2375205469 0.3439251404 1.1166255871
-0.0376168938 1.4397752059 0.0000000000 0.0000000000 0.0000000000 631.4838007105 0.3439251404 1.1166255871
-0.0506451144 1.4237319433 0.0000000000 0.0000000000 0.0000000000 672.4117521567 0.3439251404 1.1166255871
-0.0629992184 1.4071639946 0.0000000000 0.0000000000 0.0000000000 714.0395466561 0.3439251404 1.1166255871
-0.0746580989 1.3900996660 0.0000000000 0.0000000000 0.0000000000 756.4002639336 0.3439251404 1.1166255871
-0.0856018369 1.3725681115 0.0000000000 0.0000000000 0.0000000000 799.5604840916 0.3439251404 1.1166255871
-0.0958117353 1.3545992834 0.0000000000 0.0000000000 0.0000000000 843.6478694954 0.3439251404 1.1166255871
-0.1052703507 1.3362238813 0.0000000000 0.0000000000 0.0000000000 888.8839283615 0.3439251404 1.1166255871
-0.1139615230 1.3174732992 0.0000000000 0.0000000000 0.0000000000 935.6118476445 0.3439251404 1.1166255871
-0.1218704037 1.2983795722 0.0000000000 0.0000000000 0.0000000000 984.3039092396 0.3439251404 1.1166255871
-0.1289834806 1.2789753215 0.0000000000 0.0000000000 0.0000000000 1035.5332779731 0.3439251404 1.1166255871
-0.1352886009 1.2592936990 0.0000000000 0.0000000000 0.0000000000 1089.9040423893 0.3439251404 1.1166255871
-0.1407749927 1.2393683305 0.0000000000 0.0000000000 0.0000000000 1147.9490663719 0.3439251404 1.1166255871
-0.1454332823 1.2192332580 0.0000000000 0.0000000000 0.0000000000 1210.0196112642 0.3439251404 1.1166255871
-0.1492555114 1.1989228820 0.0000000000 0.0000000000 0.0000000000 1276.1953690330 0.3439251404 1.1166255871
-0.1522351495 1.1784719025 0.0000000000 0.0000000000 0.0000000000 1346.2358945012 0.3439251404 1.1166255871
-0.1543671062 1.1579152596 0.0000000000 0.0000000000 0.0000000000 1419.5794417256 0.3439251404 1.1166255871
-0.1556477388 1.1372880740 0.0000000000 0.0000000000 0.0000000000 1495.3811787771 0.3439251404 1.1166255871
-0.1560748596 1.1166255869 0.0000000000 0.0000000000 0.0000000000 1572.5753219770 0.3439251404 1.1166255871
-0.1556477388 1.0959630997 0.0000000000 0.0000000000 0.0000000000 1649.9454811834 0.3439251404 1.1166255871
-0.1543671061 1.0753359141 0.0000000000 0.0000000000 0.0000000000 1726.1916411862 0.3439251404 1.1166255871
-0.1522351495 1.0547792712 0.0000000000 0.0000000000 0.0000000000 1799.9874384963 0.3439251404 1.1166255871
-0.1492555113 1.0343282917 0.0000000000 0.0000000000 0.0000000000 1870.0256686456 0.3439251404 1.1166255871
-0.1454332823 1.0140179158 0.0000000000 0.0000000000 0.0000000000 1935.0526151130 0.3439251404 1.1166255871
-0.1407749926 0.9938828433 0.0000000000 0.0000000000 0.0000000000 1993.8930123964 0.3439251404 1.1166255871
-0.1352886008 0.9739574747 0.0000000000 0.0000000000 0.0000000000 2045.4677192200 0.3439251404 1.1166255871
-0.1289834804 0.9542758523 0.0000000000 0.0000000000 0.0000000000 2088.8059285788 0.3439251404 1.1166255871
-0.1218704036 0.9348716016 0.0000000000 0.0000000000 0.0000000000 2123.0532932934 0.3439251404 1.1166255871
-0.1139615229 0.9157778745 0.0000000000 0.0000000000 0.0000000000 2147.4768722208 0.3439251404 1.1166255871
-0.1052703505 0.8970272924 0.0000000000 0.0000000000 0.0000000000 2161.4673946012 0.3439251404 1.1166255871
-0.0958117351 0.8786518903 0.0000000000 0.0000000000 0.0000000000 2164.5390173749 0.3439251404 1.1166255871
-0.0856018367 0.8606830623 0.0000000000 0.0000000000 0.0000000000 2156.3265387649 0.3439251404 1.1166255871
-0.0746580986 0.8431515078 0.0000000000 0.0000000000 0.0000000000 2136.5799025240 0.3439251404 1.1166255871
-0.0629992181 0.8260871792 0.0000000000 0.0000000000 0.0000000000 2105.1558330866 0.3439251404 1.1166255871
-0.0506451142 0.8095192305 0.0000000000 0.0000000000 0.0000000000 2062.0065114500 0.3439251404 1.1166255871
-0.0376168936 0.7934759680 0.0000000000 0.0000000000 0.0000000000 2007.1654668755 0.3439251404 1.1166255871
-0.0239368148 0.7779848011 0.0000000000 0.0000000000 0.0000000000 1940.7311159534 0.3439251404 1.1166255871
0.0052843547 0.7487636316 0.0000000000 0.0000000000 0.0000000000 1773.6937364701 0.3439251404 1.1166255871
0.0207755216 0.7350835528 0.0000000000 0.0000000000 0.0000000000 1673.4538228144 0.3439251404 1.1166255871
0.0368187842 0.7220553322 0.0000000000 0.0000000000 0.0000000000 1562.3200618475 0.3439251404 1.1166255871
0.0533867329 0.7097012283 0.0000000000 0.0000000000 0.0000000000 1440.4822313051 0.3439251404 1.1166255871
0.0704510615 0.6980423478 0.0000000000 0.0000000000 0.0000000000 1308.1356848666 0.3439251404 1.1166255871
0.0879826160 0.6870986097 0.0000000000 0.0000000000 0.0000000000 1165.5003702287 0.3439251404 1.1166255871
0.1059514441 0.6768887113 0.0000000000 0.0000000000 0.0000000000 1012.8527966548 0.3439251404 1.1166255871
0.1243268462 0.6674300960 0.0000000000 0.0000000000 0.0000000000 850.5694559585 0.3439251404 1.1166255871
0.1430774283 0.6587389236 0.0000000000 0.0000000000 0.0000000000 679.1776450957 0.3439251404 1.1166255871
0.1621711553 0.6508300429 0.0000000000 0.0000000000 0.0000000000 499.4073580549 0.3439251404 1.1166255871
0.1815754060 0.6437169661 0.0000000000 0.0000000000 0.0000000000 312.2364778616 0.3439251404 1.1166255871
0.2012570285 0.6374118458 0.0000000000 0.0000000000 0.0000000000 118.9214853090 0.3439251404 1.1166255871
0.2211823971 0.6319254540 0.0000000000 0.0000000000 0.0000000000 -78.9926259537 0.3439251404 1.1166255871
0.2413174695 0.6272671643 0.0000000000 0.0000000000 0.0000000000 -279.6869831762 0.3439251404 1.1166255871
0.2616278455 0.6234449353 0.0000000000 0.0000000000 0.0000000000 -481.1083411635 0.3439251404 1.1166255871
0.2820788250 0.6204652972 0.0000000000 0.0000000000 0.0000000000 -681.0307884507 0.3439251404 1.1166255871
0.3026354679 0.6183333405 0.0000000000 0.0000000000 0.0000000000 -877.1345969609 0.3439251404 1.1166255871
0.3232626535 0.6170527079 0.0000000000 0.0000000000 0.0000000000 -1067.0958862392 0.3439251404 1.1166255871
0.3439251407 0.6166255871 0.0000000000 0.0000000000 0.0000000000 -1248.6802972188 0.3439251404 1.1166255871
0.3645876278 0.6170527079 0.0000000000 0.0000000000 0.0000000000 -1419.8337291407 0.3439251404 1.1166255871
0.3852148134 0.6183333406 0.0000000000 0.0000000000 0.0000000000 -1578.7632765843 0.3439251404 1.1166255871
0.4057714563 0.6204652972 0.0000000000 0.0000000000 0.0000000000 -1724.0018536958 0.3439251404 1.1166255871
0.4262224358 0.6234449354 0.0000000000 0.0000000000 0.0000000000 -1854.4516192714 0.3439251404 1.1166255871
0.4465328118 0.6272671645 0.0000000000 0.0000000000 0.0000000000 -1969.4028269695 0.3439251404 1.1166255871
0.4666678842 0.6319254542 0.0000000000 0.0000000000 0.0000000000 -2068.5289728094 0.3439251404 1.1166255871
0.4865932528 0.6374118459 0.0000000000 0.0000000000 0.0000000000 -2151.8589841198 0.3439251404 1.1166255871
0.5062748753 0.6437169663 0.0000000000 0.0000000000 0.0000000000 -2219.7342811366 0.3439251404 1.1166255871
0.5256791259 0.6508300432 0.0000000000 0.0000000000 0.0000000000 -2272.7536140221 0.3439251404 1.1166255871
0.5447728530 0.6587389239 0.0000000000 0.0000000000 0.0000000000 -2311.7093258744 0.3439251404 1.1166255871
0.5635234351 0.6674300963 0.0000000000 0.0000000000 0.0000000000 -2337.5486180719 0.3439251404 1.1166255871
0.5818988372 0.6768887116 0.0000000000 0.0000000000 0.0000000000 -2351.2528040441 0.3439251404 1.1166255871
0.5998676652 0.6870986101 0.0000000000 0.0000000000 0.0000000000 -2353.9715638641 0.3439251404 1.1166255871
0.6173992197 0.6980423481 0.0000000000 0.0000000000 0.0000000000 -2346.5472056927 0.3439251404 1.1166255871
0.6344635483 0.7097012286 0.0000000000 0.0000000000 0.0000000000 -2330.4098976101 0.3439251404 1.1166255871
0.6510314970 0.7220553326 0.0000000000 0.0000000000 0.0000000000 -2305.8566870956 0.3439251404 1.1166255871
0.6670747596 0.7350835532 0.0000000000 0.0000000000 0.0000000000 -2274.4885205582 0.3439251404 1.1166255871
0.6825659264 0.7487636320 0.0000000000 0.0000000000 0.0000000000 -2237.4643185943 0.3439251404 1.1166255871
0.8860814456 0.5996059778 0.0000000000 0.4993559402 0.2212191425 -1275.6427961671 0.3362925413 1.1097355307
0.9052199424 0.6200930512 0.0000000000 0.4755063335 0.2311049485 -1270.1738675322 0.3367411497 1.1093086092
0.9235636726 0.6412807192 0.0000000000 0.4520671074 0.2401279508 -1262.0247733364 0.3371900604 1.1088980702
0.9410850906 0.6631404889 0.0000000000 0.4290730316 0.2483670530 -1251.4021714857 0.3376367555 1.1085056277
0.9577578628 0.6856431744 0.0000000000 0.4065520256 0.2558671342 -1238.4661987985 0.3380787818 1.1081332176
0.9735570653 0.7087587713 0.0000000000 0.3845372520 0.2626409602 -1223.3864650293 0.3385139156 1.1077828283
0.9884593093 0.7324564174 0.0000000000 0.3630667248 0.2686667048 -1206.3290504106 0.3389402562 1.1074564170
1.0024428187 0.7567043883 0.0000000000 0.3421835805 0.2738936252 -1187.4608851651 0.3393562734 1.1071558591
1.0154874677 0.7814701096 0.0000000000 0.3219343138 0.2782508936 -1166.9500514134 0.3397608166 1.1068829136
1.0275747841 0.8067201800 0.0000000000 0.3023661879 0.2816584475 -1144.9669055774 0.3401530920 1.1066391978
1.0386879273 0.8324203984 0.0000000000 0.2835242200 0.2840377756 -1121.6845007896 0.3405326157 1.1064261663
1.0488116525 0.8585357941 0.0000000000 0.2654482908 0.2853212629 -1097.2785239844 0.3408991546 1.1062450902
1.0579322703 0.8850306577 0.0000000000 0.2481707436 0.2854592137 -1071.9266402426 0.3412526658 1.1060970381
1.0660376098 0.9118685729 0.0000000000 0.2317146956 0.2844242384 -1045.8073200007 0.3415932400 1.1059828563
1.0731169880 0.9390124506 0.0000000000 0.2160931321 0.2822131174 -1019.0982463418 0.3419210537 1.1059031507
1.0791611869 0.9664245646 0.0000000000 0.2013087461 0.2788465380 -991.9744302304 0.3422363319 1.1058582696
1.0841624381 0.9940665905 0.0000000000 0.1873544139 0.2743672343 -964.6061633771 0.3425393184 1.1058482897
1.0881144132 1.0218996470 0.0000000000 0.1742141650 0.2688370809 -937.1569313105 0.3428302558 1.1058730037
1.0910122195 1.0498843416 0.0000000000 0.1618645031 0.2623336349 -909.7813975146 0.3431093716 1.1059319114
1.0928524000 1.0779808192 0.0000000000 0.1502759461 0.2549465290 -882.6235577744 0.3433768714 1.1060242145
1.0936329375 1.1061488150 0.0000000000 0.1394146739 0.2467740058 -855.8151498093 0.3436329375 1.1061488147
1.0933532619 1.1343477115 0.0000000000 0.1292441702 0.2379197506 -829.4743780702 0.3438777334 1.1063043155
1.0920142603 1.1625365998 0.0000000000 0.1197267266 0.2284900161 -803.7049687901 0.3441114124 1.1064890293
1.0896182883 1.1906743455 0.0000000000 0.1108246554 0.2185908880 -778.5955205549 0.3443341309 1.1067009882
1.0861691821 1.2187196603 0.0000000000 0.1025011520 0.2083255990 -754.2191276711 0.3445460625 1.1069379604
1.0816722699 1.2466311780 0.0000000000 0.0947210875 0.1977924219 -730.6334342792 0.3447474150 1.1071974723
1.0761343793 1.2743675385 0.0000000000 0.0874524862 0.1870848620 -707.8816442405 0.3449384453 1.1074768378
1.0695638428 1.3018874784 0.0000000000 0.0806693558 0.1762962930 -685.9952550218 0.3451194731 1.1077731944
1.0619704964 1.3291499293 0.0000000000 0.0743546740 0.1655274277 -664.9986713900 0.3452908921 1.1080835483
1.0533656753 1.3561141249 0.0000000000 0.0684984343 0.1548838047 -644.9137532115 0.3454531777 1.1084048282
1.0437622044 1.3827397163 0.0000000000 0.0630827392 0.1444352362 -625.7594870069 0.3456068930 1.1087339478
1.0331743850 1.4089868934 0.0000000000 0.0580506182 0.1341069775 -607.5413565114 0.3457526932 1.1090678750
1.0216179806 1.4348165121 0.0000000000 0.0532720201 0.1235085474 -590.2303151727 0.3458913298 1.1094037076
1.0091102007 1.4601902227 0.0000000000 0.0485416113 0.1117870608 -573.7420449419 0.3460236556 1.1097387514
0.9956696831 1.4850705979 0.0000000000 0.0436459520 0.0976715851 -557.9352220815 0.3461506303 1.1100705978
0.9813164736 1.5094212569 0.0000000000 0.0385014484 0.0798600329 -542.6420944973 0.3462733243 1.1103971994
0.9660719979 1.5332069846 0.0000000000 0.0332992710 0.0577242901 -527.7246031771 0.3463929172 1.1107169409
0.9499590224 1.5563938457 0.0000000000 0.0285493226 0.0320322654 -513.1270639838 0.3465106876 1.1110287065
0.9330016115 1.5789492970 0.0000000000 0.0249472452 0.0052069729 -498.8892096253 0.3466279997 1.1113319455
0.9152251111 1.6008423082 0.0000000000 0.0230985257 -0.0192281043 -485.1035164146 0.3467463188 1.1116267497
0.8966562643 1.6220434932 0.0000000000 0.0232309225 -0.0379212598 -471.8376796358 0.3468673605 1.1119139398
0.8550258332 1.6642365762 0.0000000000 0.0286709264 -0.0526854099 -445.2617046035 0.3470646545 1.1124436431
0.8318630052 1.6849972270 0.0000000000 0.0328536851 -0.0503205423 -431.7213277420 0.3471385769 1.1126841758
0.8078730990 1.7047708454 0.0000000000 0.0371663387 -0.0453067644 -418.1986350285 0.3472135645 1.1129154633
0.7830957657 1.7235236442 0.0000000000 0.0414142385 -0.0400916145 -404.5660035974 0.3472881543 1.1131371062
0.7575721610 1.7412239450 0.0000000000 0.0456100864 -0.0355888794 -390.7328761335 0.3473610425 1.1133490862
0.7313447726 1.7578420113 0.0000000000 0.0498143090 -0.0316907517 -376.6008579458 0.3474309859 1.1135515455
0.7044572815 1.7733500380 0.0000000000 0.0540632418 -0.0280440992 -362.0441286886 0.3474967368 1.1137447245
0.6769544636 1.7877221697 0.0000000000 0.0583719958 -0.0244665425 -346.9198200593 0.3475570220 1.1139289332
0.6488821177 1.8009345173 0.0000000000 0.0627504306 -0.0209440588 -331.0898505988 0.3476105493 1.1141045223
0.6202870110 1.8129651719 0.0000000000 0.0672036548 -0.0174904915 -314.4344626368 0.3476560332 1.1142718558
0.5912168335 1.8237942185 0.0000000000 0.0717264177 -0.0140779977 -296.8548809434 0.3476922317 1.1144312872
0.5617201551 1.8334037535 0.0000000000 0.0763033727 -0.0106474223 -278.2720629391 0.3477179871 1.1145831416
0.5318463793 1.8417779034 0.0000000000 0.0809138512 -0.0071329993 -258.6261332180 0.3477322640 1.1147277039
0.5016456894 1.8489028444 0.0000000000 0.0855357040 -0.0034724270 -237.8761300213 0.3477341828 1.1148652104
0.4711689861 1.8547668202 0.0000000000 0.0901468590 0.0003915817 -215.9987409713 0.3477230436 1.1149958427
0.4404678156 1.8593601584 0.0000000000 0.0947257172 0.0045109220 -192.9860886137 0.3476983423 1.1151197236
0.4095942879 1.8626752864 0.0000000000 0.0992510798 0.0089320094 -168.8432548061 0.3476597789 1.1152369166
0.3786009881 1.8647067472 0.0000000000 0.1037017427 0.0136962940 -143.5859658009 0.3476072576 1.1153474284
0.3475408821 1.8654512160 0.0000000000 0.1080558580 0.0188411677 -117.2386025166 0.3475408822 1.1154512160
0.3164672174 1.8649075163 0.0000000000 0.1122901652 0.0244011110 -89.8326249501 0.3474609482 1.1155481975
0.2854334229 1.8630766361 0.0000000000 0.1163789584 0.0304085503 -61.4053632408 0.3473679322 1.1156382663
0.2544930064 1.8599617410 0.0000000000 0.1202930660 0.0368941879 -31.9989159128 0.3472624800 1.1157213062
0.2236994521 1.8555681843 0.0000000000 0.1240013573 0.0438932289 -1.6597311068 0.3471453950 1.1157972068
0.1931061184 1.8499035120 0.0000000000 0.1274736764 0.0514620065 29.5588301471 0.3470176252 1.1158658780
0.1627661346 1.8429774627 0.0000000000 0.1306674779 0.0596590033 61.5920529087 0.3468802501 1.1159272633
0.1327322983 1.8348019622 0.0000000000 0.1334907233 0.0684227671 94.3695860488 0.3467344666 1.1159813504
0.1030569719 1.8253911142 0.0000000000 0.1358220572 0.0775172577 127.8437640734 0.3465815739 1.1160281830
0.0737919787 1.8147611861 0.0000000000 0.1377325554 0.0870870337 162.0239134944 0.3464229568 1.1160678702
0.0449884986 1.8029305912 0.0000000000 0.1398694189 0.0990626883 196.9686253768 0.3462600673 1.1161005963
0.0166969632 1.7899198669 0.0000000000 0.1435978993 0.1183023048 232.7115221387 0.3460944051 1.1161266306
-0.0110330494 1.7757516477 0.0000000000 0.1504599533 0.1513603501 269.1715867698 0.3459274955 1.1161463344
-0.0381529206 1.7604506325 0.0000000000 0.1611109745 0.2022051117 306.1535897236 0.3457608664 1.1161601668
-0.0646150960 1.7440435452 0.0000000000 0.1745954707 0.2676097462 343.5093393246 0.3455960228 1.1161686866
-0.0903731914 1.7265590874 0.0000000000 0.1887039306 0.3365342753 381.3389519639 0.3454344203 1.1161725495
-0.1153820966 1.7080278830 0.0000000000 0.2011921028 0.3948599651 419.9452377953 0.3452774381 1.1161725011
-0.1395980777 1.6884824154 0.0000000000 0.2108813554 0.4321358202 459.5155886663 0.3451263509 1.1161693644
-0.1629788756 1.6679569564 0.0000000000 0.2178874303 0.4455975372 499.8773022215 0.3449823032 1.1161640235
-0.2070739954 1.6241116319 0.0000000000 0.2272967305 0.4210444344 581.0082757734 0.3447189378 1.1161504533
-0.2277120615 1.6008685657 0.0000000000 0.2311154692 0.3969560265 620.8892357980 0.3446009898 1.1161441375
-0.2473625998 1.5767989113 0.0000000000 0.2347262620 0.3711761772 660.0954994303 0.3444927824 1.1161393770
-0.2659921102 1.5519446620 0.0000000000 0.2381823141 0.3452991539 698.7024189371 0.3443944279 1.1161370506
-0.2835690508 1.5263490909 0.0000000000 0.2415179595 0.3196170512 736.8312234902 0.3443058080 1.1161379725
-0.3000638861 1.5000566615 0.0000000000 0.2447875783 0.2940310358 774.5703456404 0.3442265798 1.1161428749
-0.3154491212 1.4731129382 0.0000000000 0.2480581090 0.2684496745 811.9631561865 0.3441561923 1.1161523936
-0.3296993239 1.4455644993 0.0000000000 0.2513998580 0.2428450183 849.0244031386 0.3440939127 1.1161670579
-0.3427911371 1.4174588513 0.0000000000 0.2548860307 0.2172101552 885.7528967987 0.3440388580 1.1161872830
-0.3547032843 1.3888443462 0.0000000000 0.2585947972 0.1915336114 922.1327187981 0.3439900318 1.1162133685
-0.3654165700 1.3597700996 0.0000000000 0.2626095027 0.1658003824 958.1284940284 0.3439463614 1.1162454980
-0.3749138784 1.3302859115 0.0000000000 0.2670173412 0.1400004411 993.6803273612 0.3439067335 1.1162837436
-0.3831801735 1.3004421864 0.0000000000 0.2719078241 0.1141342302 1028.7002642162 0.3438700260 1.1163280714
-0.3902024994 1.2702898547 0.0000000000 0.2773714393 0.0882146467 1063.0701024269 0.3438351346 1.1163783483
-0.3959699851 1.2398802927 0.0000000000 0.2834982749 0.0622675919 1096.6402247592 0.3438009925 1.1164343503
-0.4004738514 1.2092652428 0.0000000000 0.2903764149 0.0363322077 1129.2294567571 0.3437665835 1.1164957697
-0.4037074204 1.1784967323 0.0000000000 0.2980901062 0.0104609568 1160.6260856782 0.3437309493 1.1165622235
-0.4056661277 1.1476269917 0.0000000000 0.3067177984 -0.0152805698 1190.5901003060 0.3436931911 1.1166332613
-0.4063475330 1.1167083729 0.0000000000 0.3163301681 -0.0408141969 1218.8565847841 0.3436524670 1.1167083732
-0.4057513321 1.0857932675 0.0000000000 0.3269882334 -0.0660500701 1245.1401014515 0.3436079867 1.1167869985
-0.4038793649 1.0549340253 0.0000000000 0.3387416389 -0.0908878901 1269.1398389238 0.3435590048 1.1168685347
-0.4007356217 1.0241828729 0.0000000000 0.3516271834 -0.1152184262 1290.5452746619 0.3435048130 1.1169523467
-0.3963262464 0.9935918339 0.0000000000 0.3656676354 -0.1389252386 1309.0420991700 0.3434447311 1.1170377769
-0.3906595364 0.9632126479 0.0000000000 0.3808708633 -0.1618865345 1324.3181665470 0.3433780976 1.1171241549
-0.3837459403 0.9330966922 0.0000000000 0.3972292914 -0.1839770802 1336.0692679337 0.3433042591 1.1172108079
-0.3755980542 0.9032949017 0.0000000000 0.4147196698 -0.2050700980 1344.0045647028 0.3432225576 1.1172970703
-0.3662306147 0.8738576911 0.0000000000 0.4333031359 -0.2250390946 1347.8515612245 0.3431323165 1.1173822933