 TITLE = "Tecplot data"
 VARIABLES = "X", "Y", "Z" "U", "V", "p", "dispX", "dispY"
 ZONE SOLUTIONTIME=33.900000, NODES=26114 , ELEMENTS=25916, DATAPACKING=POINT, ZONETYPE=FEQUADRILATERAL
0.3782152852 0.3502231641 0.0000000000 0.0000000000 0.0000000000 -265.6802026758 0.0246618947 -0.0033302266
0.3782152855 -0.3568836169 0.0000000000 0.0000000000 0.0000000000 -259.1061387735 0.0246618947 -0.0033302266
-0.3288914960 0.3502231639 0.0000000000 0.0000000000 0.0000000000 -92.0514528763 0.0246618947 -0.0033302266
-0.3288914957 -0.3568836173 0.0000000000 0.0000000000 0.0000000000 -103.7559718743 0.0246618947 -0.0033302266
0.5549366035 0.5270086982 0.0000000000 0.1080360164 0.0113090585 -261.6738809835 0.0246065177 -0.0033213878
0.5548248552 -0.5336862306 0.0000000000 0.0709925884 -0.0387422486 -249.0503999492 0.0244947689 -0.0033561451
-0.5057219137 0.5269775982 0.0000000000 0.8140269899 0.4707034312 78.0101616902 0.0246081724 -0.0033524876
-0.5057382892 -0.5336118354 0.0000000000 0.8212786704 -0.4839425944 72.6523960096 0.0245917965 -0.0032817493
1.0849422693 1.0573418068 0.0000000000 1.1299367568 0.1380397411 -163.7222560380 0.0242820976 -0.0033183651
1.0842924479 -1.0640521466 0.0000000000 1.2351165860 -0.1458724316 -254.8239075057 0.0236322753 -0.0033919756
-1.0363333582 1.0572031784 0.0000000000 0.9123753470 0.1788909307 90.2132820965 0.0243268139 -0.0034569930
-1.0365200809 -1.0637351710 0.0000000000 0.9194553971 -0.1843062297 87.0480445743 0.0241400903 -0.0030749986
4.2230666420 3.2965829217 0.0000000000 1.1111018768 -0.0531084540 -77.1101544691 0.0230666420 -0.0034170783
4.2198641353 -3.3044853331 0.0000000000 1.1144331957 -0.0307917578 -43.4831422508 0.0198641353 -0.0044853331
20.0000000000 4.7000000000 0.0000000000 1.0074017331 -0.0068181460 0.0004216484 0.0000000000 0.0000000000
20.0000000000 -4.7000000000 0.0000000000 1.0061725851 0.0064142241 0.0151479214 0.0000000000 0.0000000000
-10.0000000000 15.0000000000 0.0000000000 1.0000000000 0.0000000000 6.2848397914 0.0000000000 0.0000000000
20.0000000000 15.0000000000 0.0000000000 0.9986663717 0.0000000000 -0.0024772062 0.0000000000 0.0000000000
20.0000000000 -15.0000000000 0.0000000000 0.9982522471 0.0000000000 -0.0017316144 0.0000000000 0.0000000000
-10.0000000000 -15.0000000000 0.0000000000 1.0000000000 0.0000000000 6.0720221007 0.0000000000 0.0000000000
0.3911878308 -0.3434165952 0.0000000000 0.0000000000 0.0000000000 -257.9534554456 0.0246618947 -0.0033302266
0.4036477565 -0.3294739319 0.0000000000 0.0000000000 0.0000000000 -257.3447202491 0.0246618947 -0.0033302266
0.4155776361 -0.3150751272 0.0000000000 0.0000000000 0.0000000000 -256.8467109936 0.0246618947 -0.0033302266
0.4269607848 -0.3002403191 0.0000000000 0.0000000000 0.0000000000 -256.5816806439 0.0246618947 -0.0033302266
0.4377812820 -0.2849902553 0.0000000000 0.0000000000 0.0000000000 -256.4157746910 0.0246618947 -0.0033302266
0.4480239945 -0.2693462645 0.0000000000 0.0000000000 0.0000000000 -256.3393935409 0.0246618947 -0.0033302266
0.4576745967 -0.2533302263 0.0000000000 0.0000000000 0.0000000000 -256.2946119977 0.0246618947 -0.0033302266
0.4667195916 -0.2369645404 0.0000000000 0.0000000000 0.0000000000 -256.2557629768 0.0246618947 -0.0033302266
0.4751463288 -0.2202720958 0.0000000000 0.0000000000 0.0000000000 -256.1919894462 0.0246618947 -0.0033302266
0.4829430227 -0.2032762384 0.0000000000 0.0000000000 0.0000000000 -256.0837971843 0.0246618947 -0.0033302266
0.4900987691 -0.1860007385 0.0000000000 0.0000000000 0.0000000000 -255.9144572993 0.0246618947 -0.0033302266
0.4966035599 -0.1684697573 0.0000000000 0.0000000000 0.0000000000 -255.6733262315 0.0246618947 -0.0033302266
0.5024482977 -0.1507078135 0.0000000000 0.0000000000 0.0000000000 -255.3538446844 0.0246618947 -0.0033302266
0.5076248079 -0.1327397489 0.0000000000 0.0000000000 0.0000000000 -254.9542689736 0.0246618947 -0.0033302266
0.5121258508 -0.1145906933 0.0000000000 0.0000000000 0.0000000000 -254.4772040688 0.0246618947 -0.0033302266
0.5159451313 -0.0962860299 0.0000000000 0.0000000000 0.0000000000 -253.9296829666 0.0246618947 -0.0033302266
0.5190773078 -0.0778513594 0.0000000000 0.0000000000 0.0000000000 -253.3228433026 0.0246618947 -0.0033302266
0.5215179997 -0.0593124644 0.0000000000 0.0000000000 0.0000000000 -252.6715903985 0.0246618947 -0.0033302266
0.5232637933 -0.0406952731 0.0000000000 0.0000000000 0.0000000000 -251.9940272891 0.0246618947 -0.0033302266
0.5243122471 -0.0220258235 0.0000000000 0.0000000000 0.0000000000 -251.3107729851 0.0246618947 -0.0033302266
0.5246618947 -0.0033302263 0.0000000000 0.0000000000 0.0000000000 -250.6441510941 0.0246618947 -0.0033302266
0.5243122471 0.0153653708 0.0000000000 0.0000000000 0.0000000000 -250.0173291347 0.0246618947 -0.0033302266
0.5232637933 0.0340348204 0.0000000000 0.0000000000 0.0000000000 -249.4534401714 0.0246618947 -0.0033302266
0.5215179996 0.0526520117 0.0000000000 0.0000000000 0.0000000000 -248.9747648139 0.0246618947 -0.0033302266
0.5190773078 0.0711909067 0.0000000000 0.0000000000 0.0000000000 -248.6019815084 0.0246618947 -0.0033302266
0.5159451313 0.0896255772 0.0000000000 0.0000000000 0.0000000000 -248.3535831257 0.0246618947 -0.0033302266
0.5121258507 0.1079302406 0.0000000000 0.0000000000 0.0000000000 -248.2453633513 0.0246618947 -0.0033302266
0.5076248078 0.1260792961 0.0000000000 0.0000000000 0.0000000000 -248.2901882629 0.0246618947 -0.0033302266
0.5024482975 0.1440473608 0.0000000000 0.0000000000 0.0000000000 -248.4976646140 0.0246618947 -0.0033302266
0.4966035598 0.1618093046 0.0000000000 0.0000000000 0.0000000000 -248.8743794057 0.0246618947 -0.0033302266
0.4900987690 0.1793402858 0.0000000000 0.0000000000 0.0000000000 -249.4234469943 0.0246618947 -0.0033302266
0.4829430226 0.1966157857 0.0000000000 0.0000000000 0.0000000000 -250.1455853946 0.0246618947 -0.0033302266
0.4751463286 0.2136116431 0.0000000000 0.0000000000 0.0000000000 -251.0376970467 0.0246618947 -0.0033302266
0.4667195914 0.2303040877 0.0000000000 0.0000000000 0.0000000000 -252.0961461536 0.0246618947 -0.0033302266
0.4576745965 0.2466697735 0.0000000000 0.0000000000 0.0000000000 -253.3118997317 0.0246618947 -0.0033302266
0.4480239942 0.2626858118 0.0000000000 0.0000000000 0.0000000000 -254.6805375711 0.0246618947 -0.0033302266
0.4377812818 0.2783298026 0.0000000000 0.0000000000 0.0000000000 -256.1860897881 0.0246618947 -0.0033302266
0.4269607845 0.2935798663 0.0000000000 0.0000000000 0.0000000000 -257.8324803143 0.0246618947 -0.0033302266
0.4155776359 0.3084146744 0.0000000000 0.0000000000 0.0000000000 -259.5894804506 0.0246618947 -0.0033302266
0.4036477562 0.3228134791 0.0000000000 0.0000000000 0.0000000000 -261.4961228128 0.0246618947 -0.0033302266
0.3911878306 0.3367561424 0.0000000000 0.0000000000 0.0000000000 -263.4692381691 0.0246618947 -0.0033302266
0.3633026805 0.3645317288 0.0000000000 0.0000000000 0.0000000000 -268.1622310656 0.0246618947 -0.0033302266
0.3478115136 0.3782118076 0.0000000000 0.0000000000 0.0000000000 -270.9789753528 0.0246618947 -0.0033302266
0.3317682510 0.3912400282 0.0000000000 0.0000000000 0.0000000000 -274.0139255976 0.0246618947 -0.0033302266
0.3152003023 0.4035941321 0.0000000000 0.0000000000 0.0000000000 -277.4304787890 0.0246618947 -0.0033302266
0.2981359737 0.4152530126 0.0000000000 0.0000000000 0.0000000000 -281.2717879677 0.0246618947 -0.0033302266
0.2806044192 0.4261967507 0.0000000000 0.0000000000 0.0000000000 -285.6608182320 0.0246618947 -0.0033302266
0.2626355911 0.4364066491 0.0000000000 0.0000000000 0.0000000000 -290.6855491031 0.0246618947 -0.0033302266
0.2442601890 0.4458652644 0.0000000000 0.0000000000 0.0000000000 -296.4511915423 0.0246618947 -0.0033302266
0.2255096069 0.4545564368 0.0000000000 0.0000000000 0.0000000000 -303.0401616219 0.0246618947 -0.0033302266
0.2064158799 0.4624653175 0.0000000000 0.0000000000 0.0000000000 -310.5228605269 0.0246618947 -0.0033302266
0.1870116292 0.4695783943 0.0000000000 0.0000000000 0.0000000000 -318.9402114945 0.0246618947 -0.0033302266
0.1673300067 0.4758835147 0.0000000000 0.0000000000 0.0000000000 -328.3019360752 0.0246618947 -0.0033302266
0.1474046382 0.4813699064 0.0000000000 0.0000000000 0.0000000000 -338.5753401107 0.0246618947 -0.0033302266
0.1272695657 0.4860281961 0.0000000000 0.0000000000 0.0000000000 -349.6784678256 0.0246618947 -0.0033302266
0.1069591897 0.4898504252 0.0000000000 0.0000000000 0.0000000000 -361.4709972297 0.0246618947 -0.0033302266
0.0865082102 0.4928300633 0.0000000000 0.0000000000 0.0000000000 -373.7487882732 0.0246618947 -0.0033302266
0.0659515673 0.4949620200 0.0000000000 0.0000000000 0.0000000000 -386.2412142247 0.0246618947 -0.0033302266
0.0453243817 0.4962426526 0.0000000000 0.0000000000 0.0000000000 -398.6135120107 0.0246618947 -0.0033302266
0.0246618946 0.4966697734 0.0000000000 0.0000000000 0.0000000000 -410.4737851827 0.0246618947 -0.0033302266
0.0039994075 0.4962426526 0.0000000000 0.0000000000 0.0000000000 -421.3847994020 0.0246618947 -0.0033302266
-0.0166277782 0.4949620199 0.0000000000 0.0000000000 0.0000000000 -430.8795856914 0.0246618947 -0.0033302266
-0.0371844211 0.4928300633 0.0000000000 0.0000000000 0.0000000000 -438.4797375708 0.0246618947 -0.0033302266
-0.0576354006 0.4898504251 0.0000000000 0.0000000000 0.0000000000 -443.7148577060 0.0246618947 -0.0033302266
-0.0779457765 0.4860281961 0.0000000000 0.0000000000 0.0000000000 -446.1416502987 0.0246618947 -0.0033302266
-0.0980808490 0.4813699064 0.0000000000 0.0000000000 0.0000000000 -445.3612754435 0.0246618947 -0.0033302266
-0.1180062176 0.4758835146 0.0000000000 0.0000000000 0.0000000000 -441.0339252563 0.0246618947 -0.0033302266
-0.1376878400 0.4695783943 0.0000000000 0.0000000000 0.0000000000 -432.8899708560 0.0246618947 -0.0033302266
-0.1570920907 0.4624653174 0.0000000000 0.0000000000 0.0000000000 -420.7374391062 0.0246618947 -0.0033302266
-0.1761858178 0.4545564367 0.0000000000 0.0000000000 0.0000000000 -404.4659230579 0.0246618947 -0.0033302266
-0.1949363999 0.4458652643 0.0000000000 0.0000000000 0.0000000000 -384.0472876062 0.0246618947 -0.0033302266
-0.2133118020 0.4364066490 0.0000000000 0.0000000000 0.0000000000 -359.5336848582 0.0246618947 -0.0033302266
-0.2312806300 0.4261967506 0.0000000000 0.0000000000 0.0000000000 -331.0534528384 0.0246618947 -0.0033302266
-0.2488121845 0.4152530125 0.0000000000 0.0000000000 0.0000000000 -298.8054544041 0.0246618947 -0.0033302266
-0.2658765131 0.4035941320 0.0000000000 0.0000000000 0.0000000000 -263.0523460137 0.0246618947 -0.0033302266
-0.2824444618 0.3912400281 0.0000000000 0.0000000000 0.0000000000 -224.1131734715 0.0246618947 -0.0033302266
-0.2984877244 0.3782118075 0.0000000000 0.0000000000 0.0000000000 -182.3555973708 0.0246618947 -0.0033302266
-0.3139788912 0.3645317287 0.0000000000 0.0000000000 0.0000000000 -138.1879725511 0.0246618947 -0.0033302266
-0.3432000608 0.3353105591 0.0000000000 0.0000000000 0.0000000000 -44.4122636397 0.0246618947 -0.0033302266
-0.3568801395 0.3198193923 0.0000000000 0.0000000000 0.0000000000 4.2457321510 0.0246618947 -0.0033302266
-0.3699083601 0.3037761297 0.0000000000 0.0000000000 0.0000000000 53.4280651063 0.0246618947 -0.0033302266
-0.3822624640 0.2872081810 0.0000000000 0.0000000000 0.0000000000 102.6362092746 0.0246618947 -0.0033302266
-0.3939213445 0.2701438524 0.0000000000 0.0000000000 0.0000000000 151.3736120215 0.0246618947 -0.0033302266
-0.4048650826 0.2526122978 0.0000000000 0.0000000000 0.0000000000 199.1512080924 0.0246618947 -0.0033302266
-0.4150749810 0.2346434698 0.0000000000 0.0000000000 0.0000000000 245.4924545969 0.0246618947 -0.0033302266
-0.4245335963 0.2162680677 0.0000000000 0.0000000000 0.0000000000 289.9379390981 0.0246618947 -0.0033302266
-0.4332247687 0.1975174856 0.0000000000 0.0000000000 0.0000000000 332.0496115119 0.0246618947 -0.0033302266
-0.4411336494 0.1784237586 0.0000000000 0.0000000000 0.0000000000 371.4146778950 0.0246618947 -0.0033302266
-0.4482467262 0.1590195079 0.0000000000 0.0000000000 0.0000000000 407.6491776774 0.0246618947 -0.0033302266
-0.4545518466 0.1393378854 0.0000000000 0.0000000000 0.0000000000 440.4012510874 0.0246618947 -0.0033302266
-0.4600382383 0.1194125168 0.0000000000 0.0000000000 0.0000000000 469.3540931769 0.0246618947 -0.0033302266
-0.4646965280 0.0992774444 0.0000000000 0.0000000000 0.0000000000 494.2285853773 0.0246618947 -0.0033302266
-0.4685187571 0.0789670684 0.0000000000 0.0000000000 0.0000000000 514.7855939611 0.0246618947 -0.0033302266
-0.4714983952 0.0585160889 0.0000000000 0.0000000000 0.0000000000 530.8279257752 0.0246618947 -0.0033302266
-0.4736303518 0.0379594460 0.0000000000 0.0000000000 0.0000000000 542.2019339166 0.0246618947 -0.0033302266
-0.4749109845 0.0173322604 0.0000000000 0.0000000000 0.0000000000 548.7987686378 0.0246618947 -0.0033302266
-0.4753381053 -0.0033302268 0.0000000000 0.0000000000 0.0000000000 550.5552710887 0.0246618947 -0.0033302266
-0.4749109845 -0.0239927139 0.0000000000 0.0000000000 0.0000000000 547.4545091130 0.0246618947 -0.0033302266
-0.4736303518 -0.0446198995 0.0000000000 0.0000000000 0.0000000000 539.5259551346 0.0246618947 -0.0033302266
-0.4714983952 -0.0651765424 0.0000000000 0.0000000000 0.0000000000 526.8453062690 0.0246618947 -0.0033302266
-0.4685187570 -0.0856275219 0.0000000000 0.0000000000 0.0000000000 509.5339464120 0.0246618947 -0.0033302266
-0.4646965279 -0.1059378979 0.0000000000 0.0000000000 0.0000000000 487.7580494798 0.0246618947 -0.0033302266
-0.4600382382 -0.1260729703 0.0000000000 0.0000000000 0.0000000000 461.7273224998 0.0246618947 -0.0033302266
-0.4545518465 -0.1459983389 0.0000000000 0.0000000000 0.0000000000 431.6933870493 0.0246618947 -0.0033302266
-0.4482467261 -0.1656799614 0.0000000000 0.0000000000 0.0000000000 397.9477976265 0.0246618947 -0.0033302266
-0.4411336493 -0.1850842120 0.0000000000 0.0000000000 0.0000000000 360.8196957529 0.0246618947 -0.0033302266
-0.4332247686 -0.2041779391 0.0000000000 0.0000000000 0.0000000000 320.6730987385 0.0246618947 -0.0033302266
-0.4245335962 -0.2229285212 0.0000000000 0.0000000000 0.0000000000 277.9038217128 0.0246618947 -0.0033302266
-0.4150749808 -0.2413039233 0.0000000000 0.0000000000 0.0000000000 232.9360307606 0.0246618947 -0.0033302266
-0.4048650824 -0.2592727513 0.0000000000 0.0000000000 0.0000000000 186.2184232432 0.0246618947 -0.0033302266
-0.3939213443 -0.2768043058 0.0000000000 0.0000000000 0.0000000000 138.2200296356 0.0246618947 -0.0033302266
-0.3822624638 -0.2938686345 0.0000000000 0.0000000000 0.0000000000 89.4256279852 0.0246618947 -0.0033302266
-0.3699083599 -0.3104365831 0.0000000000 0.0000000000 0.0000000000 40.3307610806 0.0246618947 -0.0033302266
-0.3568801393 -0.3264798457 0.0000000000 0.0000000000 0.0000000000 -8.5636577698 0.0246618947 -0.0033302266
-0.3432000605 -0.3419710126 0.0000000000 0.0000000000 0.0000000000 -56.7571598179 0.0246618947 -0.0033302266
-0.3139788909 -0.3711921821 0.0000000000 0.0000000000 0.0000000000 -149.0796972730 0.0246618947 -0.0033302266
-0.2984877240 -0.3848722608 0.0000000000 0.0000000000 0.0000000000 -192.2684295591 0.0246618947 -0.0033302266
-0.2824444615 -0.3979004814 0.0000000000 0.0000000000 0.0000000000 -232.8902517526 0.0246618947 -0.0033302266
-0.2658765128 -0.4102545853 0.0000000000 0.0000000000 0.0000000000 -270.5490746682 0.0246618947 -0.0033302266
-0.2488121842 -0.4219134658 0.0000000000 0.0000000000 0.0000000000 -304.8926953305 0.0246618947 -0.0033302266
-0.2312806296 -0.4328572039 0.0000000000 0.0000000000 0.0000000000 -335.6209205222 0.0246618947 -0.0033302266
-0.2133118016 -0.4430671023 0.0000000000 0.0000000000 0.0000000000 -362.4935150750 0.0246618947 -0.0033302266
-0.1949363995 -0.4525257176 0.0000000000 0.0000000000 0.0000000000 -385.3376605344 0.0246618947 -0.0033302266
-0.1761858174 -0.4612168900 0.0000000000 0.0000000000 0.0000000000 -404.0545159628 0.0246618947 -0.0033302266
-0.1570920903 -0.4691257707 0.0000000000 0.0000000000 0.0000000000 -418.6243922403 0.0246618947 -0.0033302266
-0.1376878397 -0.4762388475 0.0000000000 0.0000000000 0.0000000000 -429.1099856822 0.0246618947 -0.0033302266
-0.1180062172 -0.4825439679 0.0000000000 0.0000000000 0.0000000000 -435.6570947308 0.0246618947 -0.0033302266
-0.0980808486 -0.4880303596 0.0000000000 0.0000000000 0.0000000000 -438.4922820863 0.0246618947 -0.0033302266
-0.0779457761 -0.4926886493 0.0000000000 0.0000000000 0.0000000000 -437.9170677595 0.0246618947 -0.0033302266
-0.0576354002 -0.4965108783 0.0000000000 0.0000000000 0.0000000000 -434.2984559498 0.0246618947 -0.0033302266
-0.0371844207 -0.4994905165 0.0000000000 0.0000000000 0.0000000000 -428.0559089975 0.0246618947 -0.0033302266
-0.0166277778 -0.5016224731 0.0000000000 0.0000000000 0.0000000000 -419.6452567350 0.0246618947 -0.0033302266
0.0039994079 -0.5029031058 0.0000000000 0.0000000000 0.0000000000 -409.5404244662 0.0246618947 -0.0033302266
0.0246618950 -0.5033302266 0.0000000000 0.0000000000 0.0000000000 -398.2142013263 0.0246618947 -0.0033302266
0.0453243821 -0.5029031057 0.0000000000 0.0000000000 0.0000000000 -386.1194950473 0.0246618947 -0.0033302266
0.0659515677 -0.5016224730 0.0000000000 0.0000000000 0.0000000000 -373.6725391546 0.0246618947 -0.0033302266
0.0865082106 -0.4994905164 0.0000000000 0.0000000000 0.0000000000 -361.2393675257 0.0246618947 -0.0033302266
0.1069591901 -0.4965108782 0.0000000000 0.0000000000 0.0000000000 -349.1264471947 0.0246618947 -0.0033302266
0.1272695661 -0.4926886491 0.0000000000 0.0000000000 0.0000000000 -337.5759526928 0.0246618947 -0.0033302266
0.1474046386 -0.4880303594 0.0000000000 0.0000000000 0.0000000000 -326.7653865584 0.0246618947 -0.0033302266
0.1673300071 -0.4825439677 0.0000000000 0.0000000000 0.0000000000 -316.8111341720 0.0246618947 -0.0033302266
0.1870116296 -0.4762388473 0.0000000000 0.0000000000 0.0000000000 -307.7743184479 0.0246618947 -0.0033302266
0.2064158803 -0.4691257705 0.0000000000 0.0000000000 0.0000000000 -299.6690371226 0.0246618947 -0.0033302266
0.2255096073 -0.4612168897 0.0000000000 0.0000000000 0.0000000000 -292.4700886122 0.0246618947 -0.0033302266
0.2442601894 -0.4525257173 0.0000000000 0.0000000000 0.0000000000 -286.1255358436 0.0246618947 -0.0033302266
0.2626355915 -0.4430671020 0.0000000000 0.0000000000 0.0000000000 -280.5643086858 0.0246618947 -0.0033302266
0.2806044195 -0.4328572036 0.0000000000 0.0000000000 0.0000000000 -275.7196369094 0.0246618947 -0.0033302266
0.2981359740 -0.4219134655 0.0000000000 0.0000000000 0.0000000000 -271.5193362749 0.0246618947 -0.0033302266
0.3152003027 -0.4102545850 0.0000000000 0.0000000000 0.0000000000 -267.9370499042 0.0246618947 -0.0033302266
0.3317682513 -0.3979004810 0.0000000000 0.0000000000 0.0000000000 -264.8943083827 0.0246618947 -0.0033302266
0.3478115139 -0.3848722604 0.0000000000 0.0000000000 0.0000000000 -262.4602755517 0.0246618947 -0.0033302266
0.3633026808 -0.3711921816 0.0000000000 0.0000000000 0.0000000000 -260.3997114454 0.0246618947 -0.0033302266
0.5742923667 -0.5134865639 0.0000000000 0.0399235371 -0.0439798520 -248.8200138152 0.0245034625 -0.0033570110
0.5929908623 -0.4925731035 0.0000000000 0.0184840627 -0.0512718550 -248.8180336874 0.0245120696 -0.0033575454
0.6108941336 -0.4709751305 0.0000000000 0.0046371369 -0.0600187984 -249.0679148149 0.0245205214 -0.0033577795
0.6279770868 -0.4487228780 0.0000000000 -0.0037368969 -0.0695789163 -249.5275649759 0.0245287517 -0.0033577393
0.6442157814 -0.4258474932 0.0000000000 -0.0085336323 -0.0793431671 -250.1425386969 0.0245367004 -0.0033574501
0.6595874654 -0.4023809945 0.0000000000 -0.0112525191 -0.0887987048 -250.8563582638 0.0245443157 -0.0033569375
0.6740706085 -0.3783562267 0.0000000000 -0.0129547335 -0.0975562331 -251.6162182704 0.0245515554 -0.0033562271
0.6876449332 -0.3538068148 0.0000000000 -0.0143155090 -0.1053464964 -252.3752232276 0.0245583878 -0.0033553440
0.7002914426 -0.3287671165 0.0000000000 -0.0157183356 -0.1120001645 -253.0927365724 0.0245647915 -0.0033543126
0.7119924471 -0.3032721739 0.0000000000 -0.0173496700 -0.1174237600 -253.7343531929 0.0245707550 -0.0033531560
0.7227315872 -0.2773576639 0.0000000000 -0.0192737983 -0.1215786232 -254.2720852198 0.0245762755 -0.0033518960
0.7324938554 -0.2510598487 0.0000000000 -0.0214841540 -0.1244649831 -254.6847379683 0.0245813575 -0.0033505526
0.7412656157 -0.2244155245 0.0000000000 -0.0239355489 -0.1261106489 -254.9582660680 0.0245860113 -0.0033491441
0.7490346213 -0.1974619705 0.0000000000 -0.0265635582 -0.1265631305 -255.0859430414 0.0245902515 -0.0033476870
0.7557900302 -0.1702368963 0.0000000000 -0.0292961561 -0.1258841483 -255.0682674364 0.0245940959 -0.0033461962
0.7615224195 -0.1427783900 0.0000000000 -0.0320609508 -0.1241458170 -254.9125923976 0.0245975645 -0.0033446849
0.7662237978 -0.1151248645 0.0000000000 -0.0347899505 -0.1214280311 -254.6324989740 0.0246006781 -0.0033431652
0.7698876155 -0.0873150044 0.0000000000 -0.0374228858 -0.1178167020 -254.2469500849 0.0246034581 -0.0033416476
0.7725087734 -0.0593877118 0.0000000000 -0.0399095794 -0.1134025560 -253.7792721474 0.0246059255 -0.0033401420
0.7740836295 -0.0313820524 0.0000000000 -0.0422115601 -0.1082802420 -253.2560190367 0.0246081009 -0.0033386570
0.7746100036 -0.0033372005 0.0000000000 -0.0443029450 -0.1025475358 -252.7057787649 0.0246100036 -0.0033372008
0.7740871805 0.0247076153 0.0000000000 -0.0461705036 -0.0963044822 -252.1579858046 0.0246116519 -0.0033357807
0.7725159102 0.0527131667 0.0000000000 -0.0478127471 -0.0896523734 -251.6417996399 0.0246130624 -0.0033344037
0.7698984076 0.0806402814 0.0000000000 -0.0492378295 -0.0826925249 -251.1851013429 0.0246142502 -0.0033330760
0.7662383485 0.1084498966 0.0000000000 -0.0504600140 -0.0755248702 -250.8136439605 0.0246152289 -0.0033318033
0.7615408654 0.1361031149 0.0000000000 -0.0514944445 -0.0682464532 -250.5503697517 0.0246160105 -0.0033305907
0.7558125398 0.1635612579 0.0000000000 -0.0523499811 -0.0609499392 -250.4148799261 0.0246166057 -0.0033294428
0.7490613935 0.1907859205 0.0000000000 -0.0530199212 -0.0537222931 -250.4230143567 0.0246170238 -0.0033283635
0.7412968772 0.2177390249 0.0000000000 -0.0534705562 -0.0466437724 -250.5864751846 0.0246172729 -0.0033273561
0.7325298576 0.2443828736 0.0000000000 -0.0536277129 -0.0397873408 -250.9124159589 0.0246173599 -0.0033264230
0.7227726021 0.2706802022 0.0000000000 -0.0533617113 -0.0332185261 -251.4029239801 0.0246172907 -0.0033255663
0.7120387617 0.2965942312 0.0000000000 -0.0524715102 -0.0269956156 -252.0543539359 0.0246170699 -0.0033247872
0.7003433515 0.3220887182 0.0000000000 -0.0506691524 -0.0211699260 -252.8565290716 0.0246167007 -0.0033240863
0.6877027301 0.3471280074 0.0000000000 -0.0475658845 -0.0157857307 -253.7919099569 0.0246161850 -0.0033234639
0.6741345761 0.3716770803 0.0000000000 -0.0426613849 -0.0108792899 -254.8349305297 0.0246155233 -0.0033229199
0.6596578637 0.3957016035 0.0000000000 -0.0353373229 -0.0064763239 -255.9517985533 0.0246147143 -0.0033224540
0.6442928359 0.4191679774 0.0000000000 -0.0248559782 -0.0025871423 -257.1011299341 0.0246137552 -0.0033220662
0.6280609767 0.4420433819 0.0000000000 -0.0103640943 0.0008015508 -258.2358125874 0.0246126420 -0.0033217574
0.6109849811 0.4642958222 0.0000000000 0.0090978872 0.0037393575 -259.3064278721 0.0246113693 -0.0033215293
0.5930887232 0.4858941724 0.0000000000 0.0345795896 0.0063304204 -260.2663471832 0.0246099309 -0.0033213861
0.5743972223 0.5068082186 0.0000000000 0.0671899572 0.0087570905 -261.0744100333 0.0246083185 -0.0033213348
0.5325659983 0.5484720643 0.0000000000 0.1641055604 0.0148056332 -262.2483378666 0.0246048197 -0.0033208687
0.5093273262 0.5689925365 0.0000000000 0.2325016289 0.0196992400 -262.5868031386 0.0246028979 -0.0033205147
0.4852603198 0.5885350828 0.0000000000 0.3133573676 0.0268066409 -262.8136293091 0.0246007853 -0.0033202993
0.4604061207 0.6070663278 0.0000000000 0.4055616991 0.0368576020 -263.0289406992 0.0245985092 -0.0033202102
0.4348072147 0.6245546191 0.0000000000 0.5064633530 0.0502942893 -263.3439610713 0.0245960962 -0.0033202397
0.4085073608 0.6409700832 0.0000000000 0.6119661666 0.0671078777 -263.8559701822 0.0245935740 -0.0033203826
0.3815515173 0.6562846776 0.0000000000 0.7170640378 0.0868003375 -264.6145168886 0.0245909726 -0.0033206359
0.3539857656 0.6704722388 0.0000000000 0.8166734823 0.1084901220 -265.5959299702 0.0245883241 -0.0033209977
0.3258572313 0.6835085275 0.0000000000 0.9064833378 0.1311144387 -266.7042143701 0.0245856629 -0.0033214675
0.2972140031 0.6953712709 0.0000000000 0.9835580488 0.1536518033 -267.7978762554 0.0245830252 -0.0033220451
0.2681050502 0.7060402010 0.0000000000 1.0465619607 0.1752981641 -268.7247450712 0.0245804484 -0.0033227304
0.2385801379 0.7154970895 0.0000000000 1.0956236754 0.1955600511 -269.3473091492 0.0245779699 -0.0033235223
0.2086897417 0.7237257801 0.0000000000 1.1319613962 0.2142615710 -269.5526153542 0.0245756265 -0.0033244194
0.1784849604 0.7307122155 0.0000000000 1.1574205350 0.2314867749 -269.2498046791 0.0245734539 -0.0033254185
0.1480174282 0.7364444621 0.0000000000 1.1740488630 0.2474894348 -268.3610628674 0.0245714857 -0.0033265154
0.1173392262 0.7409127303 0.0000000000 1.1837819744 0.2625999482 -266.8110821617 0.0245697529 -0.0033277045
0.0865027928 0.7441093909 0.0000000000 1.1882593371 0.2771492785 -264.5185693047 0.0245682839 -0.0033289788
0.0555608341 0.7460289887 0.0000000000 1.1887542104 0.2914183426 -261.3916562706 0.0245671036 -0.0033303301
0.0245662333 0.7466682509 0.0000000000 1.1861833258 0.3056121773 -257.3275280741 0.0245662335 -0.0033317491
-0.0064280395 0.7460260930 0.0000000000 1.1811607363 0.3198531946 -252.2154644306 0.0245656913 -0.0033332258
-0.0373690182 0.7441036207 0.0000000000 1.1740677498 0.3341864995 -245.9419719970 0.0245654910 -0.0033347490
-0.0682038310 0.7409041278 0.0000000000 1.1651210852 0.3485912015 -238.3966969441 0.0245656426 -0.0033363070
-0.0988797911 0.7364330907 0.0000000000 1.1544303820 0.3629935074 -229.4781331526 0.0245661518 -0.0033378868
-0.1293444866 0.7306981593 0.0000000000 1.1420424167 0.3772792023 -219.0985495498 0.0245670202 -0.0033394747
-0.1595458700 0.7237091437 0.0000000000 1.1279728547 0.3913044766 -207.1879023376 0.0245682456 -0.0033410557
-0.1894323473 0.7154779983 0.0000000000 1.1122278307 0.4049048790 -193.6967196944 0.0245698210 -0.0033426135
-0.2189528663 0.7060188006 0.0000000000 1.0948179025 0.4179025854 -178.5980572626 0.0245717358 -0.0033441306
-0.2480570032 0.6953477276 0.0000000000 1.0757666047 0.4301123094 -161.8886576802 0.0245739749 -0.0033455884
-0.2766950494 0.6834830281 0.0000000000 1.0551153247 0.4413461798 -143.5894423410 0.0245765192 -0.0033469668
-0.3048180962 0.6704449911 0.0000000000 1.0329257309 0.4514178459 -123.7454437755 0.0245793456 -0.0033482452
-0.3323781179 0.6562559108 0.0000000000 1.0092805958 0.4601459990 -102.4252663323 0.0245824270 -0.0033494025
-0.3593280544 0.6409400482 0.0000000000 0.9842835620 0.4673574354 -79.7201466422 0.0245857326 -0.0033504175
-0.3856218907 0.6245235891 0.0000000000 0.9580582090 0.4728897359 -55.7426743883 0.0245892281 -0.0033512695
-0.4112147356 0.6070345985 0.0000000000 0.9307466502 0.4765936065 -30.6252269559 0.0245928761 -0.0033519393
-0.4360628979 0.5885029725 0.0000000000 0.9025078065 0.4783349049 -4.5181669851 0.0245966368 -0.0033524094
-0.4601239605 0.5689603864 0.0000000000 0.8735154596 0.4779963660 22.4121516600 0.0246004681 -0.0033526646
-0.4833568516 0.5484402398 0.0000000000 0.8439561527 0.4754790375 49.9855268173 0.0246043273 -0.0033526931
-0.5271809790 0.5046091494 0.0000000000 0.7839333847 0.4636103834 106.2849891383 0.0246119542 -0.0033520291
-0.5476974123 0.4813730990 0.0000000000 0.7538867466 0.4541617055 134.6020410168 0.0246156390 -0.0033513292
-0.5672361945 0.4573091471 0.0000000000 0.7241022119 0.4423405005 162.7488254754 0.0246191877 -0.0033503872
-0.5857639718 0.4324584039 0.0000000000 0.6947963659 0.4281512974 190.5106848534 0.0246225663 -0.0033492074
-0.6032491132 0.4068633208 0.0000000000 0.6661850190 0.4116199439 217.6731131436 0.0246257456 -0.0033477976
-0.6196617642 0.3805676182 0.0000000000 0.6384810491 0.3927932899 244.0240083725 0.0246287017 -0.0033461684
-0.6349738977 0.3536162114 0.0000000000 0.6118923277 0.3717386766 269.3558420948 0.0246314159 -0.0033443332
-0.6491593615 0.3260551343 0.0000000000 0.5866197457 0.3485432437 293.4677310656 0.0246338750 -0.0033423071
-0.6621939243 0.2979314611 0.0000000000 0.5628553531 0.3233130667 316.1673991163 0.0246360708 -0.0033401071
-0.6740553169 0.2692932260 0.0000000000 0.5407806189 0.2961721359 337.2730190460 0.0246379992 -0.0033377517
-0.6847232716 0.2401893414 0.0000000000 0.5205648246 0.2672611920 356.6149251565 0.0246396598 -0.0033352602
-0.6941795571 0.2106695149 0.0000000000 0.5023636015 0.2367364303 374.0371878256 0.0246410549 -0.0033326530
-0.7024080111 0.1807841641 0.0000000000 0.4863176257 0.2047680849 389.3990430349 0.0246421884 -0.0033299510
-0.7093945684 0.1505843311 0.0000000000 0.4725514739 0.1715388982 402.5761711996 0.0246430656 -0.0033271753
-0.7151272854 0.1201215949 0.0000000000 0.4611726261 0.1372424759 413.4618184422 0.0246436922 -0.0033243475
-0.7195963608 0.0894479841 0.0000000000 0.4522705798 0.1020815338 421.9677481016 0.0246440741 -0.0033214891
-0.7227941532 0.0586158873 0.0000000000 0.4459160387 0.0662660661 428.0250053230 0.0246442166 -0.0033186215
-0.7247151941 0.0276779646 0.0000000000 0.4421601730 0.0300114782 431.5844828533 0.0246441247 -0.0033157658
-0.7253561970 -0.0033129427 0.0000000000 0.4410339996 -0.0064632684 432.6172932087 0.0246438030 -0.0033129424
-0.7247160640 -0.0343039021 0.0000000000 0.4425479625 -0.0429374833 431.1149732585 0.0246432548 -0.0033101711
-0.7227958869 -0.0652419800 0.0000000000 0.4466917477 -0.0791905486 427.0895356735 0.0246424829 -0.0033074706
-0.7195989457 -0.0960743320 0.0000000000 0.4534343567 -0.1150037029 420.5733770705 0.0246414891 -0.0033048582
-0.7151307033 -0.1267482929 0.0000000000 0.4627244742 -0.1501618321 411.6190497971 0.0246402742 -0.0033023499
-0.7093987959 -0.1572114665 0.0000000000 0.4744910806 -0.1844552871 400.2988749612 0.0246388380 -0.0032999595