 TITLE = "Tecplot data"
 VARIABLES = "X", "Y", "Z" "U", "V", "p", "dispX", "dispY"
 ZONE SOLUTIONTIME=12.900000, NODES=26114 , ELEMENTS=25916, DATAPACKING=POINT, ZONETYPE=FEQUADRILATERAL
0.3936697954 0.3544492989 0.0000000000 0.0000000000 0.0000000000 -244.0360924726 0.0401164048 0.0008959083
0.3936697957 -0.3526574820 0.0000000000 0.0000000000 0.0000000000 -244.1744646293 0.0401164048 0.0008959083
-0.3134369859 0.3544492988 0.0000000000 0.0000000000 0.0000000000 -94.8751779305 0.0401164048 0.0008959083
-0.3134369856 -0.3526574825 0.0000000000 0.0000000000 0.0000000000 -94.8964003953 0.0401164048 0.0008959083
0.5697631160 0.5313718835 0.0000000000 0.0713018004 0.0467768899 -231.2895522431 0.0394330302 0.0010417975
0.5714843343 -0.5290460373 0.0000000000 0.0677128195 -0.0476079553 -232.4621690624 0.0411542480 0.0012840482
-0.4890895414 0.5316558533 0.0000000000 0.8265111713 0.4763726355 86.1686422257 0.0412405447 0.0013257676
-0.4902543388 -0.5293833248 0.0000000000 0.8225681025 -0.4740053541 90.1952794407 0.0400757468 0.0009467614
1.1007588141 1.0616672604 0.0000000000 1.2885808855 0.1870255186 -306.0086199374 0.0400986425 0.0010070886
1.1010563888 -1.0592334480 0.0000000000 1.2835234104 -0.1858529581 -300.8247206641 0.0403962163 0.0014267230
-1.0182541635 1.0625784941 0.0000000000 0.9251133621 0.1808651770 93.0808688722 0.0424060086 0.0019183226
-1.0209954589 -1.0592695357 0.0000000000 0.9235943070 -0.1798628104 94.7596118772 0.0396647123 0.0013906366
4.2380741638 3.3010778602 0.0000000000 1.0426622213 -0.0567022451 -35.6232823703 0.0380741638 0.0010778602
4.2365942141 -3.2988715369 0.0000000000 1.0434830525 0.0577660086 -36.2073973181 0.0365942141 0.0011284631
20.0000000000 4.7000000000 0.0000000000 0.9995094487 -0.0016778890 0.0040361129 0.0000000000 0.0000000000
20.0000000000 -4.7000000000 0.0000000000 0.9995069141 0.0016740332 0.0044484531 0.0000000000 0.0000000000
-10.0000000000 15.0000000000 0.0000000000 1.0000000000 0.0000000000 6.9183616812 0.0000000000 0.0000000000
20.0000000000 15.0000000000 0.0000000000 1.0008987163 0.0000000000 -0.0001267035 0.0000000000 0.0000000000
20.0000000000 -15.0000000000 0.0000000000 1.0009031252 0.0000000000 0.0001196937 0.0000000000 0.0000000000
-10.0000000000 -15.0000000000 0.0000000000 1.0000000000 0.0000000000 7.1982777533 0.0000000000 0.0000000000
0.4066423410 -0.3391904603 0.0000000000 0.0000000000 0.0000000000 -243.3456359748 0.0401164048 0.0008959083
0.4191022666 -0.3252477971 0.0000000000 0.0000000000 0.0000000000 -243.1122568174 0.0401164048 0.0008959083
0.4310321463 -0.3108489924 0.0000000000 0.0000000000 0.0000000000 -242.9067873609 0.0401164048 0.0008959083
0.4424152949 -0.2960141842 0.0000000000 0.0000000000 0.0000000000 -242.8537994362 0.0401164048 0.0008959083
0.4532357922 -0.2807641205 0.0000000000 0.0000000000 0.0000000000 -242.7683057039 0.0401164048 0.0008959083
0.4634785046 -0.2651201297 0.0000000000 0.0000000000 0.0000000000 -242.6288597454 0.0401164048 0.0008959083
0.4731291069 -0.2491040914 0.0000000000 0.0000000000 0.0000000000 -242.3557310929 0.0401164048 0.0008959083
0.4821741017 -0.2327384056 0.0000000000 0.0000000000 0.0000000000 -241.9139709798 0.0401164048 0.0008959083
0.4906008389 -0.2160459610 0.0000000000 0.0000000000 0.0000000000 -241.2655337117 0.0401164048 0.0008959083
0.4983975329 -0.1990501036 0.0000000000 0.0000000000 0.0000000000 -240.3934866166 0.0401164048 0.0008959083
0.5055532793 -0.1817746036 0.0000000000 0.0000000000 0.0000000000 -239.2939580179 0.0401164048 0.0008959083
0.5120580701 -0.1642436224 0.0000000000 0.0000000000 0.0000000000 -237.9835766205 0.0401164048 0.0008959083
0.5179028078 -0.1464816786 0.0000000000 0.0000000000 0.0000000000 -236.4986919831 0.0401164048 0.0008959083
0.5230793180 -0.1285136140 0.0000000000 0.0000000000 0.0000000000 -234.8963383206 0.0401164048 0.0008959083
0.5275803610 -0.1103645584 0.0000000000 0.0000000000 0.0000000000 -233.2513496752 0.0401164048 0.0008959083
0.5313996415 -0.0920598950 0.0000000000 0.0000000000 0.0000000000 -231.6519327429 0.0401164048 0.0008959083
0.5345318180 -0.0736252245 0.0000000000 0.0000000000 0.0000000000 -230.1927771340 0.0401164048 0.0008959083
0.5369725098 -0.0550863295 0.0000000000 0.0000000000 0.0000000000 -228.9669306316 0.0401164048 0.0008959083
0.5387183034 -0.0364691383 0.0000000000 0.0000000000 0.0000000000 -228.0569982922 0.0401164048 0.0008959083
0.5397667572 -0.0177996886 0.0000000000 0.0000000000 0.0000000000 -227.5270974024 0.0401164048 0.0008959083
0.5401164048 0.0008959085 0.0000000000 0.0000000000 0.0000000000 -227.4158629803 0.0401164048 0.0008959083
0.5397667572 0.0195915056 0.0000000000 0.0000000000 0.0000000000 -227.7337408224 0.0401164048 0.0008959083
0.5387183034 0.0382609553 0.0000000000 0.0000000000 0.0000000000 -228.4579597226 0.0401164048 0.0008959083
0.5369725098 0.0568781465 0.0000000000 0.0000000000 0.0000000000 -229.5478022664 0.0401164048 0.0008959083
0.5345318179 0.0754170416 0.0000000000 0.0000000000 0.0000000000 -230.9195284293 0.0401164048 0.0008959083
0.5313996414 0.0938517121 0.0000000000 0.0000000000 0.0000000000 -232.5198592963 0.0401164048 0.0008959083
0.5275803609 0.1121563754 0.0000000000 0.0000000000 0.0000000000 -234.2336521750 0.0401164048 0.0008959083
0.5230793179 0.1303054310 0.0000000000 0.0000000000 0.0000000000 -235.5764950000 0.0401164048 0.0008959083
0.5179028077 0.1482734957 0.0000000000 0.0000000000 0.0000000000 -237.2088764416 0.0401164048 0.0008959083
0.5120580699 0.1660354394 0.0000000000 0.0000000000 0.0000000000 -238.4960785034 0.0401164048 0.0008959083
0.5055532791 0.1835664206 0.0000000000 0.0000000000 0.0000000000 -240.1200762529 0.0401164048 0.0008959083
0.4983975327 0.2008419206 0.0000000000 0.0000000000 0.0000000000 -240.8476526178 0.0401164048 0.0008959083
0.4906008387 0.2178377780 0.0000000000 0.0000000000 0.0000000000 -241.8938614764 0.0401164048 0.0008959083
0.4821741015 0.2345302225 0.0000000000 0.0000000000 0.0000000000 -242.3853759754 0.0401164048 0.0008959083
0.4731291067 0.2508959084 0.0000000000 0.0000000000 0.0000000000 -242.7172929443 0.0401164048 0.0008959083
0.4634785044 0.2669119467 0.0000000000 0.0000000000 0.0000000000 -242.8327716796 0.0401164048 0.0008959083
0.4532357919 0.2825559374 0.0000000000 0.0000000000 0.0000000000 -242.8646466117 0.0401164048 0.0008959083
0.4424152947 0.2978060012 0.0000000000 0.0000000000 0.0000000000 -242.8626220141 0.0401164048 0.0008959083
0.4310321460 0.3126408093 0.0000000000 0.0000000000 0.0000000000 -242.8394826901 0.0401164048 0.0008959083
0.4191022664 0.3270396140 0.0000000000 0.0000000000 0.0000000000 -243.0087362805 0.0401164048 0.0008959083
0.4066423407 0.3409822772 0.0000000000 0.0000000000 0.0000000000 -243.2414544374 0.0401164048 0.0008959083
0.3787571906 0.3687578637 0.0000000000 0.0000000000 0.0000000000 -245.0430142272 0.0401164048 0.0008959083
0.3632660237 0.3824379425 0.0000000000 0.0000000000 0.0000000000 -246.9313572337 0.0401164048 0.0008959083
0.3472227611 0.3954661630 0.0000000000 0.0000000000 0.0000000000 -249.3429806741 0.0401164048 0.0008959083
0.3306548125 0.4078202670 0.0000000000 0.0000000000 0.0000000000 -252.5503173923 0.0401164048 0.0008959083
0.3135904838 0.4194791475 0.0000000000 0.0000000000 0.0000000000 -256.4176773505 0.0401164048 0.0008959083
0.2960589293 0.4304228855 0.0000000000 0.0000000000 0.0000000000 -261.0272112300 0.0401164048 0.0008959083
0.2780901013 0.4406327840 0.0000000000 0.0000000000 0.0000000000 -266.3576187171 0.0401164048 0.0008959083
0.2597146992 0.4500913993 0.0000000000 0.0000000000 0.0000000000 -272.4905710920 0.0401164048 0.0008959083
0.2409641171 0.4587825717 0.0000000000 0.0000000000 0.0000000000 -279.4956678086 0.0401164048 0.0008959083
0.2218703900 0.4666914524 0.0000000000 0.0000000000 0.0000000000 -287.4762695261 0.0401164048 0.0008959083
0.2024661394 0.4738045292 0.0000000000 0.0000000000 0.0000000000 -296.5133107077 0.0401164048 0.0008959083
0.1827845169 0.4801096496 0.0000000000 0.0000000000 0.0000000000 -306.6658705686 0.0401164048 0.0008959083
0.1628591483 0.4855960413 0.0000000000 0.0000000000 0.0000000000 -317.9451106659 0.0401164048 0.0008959083
0.1427240758 0.4902543310 0.0000000000 0.0000000000 0.0000000000 -330.3081892098 0.0401164048 0.0008959083
0.1224136999 0.4940765600 0.0000000000 0.0000000000 0.0000000000 -343.6442431197 0.0401164048 0.0008959083
0.1019627204 0.4970561982 0.0000000000 0.0000000000 0.0000000000 -357.7673815304 0.0401164048 0.0008959083
0.0814060775 0.4991881548 0.0000000000 0.0000000000 0.0000000000 -372.4100261074 0.0401164048 0.0008959083
0.0607788919 0.5004687875 0.0000000000 0.0000000000 0.0000000000 -387.2227618278 0.0401164048 0.0008959083
0.0401164047 0.5008959083 0.0000000000 0.0000000000 0.0000000000 -401.7794866010 0.0401164048 0.0008959083
0.0194539176 0.5004687875 0.0000000000 0.0000000000 0.0000000000 -415.5894823233 0.0401164048 0.0008959083
-0.0011732680 0.4991881548 0.0000000000 0.0000000000 0.0000000000 -428.1150825378 0.0401164048 0.0008959083
-0.0217299109 0.4970561982 0.0000000000 0.0000000000 0.0000000000 -438.7938620007 0.0401164048 0.0008959083
-0.0421808904 0.4940765600 0.0000000000 0.0000000000 0.0000000000 -447.0631638353 0.0401164048 0.0008959083
-0.0624912664 0.4902543310 0.0000000000 0.0000000000 0.0000000000 -452.3848661802 0.0401164048 0.0008959083
-0.0826263388 0.4855960413 0.0000000000 0.0000000000 0.0000000000 -454.2682850205 0.0401164048 0.0008959083
-0.1025517074 0.4801096495 0.0000000000 0.0000000000 0.0000000000 -452.2896126692 0.0401164048 0.0008959083
-0.1222333299 0.4738045291 0.0000000000 0.0000000000 0.0000000000 -446.1068423235 0.0401164048 0.0008959083
-0.1416375806 0.4666914523 0.0000000000 0.0000000000 0.0000000000 -435.4697677269 0.0401164048 0.0008959083
-0.1607313076 0.4587825716 0.0000000000 0.0000000000 0.0000000000 -420.2251801248 0.0401164048 0.0008959083
-0.1794818897 0.4500913992 0.0000000000 0.0000000000 0.0000000000 -400.3177865383 0.0401164048 0.0008959083
-0.1978572918 0.4406327839 0.0000000000 0.0000000000 0.0000000000 -375.7876015130 0.0401164048 0.0008959083
-0.2158261198 0.4304228854 0.0000000000 0.0000000000 0.0000000000 -346.7646411007 0.0401164048 0.0008959083
-0.2333576743 0.4194791474 0.0000000000 0.0000000000 0.0000000000 -313.4617038145 0.0401164048 0.0008959083
-0.2504220030 0.4078202669 0.0000000000 0.0000000000 0.0000000000 -276.1659054870 0.0401164048 0.0008959083
-0.2669899516 0.3954661629 0.0000000000 0.0000000000 0.0000000000 -235.2294872779 0.0401164048 0.0008959083
-0.2830332142 0.3824379423 0.0000000000 0.0000000000 0.0000000000 -191.0602765862 0.0401164048 0.0008959083
-0.2985243811 0.3687578635 0.0000000000 0.0000000000 0.0000000000 -144.1120745127 0.0401164048 0.0008959083
-0.3277455506 0.3395366940 0.0000000000 0.0000000000 0.0000000000 -43.8672132515 0.0401164048 0.0008959083
-0.3414256294 0.3240455271 0.0000000000 0.0000000000 0.0000000000 8.3755572221 0.0401164048 0.0008959083
-0.3544538500 0.3080022645 0.0000000000 0.0000000000 0.0000000000 61.3063223087 0.0401164048 0.0008959083
-0.3668079539 0.2914343159 0.0000000000 0.0000000000 0.0000000000 114.3751100439 0.0401164048 0.0008959083
-0.3784668344 0.2743699872 0.0000000000 0.0000000000 0.0000000000 167.0354438567 0.0401164048 0.0008959083
-0.3894105724 0.2568384327 0.0000000000 0.0000000000 0.0000000000 218.7502974465 0.0401164048 0.0008959083
-0.3996204708 0.2388696047 0.0000000000 0.0000000000 0.0000000000 268.9974234793 0.0401164048 0.0008959083
-0.4090790862 0.2204942026 0.0000000000 0.0000000000 0.0000000000 317.2741493366 0.0401164048 0.0008959083
-0.4177702586 0.2017436205 0.0000000000 0.0000000000 0.0000000000 363.1017336586 0.0401164048 0.0008959083
-0.4256791393 0.1826498934 0.0000000000 0.0000000000 0.0000000000 406.0293482580 0.0401164048 0.0008959083
-0.4327922161 0.1632456427 0.0000000000 0.0000000000 0.0000000000 445.6377348885 0.0401164048 0.0008959083
-0.4390973364 0.1435640203 0.0000000000 0.0000000000 0.0000000000 481.5425421975 0.0401164048 0.0008959083
-0.4445837282 0.1236386517 0.0000000000 0.0000000000 0.0000000000 513.3973668530 0.0401164048 0.0008959083
-0.4492420179 0.1035035792 0.0000000000 0.0000000000 0.0000000000 540.8964446979 0.0401164048 0.0008959083
-0.4530642469 0.0831932033 0.0000000000 0.0000000000 0.0000000000 563.7770636050 0.0401164048 0.0008959083
-0.4560438851 0.0627422238 0.0000000000 0.0000000000 0.0000000000 581.8215250016 0.0401164048 0.0008959083
-0.4581758417 0.0421855809 0.0000000000 0.0000000000 0.0000000000 594.8589464169 0.0401164048 0.0008959083
-0.4594564744 0.0215583952 0.0000000000 0.0000000000 0.0000000000 602.7663312790 0.0401164048 0.0008959083
-0.4598835952 0.0008959081 0.0000000000 0.0000000000 0.0000000000 605.4699635321 0.0401164048 0.0008959083
-0.4594564743 -0.0197665790 0.0000000000 0.0000000000 0.0000000000 602.9451469637 0.0401164048 0.0008959083
-0.4581758416 -0.0403937646 0.0000000000 0.0000000000 0.0000000000 595.2179708147 0.0401164048 0.0008959083
-0.4560438850 -0.0609504075 0.0000000000 0.0000000000 0.0000000000 582.3622637069 0.0401164048 0.0008959083
-0.4530642468 -0.0814013870 0.0000000000 0.0000000000 0.0000000000 564.5044199161 0.0401164048 0.0008959083
-0.4492420178 -0.1017117630 0.0000000000 0.0000000000 0.0000000000 541.8125826925 0.0401164048 0.0008959083
-0.4445837281 -0.1218468355 0.0000000000 0.0000000000 0.0000000000 514.5137724538 0.0401164048 0.0008959083
-0.4390973363 -0.1417722040 0.0000000000 0.0000000000 0.0000000000 482.8581098658 0.0401164048 0.0008959083
-0.4327922159 -0.1614538265 0.0000000000 0.0000000000 0.0000000000 447.1802771979 0.0401164048 0.0008959083
-0.4256791391 -0.1808580772 0.0000000000 0.0000000000 0.0000000000 407.7788257918 0.0401164048 0.0008959083
-0.4177702584 -0.1999518042 0.0000000000 0.0000000000 0.0000000000 365.1347458265 0.0401164048 0.0008959083
-0.4090790860 -0.2187023863 0.0000000000 0.0000000000 0.0000000000 319.4922453452 0.0401164048 0.0008959083
-0.3996204707 -0.2370777884 0.0000000000 0.0000000000 0.0000000000 271.6427833472 0.0401164048 0.0008959083
-0.3894105722 -0.2550466164 0.0000000000 0.0000000000 0.0000000000 221.4173987496 0.0401164048 0.0008959083
-0.3784668342 -0.2725781709 0.0000000000 0.0000000000 0.0000000000 170.5874816837 0.0401164048 0.0008959083
-0.3668079537 -0.2896424996 0.0000000000 0.0000000000 0.0000000000 117.1748174890 0.0401164048 0.0008959083
-0.3544538497 -0.3062104482 0.0000000000 0.0000000000 0.0000000000 66.8089608379 0.0401164048 0.0008959083
-0.3414256291 -0.3222537108 0.0000000000 0.0000000000 0.0000000000 10.2328944904 0.0401164048 0.0008959083
-0.3277455503 -0.3377448777 0.0000000000 0.0000000000 0.0000000000 -16.9578750415 0.0401164048 0.0008959083
-0.2985243808 -0.3669660472 0.0000000000 0.0000000000 0.0000000000 -135.4999975967 0.0401164048 0.0008959083
-0.2830332139 -0.3806461260 0.0000000000 0.0000000000 0.0000000000 -193.2604936777 0.0401164048 0.0008959083
-0.2669899513 -0.3936743465 0.0000000000 0.0000000000 0.0000000000 -230.2639917328 0.0401164048 0.0008959083
-0.2504220026 -0.4060284505 0.0000000000 0.0000000000 0.0000000000 -270.2071366061 0.0401164048 0.0008959083
-0.2333576740 -0.4176873310 0.0000000000 0.0000000000 0.0000000000 -306.4955699349 0.0401164048 0.0008959083
-0.2158261195 -0.4286310690 0.0000000000 0.0000000000 0.0000000000 -339.6557955632 0.0401164048 0.0008959083
-0.1978572914 -0.4388409674 0.0000000000 0.0000000000 0.0000000000 -368.2651319970 0.0401164048 0.0008959083
-0.1794818893 -0.4482995828 0.0000000000 0.0000000000 0.0000000000 -392.5472158114 0.0401164048 0.0008959083
-0.1607313072 -0.4569907551 0.0000000000 0.0000000000 0.0000000000 -412.2161690770 0.0401164048 0.0008959083
-0.1416375802 -0.4648996358 0.0000000000 0.0000000000 0.0000000000 -427.2983152275 0.0401164048 0.0008959083
-0.1222333295 -0.4720127126 0.0000000000 0.0000000000 0.0000000000 -437.8305793078 0.0401164048 0.0008959083
-0.1025517070 -0.4783178330 0.0000000000 0.0000000000 0.0000000000 -443.9819009231 0.0401164048 0.0008959083
-0.0826263385 -0.4838042247 0.0000000000 0.0000000000 0.0000000000 -446.0016721191 0.0401164048 0.0008959083
-0.0624912660 -0.4884625144 0.0000000000 0.0000000000 0.0000000000 -444.2373860647 0.0401164048 0.0008959083
-0.0421808900 -0.4922847434 0.0000000000 0.0000000000 0.0000000000 -439.1120455723 0.0401164048 0.0008959083
-0.0217299105 -0.4952643816 0.0000000000 0.0000000000 0.0000000000 -431.1151712896 0.0401164048 0.0008959083
-0.0011732676 -0.4973963382 0.0000000000 0.0000000000 0.0000000000 -420.7793553827 0.0401164048 0.0008959083
0.0194539180 -0.4986769709 0.0000000000 0.0000000000 0.0000000000 -408.6593590918 0.0401164048 0.0008959083
0.0401164051 -0.4991040917 0.0000000000 0.0000000000 0.0000000000 -395.3064605991 0.0401164048 0.0008959083
0.0607788923 -0.4986769709 0.0000000000 0.0000000000 0.0000000000 -381.2452395317 0.0401164048 0.0008959083
0.0814060779 -0.4973963382 0.0000000000 0.0000000000 0.0000000000 -366.9519897078 0.0401164048 0.0008959083
0.1019627208 -0.4952643815 0.0000000000 0.0000000000 0.0000000000 -352.8382986531 0.0401164048 0.0008959083
0.1224137003 -0.4922847433 0.0000000000 0.0000000000 0.0000000000 -339.2400865550 0.0401164048 0.0008959083
0.1427240762 -0.4884625143 0.0000000000 0.0000000000 0.0000000000 -326.4131662471 0.0401164048 0.0008959083
0.1628591487 -0.4838042246 0.0000000000 0.0000000000 0.0000000000 -314.5344436947 0.0401164048 0.0008959083
0.1827845173 -0.4783178328 0.0000000000 0.0000000000 0.0000000000 -303.7080111625 0.0401164048 0.0008959083
0.2024661398 -0.4720127124 0.0000000000 0.0000000000 0.0000000000 -293.9737727613 0.0401164048 0.0008959083
0.2218703904 -0.4648996356 0.0000000000 0.0000000000 0.0000000000 -285.3185992868 0.0401164048 0.0008959083
0.2409641175 -0.4569907549 0.0000000000 0.0000000000 0.0000000000 -277.6870209458 0.0401164048 0.0008959083
0.2597146996 -0.4482995825 0.0000000000 0.0000000000 0.0000000000 -270.9982667203 0.0401164048 0.0008959083
0.2780901017 -0.4388409671 0.0000000000 0.0000000000 0.0000000000 -265.1587355142 0.0401164048 0.0008959083
0.2960589297 -0.4286310687 0.0000000000 0.0000000000 0.0000000000 -260.0931843489 0.0401164048 0.0008959083
0.3135904842 -0.4176873306 0.0000000000 0.0000000000 0.0000000000 -255.7349131886 0.0401164048 0.0008959083
0.3306548128 -0.4060284501 0.0000000000 0.0000000000 0.0000000000 -252.0830021167 0.0401164048 0.0008959083
0.3472227615 -0.3936743462 0.0000000000 0.0000000000 0.0000000000 -249.0760605884 0.0401164048 0.0008959083
0.3632660240 -0.3806461256 0.0000000000 0.0000000000 0.0000000000 -246.8208312208 0.0401164048 0.0008959083
0.3787571909 -0.3669660468 0.0000000000 0.0000000000 0.0000000000 -245.0302209450 0.0401164048 0.0008959083
0.5908638501 -0.5088234457 0.0000000000 0.0462438784 -0.0615428596 -233.2066321615 0.0410749458 0.0013061073
0.6095001050 -0.4878942056 0.0000000000 0.0337950352 -0.0790026948 -234.4733173235 0.0410213123 0.0013213525
0.6273443425 -0.4662796177 0.0000000000 0.0266501587 -0.0981307780 -236.2021714133 0.0409707303 0.0013377333
0.6443660520 -0.4440107488 0.0000000000 0.0215453651 -0.1170667644 -238.2559963380 0.0409177169 0.0013543900
0.6605395861 -0.4211195829 0.0000000000 0.0161391344 -0.1342489176 -240.4874884698 0.0408605051 0.0013704602
0.6758417990 -0.3976387273 0.0000000000 0.0090642756 -0.1485517506 -242.7493567801 0.0407986493 0.0013853297
0.6902513350 -0.3736014359 0.0000000000 -0.0002713079 -0.1592826357 -244.8978541829 0.0407322820 0.0013985637
0.7037483645 -0.3490416149 0.0000000000 -0.0119402379 -0.1661098646 -246.7996248709 0.0406618191 0.0014098559
0.7163144716 -0.3239938069 0.0000000000 -0.0257009012 -0.1689727304 -248.3424336516 0.0405878204 0.0014189970
0.7279326089 -0.2984931661 0.0000000000 -0.0411332681 -0.1679953245 -249.4459281685 0.0405109168 0.0014258517
0.7385870836 -0.2725754252 0.0000000000 -0.0577228938 -0.1634128636 -250.0690123808 0.0404317720 0.0014303427
0.7482635594 -0.2462768570 0.0000000000 -0.0749126607 -0.1555159457 -250.2125758980 0.0403510615 0.0014324391
0.7569490637 -0.2196342309 0.0000000000 -0.0921350061 -0.1446151231 -249.9178653056 0.0402694593 0.0014321496
0.7646319967 -0.1926847657 0.0000000000 -0.1088325875 -0.1310239596 -249.2613533654 0.0401876269 0.0014295178
0.7713021390 -0.1654660812 0.0000000000 -0.1244728912 -0.1150554630 -248.3469750391 0.0401062048 0.0014246189
0.7769506591 -0.1380161479 0.0000000000 -0.1385605314 -0.0970258072 -247.2964573339 0.0400258041 0.0014175572
0.7815701209 -0.1103732368 0.0000000000 -0.1506493027 -0.0772602088 -246.2383937768 0.0399470012 0.0014084625
0.7851544907 -0.0825758693 0.0000000000 -0.1603545585 -0.0560976091 -245.2967664259 0.0398703333 0.0013974875
0.7876991439 -0.0546627664 0.0000000000 -0.1673654280 -0.0338925424 -244.5797525461 0.0397962960 0.0013848034
0.7892008706 -0.0266727993 0.0000000000 -0.1714558109 -0.0110138487 -244.1697722600 0.0397253420 0.0013705961
0.7896578806 0.0013550618 0.0000000000 -0.1724929582 0.0121593164 -244.1157446492 0.0396578806 0.0013550615
0.7890698066 0.0293817972 0.0000000000 -0.1704426397 0.0352433039 -244.4283727500 0.0395942780 0.0013384012
0.7874377071 0.0573683896 0.0000000000 -0.1653702987 0.0578565648 -245.0789797496 0.0395348593 0.0013208191
0.7847640682 0.0852758744 0.0000000000 -0.1574380877 0.0796258996 -246.0020247161 0.0394799108 0.0013025171
0.7810528049 0.1130653923 0.0000000000 -0.1468981847 0.1001912787 -247.1010087706 0.0394296852 0.0012836924
0.7763092629 0.1406982406 0.0000000000 -0.1340832238 0.1192082672 -248.2571271494 0.0393844080 0.0012645350
0.7705402187 0.1681359259 0.0000000000 -0.1193949592 0.1363473704 -249.3397939594 0.0393442846 0.0012452252
0.7637538790 0.1953402163 0.0000000000 -0.1032923198 0.1512901713 -250.2180951148 0.0393095093 0.0012259323
0.7559598773 0.2222731950 0.0000000000 -0.0862797088 0.1637230926 -250.7722881581 0.0392802730 0.0012068139
0.7471692674 0.2488973139 0.0000000000 -0.0688956852 0.1733310666 -250.9045896641 0.0392567697 0.0011880173
0.7373945112 0.2751754502 0.0000000000 -0.0517010200 0.1797951644 -250.5485696735 0.0392391998 0.0011696818
0.7266494599 0.3010709633 0.0000000000 -0.0352637133 0.1827997486 -249.6764312435 0.0392277681 0.0011519449
0.7149493243 0.3265477544 0.0000000000 -0.0201371736 0.1820549546 -248.3032970795 0.0392226735 0.0011349499
0.7023106315 0.3515703271 0.0000000000 -0.0068264582 0.1773383037 -246.4874805600 0.0392240864 0.0011188557
0.6887511637 0.3761038438 0.0000000000 0.0042649551 0.1685552738 -244.3258634211 0.0392321110 0.0011038437
0.6742898802 0.4001141765 0.0000000000 0.0129217338 0.1558150390 -241.9444239061 0.0392467308 0.0010901190
0.6589468296 0.4235679425 0.0000000000 0.0192608887 0.1395169809 -239.4861523886 0.0392677490 0.0010778988
0.6427430658 0.4464325266 0.0000000000 0.0239575341 0.1204423990 -237.1012918883 0.0392947310 0.0010673873
0.6257005619 0.4686760954 0.0000000000 0.0285291036 0.0998298837 -234.9441863551 0.0393269501 0.0010587440
0.6078420338 0.4902676112 0.0000000000 0.0355429641 0.0793735639 -233.1726787409 0.0393632415 0.0010520527
0.5891903413 0.5111769077 0.0000000000 0.0485109062 0.0610550450 -231.9314098444 0.0394014375 0.0010473543
0.5474454351 0.5528215985 0.0000000000 0.1120863190 0.0374025106 -231.4253942592 0.0394842565 0.0010286654
0.5242610985 0.5733281150 0.0000000000 0.1715233250 0.0353766760 -232.2110391381 0.0395366702 0.0010150638
0.5002551432 0.5928595280 0.0000000000 0.2496116523 0.0403417664 -233.4858536142 0.0395956087 0.0010041459
0.4754685326 0.6113824791 0.0000000000 0.3441269589 0.0513983481 -235.0938628523 0.0396609211 0.0009959411
0.4499428814 0.6288652328 0.0000000000 0.4511668639 0.0675809787 -236.9694926227 0.0397317629 0.0009903740
0.4237209043 0.6452776604 0.0000000000 0.5655550369 0.0879578622 -239.1190212352 0.0398071176 0.0009871946
0.3968465361 0.6605913951 0.0000000000 0.6812390215 0.1114742687 -241.5563450919 0.0398859914 0.0009860817
0.3693649060 0.6747799591 0.0000000000 0.7919698908 0.1368393918 -244.2391237121 0.0399674644 0.0009867226
0.3413222632 0.6878188464 0.0000000000 0.8922386456 0.1626180853 -247.0442465011 0.0400506948 0.0009888513
0.3127658912 0.6996855668 0.0000000000 0.9781290134 0.1874709436 -249.7916949720 0.0401349134 0.0009922507
0.2837440237 0.7103596709 0.0000000000 1.0477505332 0.2103941259 -252.2913345634 0.0402194219 0.0009967396
0.2543057645 0.7198227691 0.0000000000 1.1011528297 0.2308503660 -254.3805446657 0.0403035965 0.0010021572
0.2245010066 0.7280585524 0.0000000000 1.1398523771 0.2487653885 -255.9389570485 0.0403868914 0.0010083530
0.1943803483 0.7350528157 0.0000000000 1.1661994075 0.2644240276 -256.8837257297 0.0404688418 0.0010151817
0.1639950042 0.7407934813 0.0000000000 1.1827869556 0.2783219964 -257.1543565440 0.0405490616 0.0010225037
0.1333967112 0.7452706232 0.0000000000 1.1920205134 0.2910229089 -256.6952336692 0.0406272379 0.0010301884
0.1026376291 0.7484764910 0.0000000000 1.1958800846 0.3030507202 -255.4415022284 0.0407031201 0.0010381212
0.0717702378 0.7504055309 0.0000000000 1.1958460924 0.3148269798 -253.3112260558 0.0407765073 0.0010462121
0.0408472327 0.7510544035 0.0000000000 1.1929340311 0.3266473387 -250.2041669744 0.0408472328 0.0010544035
0.0099214183 0.7504219963 0.0000000000 1.1877829342 0.3386848882 -246.0057098091 0.0409151491 0.0010626775
-0.0209543974 0.7485094293 0.0000000000 1.1807570247 0.3510076036 -240.5937158384 0.0409801119 0.0010710595
-0.0517275078 0.7453200530 0.0000000000 1.1720372142 0.3636003345 -233.8462637484 0.0410419658 0.0010796182
-0.0823454116 0.7408594384 0.0000000000 1.1616930364 0.3763857288 -225.6488850411 0.0411005313 0.0010884609
-0.1127559139 0.7351353594 0.0000000000 1.1497342371 0.3892416675 -215.9005995746 0.0411555929 0.0010977255
-0.1429072254 0.7281577687 0.0000000000 1.1361452997 0.4020147900 -204.5185725528 0.0412068901 0.0011075693
-0.1727480583 0.7199387683 0.0000000000 1.1209072843 0.4145306519 -191.4414961452 0.0412541100 0.0011181565
-0.2022277189 0.7104925753 0.0000000000 1.1040109537 0.4266013510 -176.6318995187 0.0412968832 0.0011296441
-0.2312961968 0.6998354853 0.0000000000 1.0854642332 0.4380314008 -160.0775892192 0.0413347813 0.0011421694
-0.2599042515 0.6879858317 0.0000000000 1.0652961142 0.4486224496 -141.7923803668 0.0413673171 0.0011558368
-0.2880034962 0.6749639426 0.0000000000 1.0435583635 0.4581772485 -121.8162338976 0.0413939456 0.0011707063
-0.3155464837 0.6607920954 0.0000000000 1.0203258708 0.4665031126 -100.2148802832 0.0414140612 0.0011867821
-0.3424867997 0.6454944664 0.0000000000 0.9956961272 0.4734150056 -77.0789861768 0.0414269873 0.0012040007
-0.3687791788 0.6290970753 0.0000000000 0.9697881122 0.4787383025 -52.5229044631 0.0414319399 0.0012222167
-0.3943796831 0.6116277178 0.0000000000 0.9427407381 0.4823112233 -26.6830146027 0.0414279286 0.0012411800
-0.4192460502 0.5931158746 0.0000000000 0.9147108999 0.4839868578 0.2843638176 0.0414134845 0.0012604927
-0.4433385842 0.5735926080 0.0000000000 0.8858709985 0.4836344007 28.2058832468 0.0413858444 0.0012795570
-0.4666230485 0.5530907564 0.0000000000 0.8564057160 0.4811381506 56.8953775178 0.0413381303 0.0012978235
-0.5105366032 0.5093067844 0.0000000000 0.7964693363 0.4694190088 115.6741458487 0.0412563300 0.0013456059
-0.5310884448 0.4860982564 0.0000000000 0.7664151374 0.4600991139 145.3220979981 0.0412246065 0.0013738282
-0.5506816485 0.4620591665 0.0000000000 0.7365821057 0.4484096968 174.8621661029 0.0411737337 0.0013996321
-0.5692759752 0.4372306544 0.0000000000 0.7071947855 0.4343565278 204.0564682767 0.0411105629 0.0014230431
-0.5868367948 0.4116550703 0.0000000000 0.6784759365 0.4179634451 232.6704834615 0.0410380641 0.0014439519
-0.6033324664 0.3853759234 0.0000000000 0.6506440002 0.3992758526 260.4736773892 0.0409579995 0.0014621368
-0.6187336060 0.3584379005 0.0000000000 0.6239116431 0.3783603712 287.2411618602 0.0408717076 0.0014773559
-0.6330128740 0.3308868387 0.0000000000 0.5984837643 0.3553042388 312.7557863207 0.0407803625 0.0014893973
-0.6461449266 0.3027696686 0.0000000000 0.5745556170 0.3302143320 336.8102260242 0.0406850685 0.0014981004
-0.6581064235 0.2741343427 0.0000000000 0.5523110315 0.3032159797 359.2089680536 0.0405868926 0.0015033650
-0.6688760582 0.2450297555 0.0000000000 0.5319207964 0.2744515985 379.7701440107 0.0404868732 0.0015051539
-0.6784345954 0.2155056584 0.0000000000 0.5135412115 0.2440791898 398.3271854425 0.0403860165 0.0015034905
-0.6867649089 0.1856125706 0.0000000000 0.4973128291 0.2122707216 414.7302889141 0.0402852906 0.0014984555
-0.6938520162 0.1554016885 0.0000000000 0.4833593842 0.1792104131 428.8476856586 0.0401856179 0.0014901821
-0.6996831071 0.1249247917 0.0000000000 0.4717868880 0.1450929315 440.5667135290 0.0400878705 0.0014788493
-0.7042475658 0.0942341486 0.0000000000 0.4626828405 0.1101215157 449.7946856169 0.0399928691 0.0014646755
-0.7075369841 0.0633824191 0.0000000000 0.4561155239 0.0745060572 456.4595462946 0.0399013857 0.0014479103
-0.7095451692 0.0324225555 0.0000000000 0.4521333802 0.0384611841 460.5103121143 0.0398141496 0.0014288251
-0.7102681454 0.0014077021 0.0000000000 0.4507645322 0.0022043875 461.9173101689 0.0397318546 0.0014077025
-0.7097041517 -0.0296089076 0.0000000000 0.4520165258 -0.0340457972 460.6722444309 0.0396551671 0.0013848234
-0.7078536386 -0.0605740534 0.0000000000 0.4558763209 -0.0700715547 456.7881059218 0.0395847312 0.0013604560
-0.7047192606 -0.0914346305 0.0000000000 0.4623105562 -0.1056575067 450.2989423307 0.0395211741 0.0013348433
-0.7003058669 -0.1221377485 0.0000000000 0.4712661155 -0.1405924056 441.2595026598 0.0394651106 0.0013081945
-0.6946204837 -0.1526308288 0.0000000000 0.4826709121 -0.1746708358 429.7447377997 0.0394171503 0.0012806782
-0.6876722883 -0.1828616967 0.0000000000 0.4964347947 -0.2076949161 415.8491399911 0.0393779111 0.0012524190
-0.6794725688 -0.2127786697 0.0000000000 0.5124504966 -0.2394759824 399.6859106335 0.0393480430 0.0012234988