 TITLE = "Tecplot data"
 VARIABLES = "X", "Y", "Z" "U", "V", "p", "dispX", "dispY"
 ZONE SOLUTIONTIME=24.900000, NODES=26114 , ELEMENTS=25916, DATAPACKING=POINT, ZONETYPE=FEQUADRILATERAL
0.3738187999 0.3487070220 0.0000000000 0.0000000000 0.0000000000 -204.1808215437 0.0202654093 -0.0048463686
0.3738188002 -0.3583997590 0.0000000000 0.0000000000 0.0000000000 -241.9325733756 0.0202654093 -0.0048463686
-0.3332879814 0.3487070219 0.0000000000 0.0000000000 0.0000000000 -59.9119134094 0.0202654093 -0.0048463686
-0.3332879811 -0.3583997594 0.0000000000 0.0000000000 0.0000000000 -92.0918133893 0.0202654093 -0.0048463686
0.5502462951 0.5255629818 0.0000000000 0.0678747473 0.0171997049 -199.7916060512 0.0199162092 -0.0047671041
0.5510804204 -0.5351641529 0.0000000000 0.0666175048 -0.0623790238 -234.1216998293 0.0207503341 -0.0048340674
-0.5095771317 0.5255533075 0.0000000000 0.8033861783 0.4736179116 96.9906347133 0.0207529544 -0.0047767782
-0.5100382308 -0.5352393662 0.0000000000 0.8185683215 -0.4913776929 75.9583529420 0.0202918548 -0.0049092801
1.0808298370 1.0558010186 0.0000000000 1.1287599182 0.1943039947 -140.5326063124 0.0201696653 -0.0048591533
1.0811103753 -1.0653826053 0.0000000000 1.2215878959 -0.1402571812 -245.4185322065 0.0204502028 -0.0047224343
-1.0394669163 1.0558316628 0.0000000000 0.9082122199 0.1826817348 102.4032436199 0.0211932558 -0.0048285086
-1.0404779594 -1.0656400175 0.0000000000 0.9183749685 -0.1882487750 90.2252006254 0.0201822118 -0.0049798452
4.2187139208 3.2958360033 0.0000000000 1.0990081389 -0.0701274428 -85.4393273247 0.0187139208 -0.0041639967
4.2189963872 -3.3041242789 0.0000000000 1.1110503326 0.0335557349 -73.6202052607 0.0189963872 -0.0041242789
20.0000000000 4.7000000000 0.0000000000 1.0019959150 -0.0043210016 0.0012261606 0.0000000000 0.0000000000
20.0000000000 -4.7000000000 0.0000000000 1.0017359949 0.0042712680 0.0024561732 0.0000000000 0.0000000000
-10.0000000000 15.0000000000 0.0000000000 1.0000000000 0.0000000000 4.5244101062 0.0000000000 0.0000000000
20.0000000000 15.0000000000 0.0000000000 1.0008094094 0.0000000000 -0.0077631516 0.0000000000 0.0000000000
20.0000000000 -15.0000000000 0.0000000000 1.0005287787 0.0000000000 -0.0076603753 0.0000000000 0.0000000000
-10.0000000000 -15.0000000000 0.0000000000 1.0000000000 0.0000000000 2.1130482020 0.0000000000 0.0000000000
0.3867913455 -0.3449327373 0.0000000000 0.0000000000 0.0000000000 -240.6403660348 0.0202654093 -0.0048463686
0.3992512711 -0.3309900740 0.0000000000 0.0000000000 0.0000000000 -239.9759060204 0.0202654093 -0.0048463686
0.4111811508 -0.3165912693 0.0000000000 0.0000000000 0.0000000000 -239.1765458646 0.0202654093 -0.0048463686
0.4225642994 -0.3017564612 0.0000000000 0.0000000000 0.0000000000 -238.5072080786 0.0202654093 -0.0048463686
0.4333847967 -0.2865063974 0.0000000000 0.0000000000 0.0000000000 -237.7635875868 0.0202654093 -0.0048463686
0.4436275091 -0.2708624066 0.0000000000 0.0000000000 0.0000000000 -236.9673785906 0.0202654093 -0.0048463686
0.4532781114 -0.2548463684 0.0000000000 0.0000000000 0.0000000000 -236.0479832203 0.0202654093 -0.0048463686
0.4623231062 -0.2384806825 0.0000000000 0.0000000000 0.0000000000 -234.9891241473 0.0202654093 -0.0048463686
0.4707498434 -0.2217882379 0.0000000000 0.0000000000 0.0000000000 -233.7612026439 0.0202654093 -0.0048463686
0.4785465374 -0.2047923805 0.0000000000 0.0000000000 0.0000000000 -232.3522330994 0.0202654093 -0.0048463686
0.4857022838 -0.1875168806 0.0000000000 0.0000000000 0.0000000000 -230.7533102202 0.0202654093 -0.0048463686
0.4922070746 -0.1699858994 0.0000000000 0.0000000000 0.0000000000 -228.9653245775 0.0202654093 -0.0048463686
0.4980518123 -0.1522239556 0.0000000000 0.0000000000 0.0000000000 -226.9957800001 0.0202654093 -0.0048463686
0.5032283225 -0.1342558909 0.0000000000 0.0000000000 0.0000000000 -224.8601352974 0.0202654093 -0.0048463686
0.5077293655 -0.1161068354 0.0000000000 0.0000000000 0.0000000000 -222.5807039112 0.0202654093 -0.0048463686
0.5115486460 -0.0978021720 0.0000000000 0.0000000000 0.0000000000 -220.1862913308 0.0202654093 -0.0048463686
0.5146808225 -0.0793675015 0.0000000000 0.0000000000 0.0000000000 -217.7109799489 0.0202654093 -0.0048463686
0.5171215143 -0.0608286065 0.0000000000 0.0000000000 0.0000000000 -215.1928359096 0.0202654093 -0.0048463686
0.5188673079 -0.0422114152 0.0000000000 0.0000000000 0.0000000000 -212.6722397048 0.0202654093 -0.0048463686
0.5199157617 -0.0235419656 0.0000000000 0.0000000000 0.0000000000 -210.1901300274 0.0202654093 -0.0048463686
0.5202654093 -0.0048463684 0.0000000000 0.0000000000 0.0000000000 -207.7862035511 0.0202654093 -0.0048463686
0.5199157617 0.0138492287 0.0000000000 0.0000000000 0.0000000000 -205.4972616919 0.0202654093 -0.0048463686
0.5188673079 0.0325186784 0.0000000000 0.0000000000 0.0000000000 -203.3558112591 0.0202654093 -0.0048463686
0.5171215143 0.0511358696 0.0000000000 0.0000000000 0.0000000000 -201.3890541602 0.0202654093 -0.0048463686
0.5146808224 0.0696747646 0.0000000000 0.0000000000 0.0000000000 -199.6183159920 0.0202654093 -0.0048463686
0.5115486459 0.0881094351 0.0000000000 0.0000000000 0.0000000000 -198.0589886794 0.0202654093 -0.0048463686
0.5077293654 0.1064140985 0.0000000000 0.0000000000 0.0000000000 -196.7209008199 0.0202654093 -0.0048463686
0.5032283224 0.1245631541 0.0000000000 0.0000000000 0.0000000000 -195.6091900243 0.0202654093 -0.0048463686
0.4980518122 0.1425312187 0.0000000000 0.0000000000 0.0000000000 -194.7253411604 0.0202654093 -0.0048463686
0.4922070744 0.1602931625 0.0000000000 0.0000000000 0.0000000000 -194.0686981989 0.0202654093 -0.0048463686
0.4857022836 0.1778241437 0.0000000000 0.0000000000 0.0000000000 -193.6375116704 0.0202654093 -0.0048463686
0.4785465372 0.1950996436 0.0000000000 0.0000000000 0.0000000000 -193.4307823173 0.0202654093 -0.0048463686
0.4707498432 0.2120955010 0.0000000000 0.0000000000 0.0000000000 -193.4481659484 0.0202654093 -0.0048463686
0.4623231060 0.2287879456 0.0000000000 0.0000000000 0.0000000000 -193.6924057433 0.0202654093 -0.0048463686
0.4532781112 0.2451536315 0.0000000000 0.0000000000 0.0000000000 -194.1658488433 0.0202654093 -0.0048463686
0.4436275089 0.2611696697 0.0000000000 0.0000000000 0.0000000000 -194.8759780426 0.0202654093 -0.0048463686
0.4333847964 0.2768136605 0.0000000000 0.0000000000 0.0000000000 -195.8229181531 0.0202654093 -0.0048463686
0.4225642992 0.2920637242 0.0000000000 0.0000000000 0.0000000000 -197.0184277254 0.0202654093 -0.0048463686
0.4111811505 0.3068985324 0.0000000000 0.0000000000 0.0000000000 -198.4458044530 0.0202654093 -0.0048463686
0.3992512709 0.3212973371 0.0000000000 0.0000000000 0.0000000000 -200.1323600477 0.0202654093 -0.0048463686
0.3867913452 0.3352400003 0.0000000000 0.0000000000 0.0000000000 -202.0006839957 0.0202654093 -0.0048463686
0.3589061951 0.3630155867 0.0000000000 0.0000000000 0.0000000000 -206.7032229292 0.0202654093 -0.0048463686
0.3434150282 0.3766956655 0.0000000000 0.0000000000 0.0000000000 -209.5761634054 0.0202654093 -0.0048463686
0.3273717656 0.3897238861 0.0000000000 0.0000000000 0.0000000000 -212.6427068968 0.0202654093 -0.0048463686
0.3108038170 0.4020779900 0.0000000000 0.0000000000 0.0000000000 -216.0131132103 0.0202654093 -0.0048463686
0.2937394883 0.4137368705 0.0000000000 0.0000000000 0.0000000000 -219.7050486642 0.0202654093 -0.0048463686
0.2762079338 0.4246806086 0.0000000000 0.0000000000 0.0000000000 -223.8211554942 0.0202654093 -0.0048463686
0.2582391058 0.4348905070 0.0000000000 0.0000000000 0.0000000000 -228.4496950688 0.0202654093 -0.0048463686
0.2398637037 0.4443491223 0.0000000000 0.0000000000 0.0000000000 -233.7023250105 0.0202654093 -0.0048463686
0.2211131216 0.4530402947 0.0000000000 0.0000000000 0.0000000000 -239.6743270819 0.0202654093 -0.0048463686
0.2020193945 0.4609491754 0.0000000000 0.0000000000 0.0000000000 -246.4474066120 0.0202654093 -0.0048463686
0.1826151439 0.4680622522 0.0000000000 0.0000000000 0.0000000000 -254.0719824715 0.0202654093 -0.0048463686
0.1629335214 0.4743673726 0.0000000000 0.0000000000 0.0000000000 -262.5652116679 0.0202654093 -0.0048463686
0.1430081528 0.4798537644 0.0000000000 0.0000000000 0.0000000000 -271.9033491035 0.0202654093 -0.0048463686
0.1228730803 0.4845120541 0.0000000000 0.0000000000 0.0000000000 -282.0181239028 0.0202654093 -0.0048463686
0.1025627044 0.4883342831 0.0000000000 0.0000000000 0.0000000000 -292.7903898718 0.0202654093 -0.0048463686
0.0821117249 0.4913139212 0.0000000000 0.0000000000 0.0000000000 -304.0455851635 0.0202654093 -0.0048463686
0.0615550820 0.4934458779 0.0000000000 0.0000000000 0.0000000000 -315.5507283974 0.0202654093 -0.0048463686
0.0409278964 0.4947265106 0.0000000000 0.0000000000 0.0000000000 -327.0153612748 0.0202654093 -0.0048463686
0.0202654092 0.4951536314 0.0000000000 0.0000000000 0.0000000000 -338.0964612680 0.0202654093 -0.0048463686
-0.0003970779 0.4947265106 0.0000000000 0.0000000000 0.0000000000 -348.4075959252 0.0202654093 -0.0048463686
-0.0210242635 0.4934458779 0.0000000000 0.0000000000 0.0000000000 -357.5315966913 0.0202654093 -0.0048463686
-0.0415809064 0.4913139212 0.0000000000 0.0000000000 0.0000000000 -365.0359212449 0.0202654093 -0.0048463686
-0.0620318859 0.4883342831 0.0000000000 0.0000000000 0.0000000000 -370.4894809201 0.0202654093 -0.0048463686
-0.0823422619 0.4845120540 0.0000000000 0.0000000000 0.0000000000 -373.4796862469 0.0202654093 -0.0048463686
-0.1024773344 0.4798537643 0.0000000000 0.0000000000 0.0000000000 -373.6284904236 0.0202654093 -0.0048463686
-0.1224027029 0.4743673726 0.0000000000 0.0000000000 0.0000000000 -370.6064372023 0.0202654093 -0.0048463686
-0.1420843254 0.4680622522 0.0000000000 0.0000000000 0.0000000000 -364.1440063963 0.0202654093 -0.0048463686
-0.1614885761 0.4609491753 0.0000000000 0.0000000000 0.0000000000 -354.0398838539 0.0202654093 -0.0048463686
-0.1805823031 0.4530402946 0.0000000000 0.0000000000 0.0000000000 -340.1660873357 0.0202654093 -0.0048463686
-0.1993328852 0.4443491223 0.0000000000 0.0000000000 0.0000000000 -322.4701296295 0.0202654093 -0.0048463686
-0.2177082873 0.4348905069 0.0000000000 0.0000000000 0.0000000000 -300.9745708744 0.0202654093 -0.0048463686
-0.2356771153 0.4246806085 0.0000000000 0.0000000000 0.0000000000 -275.7744040480 0.0202654093 -0.0048463686
-0.2532086698 0.4137368704 0.0000000000 0.0000000000 0.0000000000 -247.0327396309 0.0202654093 -0.0048463686
-0.2702729985 0.4020779899 0.0000000000 0.0000000000 0.0000000000 -214.9752259579 0.0202654093 -0.0048463686
-0.2868409471 0.3897238860 0.0000000000 0.0000000000 0.0000000000 -179.8835815069 0.0202654093 -0.0048463686
-0.3028842097 0.3766956654 0.0000000000 0.0000000000 0.0000000000 -142.0885456838 0.0202654093 -0.0048463686
-0.3183753766 0.3630155866 0.0000000000 0.0000000000 0.0000000000 -101.9624932064 0.0202654093 -0.0048463686
-0.3475965461 0.3337944171 0.0000000000 0.0000000000 0.0000000000 -16.3699285552 0.0202654093 -0.0048463686
-0.3612766249 0.3183032502 0.0000000000 0.0000000000 0.0000000000 28.2109914576 0.0202654093 -0.0048463686
-0.3743048455 0.3022599876 0.0000000000 0.0000000000 0.0000000000 73.3659841016 0.0202654093 -0.0048463686
-0.3866589494 0.2856920389 0.0000000000 0.0000000000 0.0000000000 118.6243185561 0.0202654093 -0.0048463686
-0.3983178299 0.2686277103 0.0000000000 0.0000000000 0.0000000000 163.5154316946 0.0202654093 -0.0048463686
-0.4092615679 0.2510961558 0.0000000000 0.0000000000 0.0000000000 207.5744654195 0.0202654093 -0.0048463686
-0.4194714664 0.2331273277 0.0000000000 0.0000000000 0.0000000000 250.3473299790 0.0202654093 -0.0048463686
-0.4289300817 0.2147519256 0.0000000000 0.0000000000 0.0000000000 291.3953352407 0.0202654093 -0.0048463686
-0.4376212541 0.1960013435 0.0000000000 0.0000000000 0.0000000000 330.2994376352 0.0202654093 -0.0048463686
-0.4455301348 0.1769076165 0.0000000000 0.0000000000 0.0000000000 366.6641367710 0.0202654093 -0.0048463686
-0.4526432116 0.1575033658 0.0000000000 0.0000000000 0.0000000000 400.1210482597 0.0202654093 -0.0048463686
-0.4589483319 0.1378217433 0.0000000000 0.0000000000 0.0000000000 430.3321556615 0.0202654093 -0.0048463686
-0.4644347237 0.1178963748 0.0000000000 0.0000000000 0.0000000000 456.9927535270 0.0202654093 -0.0048463686
-0.4690930134 0.0977613023 0.0000000000 0.0000000000 0.0000000000 479.8340518791 0.0202654093 -0.0048463686
-0.4729152424 0.0774509263 0.0000000000 0.0000000000 0.0000000000 498.6254789261 0.0202654093 -0.0048463686
-0.4758948806 0.0569999468 0.0000000000 0.0000000000 0.0000000000 513.1765878395 0.0202654093 -0.0048463686
-0.4780268372 0.0364433039 0.0000000000 0.0000000000 0.0000000000 523.3387242412 0.0202654093 -0.0048463686
-0.4793074699 0.0158161183 0.0000000000 0.0000000000 0.0000000000 529.0061412949 0.0202654093 -0.0048463686
-0.4797345907 -0.0048463688 0.0000000000 0.0000000000 0.0000000000 530.1171402154 0.0202654093 -0.0048463686
-0.4793074699 -0.0255088560 0.0000000000 0.0000000000 0.0000000000 526.6541465588 0.0202654093 -0.0048463686
-0.4780268372 -0.0461360416 0.0000000000 0.0000000000 0.0000000000 518.6447559554 0.0202654093 -0.0048463686
-0.4758948805 -0.0666926845 0.0000000000 0.0000000000 0.0000000000 506.1599577662 0.0202654093 -0.0048463686
-0.4729152423 -0.0871436640 0.0000000000 0.0000000000 0.0000000000 489.3165874481 0.0202654093 -0.0048463686
-0.4690930133 -0.1074540399 0.0000000000 0.0000000000 0.0000000000 468.2709153599 0.0202654093 -0.0048463686
-0.4644347236 -0.1275891124 0.0000000000 0.0000000000 0.0000000000 443.2276475286 0.0202654093 -0.0048463686
-0.4589483318 -0.1475144810 0.0000000000 0.0000000000 0.0000000000 414.4193519096 0.0202654093 -0.0048463686
-0.4526432114 -0.1671961034 0.0000000000 0.0000000000 0.0000000000 382.1396461257 0.0202654093 -0.0048463686
-0.4455301346 -0.1866003541 0.0000000000 0.0000000000 0.0000000000 346.6757210834 0.0202654093 -0.0048463686
-0.4376212539 -0.2056940812 0.0000000000 0.0000000000 0.0000000000 308.4265661303 0.0202654093 -0.0048463686
-0.4289300815 -0.2244446633 0.0000000000 0.0000000000 0.0000000000 267.6751616975 0.0202654093 -0.0048463686
-0.4194714662 -0.2428200654 0.0000000000 0.0000000000 0.0000000000 225.0037901401 0.0202654093 -0.0048463686
-0.4092615677 -0.2607888934 0.0000000000 0.0000000000 0.0000000000 180.5082257528 0.0202654093 -0.0048463686
-0.3983178297 -0.2783204479 0.0000000000 0.0000000000 0.0000000000 135.2575069509 0.0202654093 -0.0048463686
-0.3866589492 -0.2953847765 0.0000000000 0.0000000000 0.0000000000 88.5489153792 0.0202654093 -0.0048463686
-0.3743048452 -0.3119527252 0.0000000000 0.0000000000 0.0000000000 43.0269728452 0.0202654093 -0.0048463686
-0.3612766246 -0.3279959878 0.0000000000 0.0000000000 0.0000000000 -4.6295351064 0.0202654093 -0.0048463686
-0.3475965458 -0.3434871546 0.0000000000 0.0000000000 0.0000000000 -45.5485883952 0.0202654093 -0.0048463686
-0.3183753763 -0.3727083241 0.0000000000 0.0000000000 0.0000000000 -148.5283291049 0.0202654093 -0.0048463686
-0.3028842094 -0.3863884029 0.0000000000 0.0000000000 0.0000000000 -178.0827736130 0.0202654093 -0.0048463686
-0.2868409468 -0.3994166235 0.0000000000 0.0000000000 0.0000000000 -214.5529145521 0.0202654093 -0.0048463686
-0.2702729981 -0.4117707274 0.0000000000 0.0000000000 0.0000000000 -250.8543359681 0.0202654093 -0.0048463686
-0.2532086695 -0.4234296079 0.0000000000 0.0000000000 0.0000000000 -282.3819642451 0.0202654093 -0.0048463686
-0.2356771150 -0.4343733460 0.0000000000 0.0000000000 0.0000000000 -311.5129347044 0.0202654093 -0.0048463686
-0.2177082869 -0.4445832444 0.0000000000 0.0000000000 0.0000000000 -336.4045909835 0.0202654093 -0.0048463686
-0.1993328848 -0.4540418597 0.0000000000 0.0000000000 0.0000000000 -357.8663262970 0.0202654093 -0.0048463686
-0.1805823027 -0.4627330321 0.0000000000 0.0000000000 0.0000000000 -375.2568849567 0.0202654093 -0.0048463686
-0.1614885757 -0.4706419128 0.0000000000 0.0000000000 0.0000000000 -388.8983203378 0.0202654093 -0.0048463686
-0.1420843250 -0.4777549896 0.0000000000 0.0000000000 0.0000000000 -398.6682248788 0.0202654093 -0.0048463686
-0.1224027025 -0.4840601099 0.0000000000 0.0000000000 0.0000000000 -404.8239602802 0.0202654093 -0.0048463686
-0.1024773340 -0.4895465017 0.0000000000 0.0000000000 0.0000000000 -407.5180474441 0.0202654093 -0.0048463686
-0.0823422615 -0.4942047914 0.0000000000 0.0000000000 0.0000000000 -407.0729170973 0.0202654093 -0.0048463686
-0.0620318855 -0.4980270204 0.0000000000 0.0000000000 0.0000000000 -403.8086479722 0.0202654093 -0.0048463686
-0.0415809060 -0.5010066585 0.0000000000 0.0000000000 0.0000000000 -398.1252242148 0.0202654093 -0.0048463686
-0.0210242631 -0.5031386152 0.0000000000 0.0000000000 0.0000000000 -390.4337205241 0.0202654093 -0.0048463686
-0.0003970775 -0.5044192478 0.0000000000 0.0000000000 0.0000000000 -381.1711270286 0.0202654093 -0.0048463686
0.0202654096 -0.5048463686 0.0000000000 0.0000000000 0.0000000000 -370.7659067823 0.0202654093 -0.0048463686
0.0409278968 -0.5044192478 0.0000000000 0.0000000000 0.0000000000 -359.6316763116 0.0202654093 -0.0048463686
0.0615550824 -0.5031386151 0.0000000000 0.0000000000 0.0000000000 -348.1471663407 0.0202654093 -0.0048463686
0.0821117253 -0.5010066585 0.0000000000 0.0000000000 0.0000000000 -336.6476242096 0.0202654093 -0.0048463686
0.1025627048 -0.4980270203 0.0000000000 0.0000000000 0.0000000000 -325.4149368702 0.0202654093 -0.0048463686
0.1228730807 -0.4942047912 0.0000000000 0.0000000000 0.0000000000 -314.6742923082 0.0202654093 -0.0048463686
0.1430081532 -0.4895465015 0.0000000000 0.0000000000 0.0000000000 -304.5930006860 0.0202654093 -0.0048463686
0.1629335218 -0.4840601098 0.0000000000 0.0000000000 0.0000000000 -295.2836915844 0.0202654093 -0.0048463686
0.1826151442 -0.4777549894 0.0000000000 0.0000000000 0.0000000000 -286.8089676464 0.0202654093 -0.0048463686
0.2020193949 -0.4706419125 0.0000000000 0.0000000000 0.0000000000 -279.1896542343 0.0202654093 -0.0048463686
0.2211131220 -0.4627330318 0.0000000000 0.0000000000 0.0000000000 -272.4116184681 0.0202654093 -0.0048463686
0.2398637041 -0.4540418594 0.0000000000 0.0000000000 0.0000000000 -266.4403471369 0.0202654093 -0.0048463686
0.2582391062 -0.4445832441 0.0000000000 0.0000000000 0.0000000000 -261.2233552213 0.0202654093 -0.0048463686
0.2762079342 -0.4343733456 0.0000000000 0.0000000000 0.0000000000 -256.7179923986 0.0202654093 -0.0048463686
0.2937394887 -0.4234296076 0.0000000000 0.0000000000 0.0000000000 -252.8581821623 0.0202654093 -0.0048463686
0.3108038173 -0.4117707271 0.0000000000 0.0000000000 0.0000000000 -249.6363190654 0.0202654093 -0.0048463686
0.3273717660 -0.3994166231 0.0000000000 0.0000000000 0.0000000000 -246.9238014621 0.0202654093 -0.0048463686
0.3434150285 -0.3863884025 0.0000000000 0.0000000000 0.0000000000 -244.8390792252 0.0202654093 -0.0048463686
0.3589061954 -0.3727083237 0.0000000000 0.0000000000 0.0000000000 -242.9457823597 0.0202654093 -0.0048463686
0.5704973638 -0.5149495619 0.0000000000 0.0378977679 -0.0692014330 -234.1506070380 0.0207084596 -0.0048200090
0.5891608009 -0.4940308673 0.0000000000 0.0174806105 -0.0772035612 -234.2700936279 0.0206820082 -0.0048153092
0.6070310910 -0.4724288791 0.0000000000 0.0034898214 -0.0857869053 -234.4619447880 0.0206574788 -0.0048115281
0.6240802236 -0.4501730773 0.0000000000 -0.0058823660 -0.0944113254 -234.6661939766 0.0206318884 -0.0048079385
0.6402833415 -0.4272945559 0.0000000000 -0.0121932851 -0.1026252533 -234.8250349289 0.0206042605 -0.0048045127
0.6556174542 -0.4038254044 0.0000000000 -0.0166661880 -0.1100822154 -234.8867582860 0.0205743045 -0.0048013474
0.6700610913 -0.3797985577 0.0000000000 -0.0201841589 -0.1165378024 -234.8068617789 0.0205420382 -0.0047985581
0.6835941866 -0.3552477201 0.0000000000 -0.0233335385 -0.1218346607 -234.5481298114 0.0205076413 -0.0047962493
0.6961980338 -0.3302073077 0.0000000000 -0.0264674567 -0.1258834971 -234.0804265205 0.0204713827 -0.0047945038
0.7078552726 -0.3047123986 0.0000000000 -0.0297688984 -0.1286452986 -233.3807159862 0.0204335805 -0.0047933808
0.7185498898 -0.2787986842 0.0000000000 -0.0333031901 -0.1301170772 -232.4333924302 0.0203945782 -0.0047929163
0.7282672283 -0.2525024214 0.0000000000 -0.0370575001 -0.1303215174 -231.2307756436 0.0203547304 -0.0047931253
0.7369939987 -0.2258603826 0.0000000000 -0.0409689657 -0.1293000067 -229.7735683146 0.0203143942 -0.0047940022
0.7447182915 -0.1989098060 0.0000000000 -0.0449443492 -0.1271082843 -228.0711021190 0.0202739217 -0.0047955225
0.7514295886 -0.1716883434 0.0000000000 -0.0488739670 -0.1238139775 -226.1412552186 0.0202336544 -0.0047976433
0.7571187737 -0.1442340091 0.0000000000 -0.0526419716 -0.1194954090 -224.0099772935 0.0201939187 -0.0048003041
0.7617781414 -0.1165851275 0.0000000000 -0.0561343773 -0.1142411602 -221.7104040099 0.0201550217 -0.0048034282
0.7654014059 -0.0887802814 0.0000000000 -0.0592456640 -0.1081499826 -219.2815833252 0.0201172485 -0.0048069247
0.7679837082 -0.0608582603 0.0000000000 -0.0618844119 -0.1013307380 -216.7668735220 0.0200808603 -0.0048106904
0.7695216219 -0.0328580084 0.0000000000 -0.0639781565 -0.0939021489 -214.2121068156 0.0200460933 -0.0048146130
0.7700131576 -0.0048185737 0.0000000000 -0.0654774986 -0.0859922214 -211.6636399687 0.0200131576 -0.0048185740
0.7694577666 0.0232209440 0.0000000000 -0.0663594051 -0.0777372740 -209.1664309332 0.0199822380 -0.0048224520
0.7678563419 0.0512214441 0.0000000000 -0.0666295808 -0.0692805453 -206.7622853013 0.0199534940 -0.0048261264
0.7652112191 0.0791438769 0.0000000000 -0.0663237443 -0.0607703570 -204.4884071071 0.0199270617 -0.0048294804
0.7615261756 0.1069492951 0.0000000000 -0.0655075726 -0.0523577822 -202.3763656261 0.0199030560 -0.0048324048
0.7568064292 0.1345989053 0.0000000000 -0.0642749616 -0.0441937017 -200.4515550550 0.0198815743 -0.0048348003
0.7510586346 0.1620541203 0.0000000000 -0.0627440395 -0.0364250480 -198.7331796307 0.0198627005 -0.0048365804
0.7442908793 0.1892766106 0.0000000000 -0.0610500423 -0.0291899408 -197.2347462114 0.0198465096 -0.0048376734
0.7365126771 0.2162283573 0.0000000000 -0.0593337088 -0.0226113710 -195.9649934681 0.0198330729 -0.0048380237
0.7277349594 0.2428717052 0.0000000000 -0.0577233520 -0.0167891382 -194.9291361392 0.0198224617 -0.0048375915
0.7179700625 0.2691694172 0.0000000000 -0.0563084572 -0.0117900011 -194.1302579869 0.0198147511 -0.0048363513
0.7072317123 0.2950847299 0.0000000000 -0.0551030110 -0.0076365600 -193.5706452091 0.0198100205 -0.0048342885
0.6955350016 0.3205814106 0.0000000000 -0.0539985283 -0.0042963286 -193.2527946276 0.0198083508 -0.0048313939
0.6828963606 0.3456238146 0.0000000000 -0.0527106360 -0.0016736872 -193.1797251835 0.0198098155 -0.0048276567
0.6693335168 0.3701769424 0.0000000000 -0.0507290957 0.0003914310 -193.3540630630 0.0198144640 -0.0048230577
0.6548654444 0.3942064924 0.0000000000 -0.0472874939 0.0021139738 -193.7752834286 0.0198222951 -0.0048175651
0.6395123052 0.4176789073 0.0000000000 -0.0413713495 0.0037408226 -194.4347915134 0.0198332245 -0.0048111364
0.6232953862 0.4405614088 0.0000000000 -0.0317770786 0.0055162806 -195.3095549348 0.0198470514 -0.0048037304
0.6062370335 0.4628220231 0.0000000000 -0.0172174483 0.0076442036 -196.3566212707 0.0198634217 -0.0047953284
0.5883605386 0.4844295865 0.0000000000 0.0035523453 0.0102608422 -197.5121007113 0.0198817463 -0.0047859720
0.5696898169 0.5053537400 0.0000000000 0.0316251837 0.0134338810 -198.6939723788 0.0199009131 -0.0047758134
0.5279008774 0.5470332538 0.0000000000 0.1183778123 0.0221743328 -200.9810125497 0.0199396988 -0.0047596793
0.5046877499 0.5675581098 0.0000000000 0.1803240494 0.0282289664 -201.9458690859 0.0199633216 -0.0047549414
0.4806497447 0.5871052641 0.0000000000 0.2538497529 0.0358410124 -202.7690936442 0.0199902102 -0.0047501180
0.4558279017 0.6056415584 0.0000000000 0.3383809668 0.0456283229 -203.5371268203 0.0200202903 -0.0047449796
0.4302642537 0.6231353936 0.0000000000 0.4322643873 0.0581719621 -204.3683441010 0.0200531352 -0.0047394651
0.4040020031 0.6395568100 0.0000000000 0.5325618408 0.0737798642 -205.3835740232 0.0200882164 -0.0047336558
0.3770855552 0.6548776063 0.0000000000 0.6352102648 0.0923245865 -206.6708500560 0.0201250105 -0.0047277071
0.3495604738 0.6690714361 0.0000000000 0.7355782644 0.1132345958 -208.2523715356 0.0201630323 -0.0047218004
0.3214734101 0.6821138822 0.0000000000 0.8292318654 0.1356295787 -210.0693037504 0.0202018417 -0.0047161128
0.2928720207 0.6939825103 0.0000000000 0.9126326943 0.1585270548 -211.9941203154 0.0202410429 -0.0047108058
0.2638048841 0.7046569079 0.0000000000 0.9835613990 0.1810398076 -213.8625044121 0.0202802823 -0.0047060234
0.2343214175 0.7141187180 0.0000000000 1.0412019767 0.2025114847 -215.5067047003 0.0203192494 -0.0047018939
0.2044717931 0.7223516685 0.0000000000 1.0859455951 0.2225724101 -216.7772772399 0.0203576779 -0.0046985310
0.1743068528 0.7293416003 0.0000000000 1.1190339937 0.2411247026 -217.5505716161 0.0203953463 -0.0046960337
0.1438780203 0.7350764933 0.0000000000 1.1421655575 0.2582807708 -217.7257331918 0.0204320777 -0.0046944843
0.1132372104 0.7395464889 0.0000000000 1.1571543082 0.2742825444 -217.2164442678 0.0204677371 -0.0046939459
0.0824367350 0.7427439101 0.0000000000 1.1656876484 0.2894238142 -215.9417534940 0.0205022261 -0.0046944597
0.0515292078 0.7446632770 0.0000000000 1.1691899684 0.3039892233 -213.8188828040 0.0205354772 -0.0046960418
0.0205674453 0.7453013188 0.0000000000 1.1687744187 0.3182146681 -210.7594151084 0.0205674455 -0.0046986812
-0.0103956311 0.7446569809 0.0000000000 1.1652549595 0.3322675196 -206.6689951013 0.0205980997 -0.0047023379
-0.0413070955 0.7427314274 0.0000000000 1.1591914146 0.3462418457 -201.4498207306 0.0206274138 -0.0047069423
-0.0721141163 0.7395280386 0.0000000000 1.1509465224 0.3601631435 -195.0048390772 0.0206553573 -0.0047123961
-0.1027640551 0.7350524028 0.0000000000 1.1407416605 0.3739979386 -187.2425972480 0.0206818878 -0.0047185747
-0.1332045640 0.7293123034 0.0000000000 1.1287044900 0.3876650059 -178.0819579548 0.0207069428 -0.0047253306
-0.1633836814 0.7223177010 0.0000000000 1.1149063254 0.4010463075 -167.4562029604 0.0207304341 -0.0047324985
-0.1932499257 0.7140807108 0.0000000000 1.0993896449 0.4139967500 -155.3163114720 0.0207522426 -0.0047399010
-0.2227523875 0.7046155762 0.0000000000 1.0821873247 0.4263524977 -141.6333771165 0.0207722146 -0.0047473550
-0.2518408184 0.6939386387 0.0000000000 1.0633354693 0.4379379136 -126.4002221339 0.0207901597 -0.0047546773
-0.2804657189 0.6820683040 0.0000000000 1.0428815418 0.4485713358 -109.6323046555 0.0208058498 -0.0047616909
-0.3085784233 0.6690250058 0.0000000000 1.0208891692 0.4580699184 -91.3680191727 0.0208190185 -0.0047682305
-0.3361311854 0.6548311670 0.0000000000 0.9974406451 0.4662537375 -71.6684797249 0.0208293595 -0.0047741463
-0.3630772659 0.6395111579 0.0000000000 0.9726378585 0.4729493118 -50.6168604572 0.0208365211 -0.0047793078
-0.3893710304 0.6230912542 0.0000000000 0.9466021448 0.4779926405 -28.3173526367 0.0208400884 -0.0047836044
-0.4149680761 0.6055995962 0.0000000000 0.9194733902 0.4812318144 -4.8937817434 0.0208395356 -0.0047869417
-0.4398254406 0.5870661580 0.0000000000 0.8914085959 0.4825291887 19.5121129350 0.0208340941 -0.0047892239
-0.4639020791 0.5675227864 0.0000000000 0.8625800312 0.4817629597 44.7427563424 0.0208223494 -0.0047902646
-0.4871603690 0.5470036638 0.0000000000 0.8331729095 0.4788271797 70.6279458927 0.0208008099 -0.0047892691
-0.5310277246 0.5031726876 0.0000000000 0.7734411657 0.4661662705 123.5830475281 0.0207652085 -0.0047884909
-0.5515609652 0.4799343381 0.0000000000 0.7435296233 0.4563449691 150.2592950510 0.0207520861 -0.0047900901
-0.5711259757 0.4558689093 0.0000000000 0.7138731920 0.4441484060 176.8026718217 0.0207294065 -0.0047906250
-0.5896859238 0.4310167625 0.0000000000 0.6846917134 0.4295830949 203.0015029673 0.0207006143 -0.0047908488
-0.6072076937 0.4054200240 0.0000000000 0.6562042406 0.4126747978 228.6452867027 0.0206671651 -0.0047910944
-0.6236605463 0.3791221879 0.0000000000 0.6286264745 0.3934704520 253.5262554670 0.0206299196 -0.0047915987
-0.6390157766 0.3521679920 0.0000000000 0.6021688885 0.3720378392 277.4412509106 0.0205895369 -0.0047925526
-0.6532466343 0.3246033333 0.0000000000 0.5770346787 0.3484649761 300.1937406600 0.0205466022 -0.0047941081
-0.6663283229 0.2964751891 0.0000000000 0.5534178400 0.3228592106 321.5957731904 0.0205016722 -0.0047963792
-0.6782380254 0.2678315364 0.0000000000 0.5315013593 0.2953461250 341.4698227342 0.0204552907 -0.0047994413
-0.6889549394 0.2387212696 0.0000000000 0.5114555597 0.2660682710 359.6504963269 0.0204079919 -0.0048033321
-0.6984603141 0.2091941156 0.0000000000 0.4934366080 0.2351837647 375.9860878850 0.0203602978 -0.0048080523
-0.7067374857 0.1793005470 0.0000000000 0.4775851994 0.2028647605 390.3399697555 0.0203127138 -0.0048135680
-0.7137719101 0.1490916933 0.0000000000 0.4640254228 0.1692958162 402.5918162938 0.0202657239 -0.0048198130
-0.7195511907 0.1186192499 0.0000000000 0.4528637954 0.1346721571 412.6386550439 0.0202197869 -0.0048266925
-0.7240651007 0.0879353859 0.0000000000 0.4441884346 0.0991978507 420.3957378543 0.0201753342 -0.0048340872
-0.7273056002 0.0570926501 0.0000000000 0.4380683343 0.0630839161 425.7972202900 0.0201327696 -0.0048418587
-0.7292668482 0.0261438749 0.0000000000 0.4345527372 0.0265464113 428.7966414731 0.0200924706 -0.0048498555
-0.7299452090 -0.0048579204 0.0000000000 0.4336706396 -0.0101954611 429.3672097300 0.0200547910 -0.0048579201
-0.7293392553 -0.0358596283 0.0000000000 0.4354304916 -0.0469212077 427.5019176808 0.0200200634 -0.0048658973
-0.7274497677 -0.0668081518 0.0000000000 0.4398201267 -0.0834108554 423.2135032452 0.0199886020 -0.0048736424
-0.7242797297 -0.0976505031 0.0000000000 0.4468069403 -0.1194467230 416.5342694389 0.0199607051 -0.0048810293
-0.7198343191 -0.1283339009 0.0000000000 0.4563383387 -0.1548151727 407.5157736566 0.0199366584 -0.0048879579
-0.7141208939 -0.1588058665 0.0000000000 0.4683424142 -0.1893083598 396.2283731396 0.0199167400 -0.0048943596