 TITLE = "Tecplot data"
 VARIABLES = "X", "Y", "Z" "U", "V", "p", "dispX", "dispY"
 ZONE SOLUTIONTIME=91.900000, NODES=26114 , ELEMENTS=25916, DATAPACKING=POINT, ZONETYPE=FEQUADRILATERAL
0.7209331914 2.3915587754 0.0000000000 0.0000000000 0.0000000000 -1196.0218749201 0.3673798008 2.0380053848
0.7209331916 1.6844519945 0.0000000000 0.0000000000 0.0000000000 80.9710448515 0.3673798008 2.0380053848
0.0138264101 2.3915587753 0.0000000000 0.0000000000 0.0000000000 -1403.5459956339 0.3673798008 2.0380053848
0.0138264104 1.6844519940 0.0000000000 0.0000000000 0.0000000000 272.1761574610 0.3673798008 2.0380053848
0.9037790368 2.5602941042 0.0000000000 1.1411414465 -0.5947291020 -523.5413864994 0.3734489510 2.0299640183
0.8849030576 1.4963649077 0.0000000000 0.1708561421 0.1865972604 76.5319451945 0.3545729713 2.0266949932
-0.1607524289 2.5677207075 0.0000000000 1.3322350749 0.9053058091 -620.2715692715 0.3695776572 2.0373906218
-0.1669006502 1.5098275199 0.0000000000 0.2146197445 -0.0874823837 289.4464435855 0.3634294355 2.0401576061
1.4670597219 3.0363253331 0.0000000000 1.0728468225 -0.0343969733 -156.5179697060 0.4063995502 1.9756651612
1.3517943446 0.9051358681 0.0000000000 0.3959507064 0.2586925340 26.7096726091 0.2911341721 1.9657960391
-0.6810073164 3.0914114562 0.0000000000 1.1171410738 0.3882379854 -131.6929956554 0.3796528557 2.0307512848
-0.7239473724 0.9856001073 0.0000000000 0.5301813373 0.0659991430 238.3089370876 0.3367127988 2.0462602796
4.7759040108 4.9468621411 0.0000000000 1.1875218060 -0.0000947373 -92.7452870392 0.5759040108 1.6468621411
4.1992219779 -1.7069458115 0.0000000000 0.6664686801 -0.1844150489 -69.1252102091 -0.0007780221 1.5930541885
20.0000000000 4.7000000000 0.0000000000 1.0546794007 0.0885298006 0.6214587617 0.0000000000 0.0000000000
20.0000000000 -4.7000000000 0.0000000000 1.0684410011 -0.0613533783 0.8494079566 0.0000000000 0.0000000000
-10.0000000000 15.0000000000 0.0000000000 1.0000000000 0.0000000000 -6.5369335886 0.0000000000 0.0000000000
20.0000000000 15.0000000000 0.0000000000 1.0480297499 0.0000000000 0.0446316632 0.0000000000 0.0000000000
20.0000000000 -15.0000000000 0.0000000000 1.0567137539 0.0000000000 0.0318441761 0.0000000000 0.0000000000
-10.0000000000 -15.0000000000 0.0000000000 1.0000000000 0.0000000000 63.4357739286 0.0000000000 0.0000000000
0.7339057370 1.6979190162 0.0000000000 0.0000000000 0.0000000000 80.5309017318 0.3673798008 2.0380053848
0.7463656626 1.7118616794 0.0000000000 0.0000000000 0.0000000000 80.1754206714 0.3673798008 2.0380053848
0.7582955422 1.7262604841 0.0000000000 0.0000000000 0.0000000000 78.8581988522 0.3673798008 2.0380053848
0.7696786909 1.7410952923 0.0000000000 0.0000000000 0.0000000000 76.9939191573 0.3673798008 2.0380053848
0.7804991881 1.7563453560 0.0000000000 0.0000000000 0.0000000000 74.3543396128 0.3673798008 2.0380053848
0.7907419006 1.7719893468 0.0000000000 0.0000000000 0.0000000000 71.0367847370 0.3673798008 2.0380053848
0.8003925028 1.7880053851 0.0000000000 0.0000000000 0.0000000000 66.9947549956 0.3673798008 2.0380053848
0.8094374977 1.8043710709 0.0000000000 0.0000000000 0.0000000000 62.2378926061 0.3673798008 2.0380053848
0.8178642349 1.8210635155 0.0000000000 0.0000000000 0.0000000000 56.7257254599 0.3673798008 2.0380053848
0.8256609288 1.8380593729 0.0000000000 0.0000000000 0.0000000000 50.4090997874 0.3673798008 2.0380053848
0.8328166752 1.8553348729 0.0000000000 0.0000000000 0.0000000000 43.2080792668 0.3673798008 2.0380053848
0.8393214660 1.8728658541 0.0000000000 0.0000000000 0.0000000000 35.0237651094 0.3673798008 2.0380053848
0.8451662038 1.8906277978 0.0000000000 0.0000000000 0.0000000000 25.7369206420 0.3673798008 2.0380053848
0.8503427140 1.9085958625 0.0000000000 0.0000000000 0.0000000000 15.2142807230 0.3673798008 2.0380053848
0.8548437569 1.9267449181 0.0000000000 0.0000000000 0.0000000000 3.3116086907 0.3673798008 2.0380053848
0.8586630375 1.9450495814 0.0000000000 0.0000000000 0.0000000000 -10.1218916013 0.3673798008 2.0380053848
0.8617952139 1.9634842519 0.0000000000 0.0000000000 0.0000000000 -25.2403854393 0.3673798008 2.0380053848
0.8642359058 1.9820231470 0.0000000000 0.0000000000 0.0000000000 -42.1981811410 0.3673798008 2.0380053848
0.8659816994 2.0006403382 0.0000000000 0.0000000000 0.0000000000 -61.1471966099 0.3673798008 2.0380053848
0.8670301532 2.0193097879 0.0000000000 0.0000000000 0.0000000000 -82.2343238762 0.3673798008 2.0380053848
0.8673798008 2.0380053850 0.0000000000 0.0000000000 0.0000000000 -105.5995645569 0.3673798008 2.0380053848
0.8670301532 2.0567009821 0.0000000000 0.0000000000 0.0000000000 -131.3732831102 0.3673798008 2.0380053848
0.8659816994 2.0753704318 0.0000000000 0.0000000000 0.0000000000 -159.6753860651 0.3673798008 2.0380053848
0.8642359057 2.0939876230 0.0000000000 0.0000000000 0.0000000000 -190.6112334167 0.3673798008 2.0380053848
0.8617952139 2.1125265181 0.0000000000 0.0000000000 0.0000000000 -224.2736516624 0.3673798008 2.0380053848
0.8586630374 2.1309611885 0.0000000000 0.0000000000 0.0000000000 -260.7341678337 0.3673798008 2.0380053848
0.8548437569 2.1492658519 0.0000000000 0.0000000000 0.0000000000 -300.0536746192 0.3673798008 2.0380053848
0.8503427139 2.1674149075 0.0000000000 0.0000000000 0.0000000000 -342.2589248489 0.3673798008 2.0380053848
0.8451662036 2.1853829721 0.0000000000 0.0000000000 0.0000000000 -387.3794451333 0.3673798008 2.0380053848
0.8393214659 2.2031449159 0.0000000000 0.0000000000 0.0000000000 -435.3791954206 0.3673798008 2.0380053848
0.8328166751 2.2206758971 0.0000000000 0.0000000000 0.0000000000 -486.2715772529 0.3673798008 2.0380053848
0.8256609287 2.2379513971 0.0000000000 0.0000000000 0.0000000000 -539.9181627388 0.3673798008 2.0380053848
0.8178642347 2.2549472545 0.0000000000 0.0000000000 0.0000000000 -596.3716581936 0.3673798008 2.0380053848
0.8094374975 2.2716396990 0.0000000000 0.0000000000 0.0000000000 -655.2887903183 0.3673798008 2.0380053848
0.8003925026 2.2880053849 0.0000000000 0.0000000000 0.0000000000 -716.9273504998 0.3673798008 2.0380053848
0.7907419004 2.3040214231 0.0000000000 0.0000000000 0.0000000000 -780.4587537384 0.3673798008 2.0380053848
0.7804991879 2.3196654139 0.0000000000 0.0000000000 0.0000000000 -846.8145682587 0.3673798008 2.0380053848
0.7696786906 2.3349154776 0.0000000000 0.0000000000 0.0000000000 -913.9043715350 0.3673798008 2.0380053848
0.7582955420 2.3497502858 0.0000000000 0.0000000000 0.0000000000 -984.6374564441 0.3673798008 2.0380053848
0.7463656623 2.3641490905 0.0000000000 0.0000000000 0.0000000000 -1053.4950288790 0.3673798008 2.0380053848
0.7339057367 2.3780917537 0.0000000000 0.0000000000 0.0000000000 -1129.0660763947 0.3673798008 2.0380053848
0.7060205866 2.4058673402 0.0000000000 0.0000000000 0.0000000000 -1281.8283269823 0.3673798008 2.0380053848
0.6905294197 2.4195474189 0.0000000000 0.0000000000 0.0000000000 -1360.6315137711 0.3673798008 2.0380053848
0.6744861571 2.4325756395 0.0000000000 0.0000000000 0.0000000000 -1442.6146340441 0.3673798008 2.0380053848
0.6579182084 2.4449297435 0.0000000000 0.0000000000 0.0000000000 -1522.1058069805 0.3673798008 2.0380053848
0.6408538798 2.4565886240 0.0000000000 0.0000000000 0.0000000000 -1601.0997117524 0.3673798008 2.0380053848
0.6233223253 2.4675323620 0.0000000000 0.0000000000 0.0000000000 -1677.9199399477 0.3673798008 2.0380053848
0.6053534973 2.4777422604 0.0000000000 0.0000000000 0.0000000000 -1752.6230040483 0.3673798008 2.0380053848
0.5869780952 2.4872008758 0.0000000000 0.0000000000 0.0000000000 -1824.4625428687 0.3673798008 2.0380053848
0.5682275131 2.4958920481 0.0000000000 0.0000000000 0.0000000000 -1893.0742511577 0.3673798008 2.0380053848
0.5491337860 2.5038009288 0.0000000000 0.0000000000 0.0000000000 -1957.9394680036 0.3673798008 2.0380053848
0.5297295353 2.5109140057 0.0000000000 0.0000000000 0.0000000000 -2018.6337007400 0.3673798008 2.0380053848
0.5100479128 2.5172191260 0.0000000000 0.0000000000 0.0000000000 -2074.7221557845 0.3673798008 2.0380053848
0.4901225443 2.5227055178 0.0000000000 0.0000000000 0.0000000000 -2125.8109911182 0.3673798008 2.0380053848
0.4699874718 2.5273638075 0.0000000000 0.0000000000 0.0000000000 -2171.5304540214 0.3673798008 2.0380053848
0.4496770958 2.5311860365 0.0000000000 0.0000000000 0.0000000000 -2211.5466555302 0.3673798008 2.0380053848
0.4292261163 2.5341656747 0.0000000000 0.0000000000 0.0000000000 -2245.5608548196 0.3673798008 2.0380053848
0.4086694734 2.5362976313 0.0000000000 0.0000000000 0.0000000000 -2273.3133624203 0.3673798008 2.0380053848
0.3880422878 2.5375782640 0.0000000000 0.0000000000 0.0000000000 -2294.5850496335 0.3673798008 2.0380053848
0.3673798007 2.5380053848 0.0000000000 0.0000000000 0.0000000000 -2309.1992556336 0.3673798008 2.0380053848
0.3467173136 2.5375782640 0.0000000000 0.0000000000 0.0000000000 -2317.0229906972 0.3673798008 2.0380053848
0.3260901280 2.5362976313 0.0000000000 0.0000000000 0.0000000000 -2317.9678573963 0.3673798008 2.0380053848
0.3055334851 2.5341656746 0.0000000000 0.0000000000 0.0000000000 -2311.9905377231 0.3673798008 2.0380053848
0.2850825055 2.5311860365 0.0000000000 0.0000000000 0.0000000000 -2299.0929138780 0.3673798008 2.0380053848
0.2647721296 2.5273638074 0.0000000000 0.0000000000 0.0000000000 -2279.3218162699 0.3673798008 2.0380053848
0.2446370571 2.5227055177 0.0000000000 0.0000000000 0.0000000000 -2252.7684238039 0.3673798008 2.0380053848
0.2247116886 2.5172191260 0.0000000000 0.0000000000 0.0000000000 -2219.5673360134 0.3673798008 2.0380053848
0.2050300661 2.5109140056 0.0000000000 0.0000000000 0.0000000000 -2179.8953427874 0.3673798008 2.0380053848
0.1856258154 2.5038009288 0.0000000000 0.0000000000 0.0000000000 -2133.9699186793 0.3673798008 2.0380053848
0.1665320884 2.4958920481 0.0000000000 0.0000000000 0.0000000000 -2082.0474687269 0.3673798008 2.0380053848
0.1477815063 2.4872008757 0.0000000000 0.0000000000 0.0000000000 -2024.4213493187 0.3673798008 2.0380053848
0.1294061042 2.4777422603 0.0000000000 0.0000000000 0.0000000000 -1961.4196800928 0.3673798008 2.0380053848
0.1114372761 2.4675323619 0.0000000000 0.0000000000 0.0000000000 -1893.4029517565 0.3673798008 2.0380053848
0.0939057216 2.4565886238 0.0000000000 0.0000000000 0.0000000000 -1820.7614216446 0.3673798008 2.0380053848
0.0768413930 2.4449297433 0.0000000000 0.0000000000 0.0000000000 -1743.9122783279 0.3673798008 2.0380053848
0.0602734443 2.4325756394 0.0000000000 0.0000000000 0.0000000000 -1663.2965545331 0.3673798008 2.0380053848
0.0442301818 2.4195474188 0.0000000000 0.0000000000 0.0000000000 -1579.3757801456 0.3673798008 2.0380053848
0.0287390149 2.4058673400 0.0000000000 0.0000000000 0.0000000000 -1492.6283966187 0.3673798008 2.0380053848
-0.0004821546 2.3766461705 0.0000000000 0.0000000000 0.0000000000 -1312.6294856467 0.3673798008 2.0380053848
-0.0141622334 2.3611550036 0.0000000000 0.0000000000 0.0000000000 -1220.3853125124 0.3673798008 2.0380053848
-0.0271904540 2.3451117410 0.0000000000 0.0000000000 0.0000000000 -1127.3218527749 0.3673798008 2.0380053848
-0.0395445579 2.3285437924 0.0000000000 0.0000000000 0.0000000000 -1033.9460600698 0.3673798008 2.0380053848
-0.0512034384 2.3114794637 0.0000000000 0.0000000000 0.0000000000 -940.7603896498 0.3673798008 2.0380053848
-0.0621471765 2.2939479092 0.0000000000 0.0000000000 0.0000000000 -848.2599720666 0.3673798008 2.0380053848
-0.0723570749 2.2759790812 0.0000000000 0.0000000000 0.0000000000 -756.9299687514 0.3673798008 2.0380053848
-0.0818156902 2.2576036791 0.0000000000 0.0000000000 0.0000000000 -667.2430229454 0.3673798008 2.0380053848
-0.0905068626 2.2388530970 0.0000000000 0.0000000000 0.0000000000 -579.6567132179 0.3673798008 2.0380053848
-0.0984157433 2.2197593699 0.0000000000 0.0000000000 0.0000000000 -494.6109142567 0.3673798008 2.0380053848
-0.1055288201 2.2003551192 0.0000000000 0.0000000000 0.0000000000 -412.5249643545 0.3673798008 2.0380053848
-0.1118339405 2.1806734967 0.0000000000 0.0000000000 0.0000000000 -333.7945308519 0.3673798008 2.0380053848
-0.1173203322 2.1607481282 0.0000000000 0.0000000000 0.0000000000 -258.7880594721 0.3673798008 2.0380053848
-0.1219786219 2.1406130557 0.0000000000 0.0000000000 0.0000000000 -187.8427011393 0.3673798008 2.0380053848
-0.1258008509 2.1203026797 0.0000000000 0.0000000000 0.0000000000 -121.2596419002 0.3673798008 2.0380053848
-0.1287804891 2.0998517002 0.0000000000 0.0000000000 0.0000000000 -59.2988283057 0.3673798008 2.0380053848
-0.1309124457 2.0792950573 0.0000000000 0.0000000000 0.0000000000 -2.1731877602 0.3673798008 2.0380053848
-0.1321930784 2.0586678717 0.0000000000 0.0000000000 0.0000000000 49.9574109583 0.3673798008 2.0380053848
-0.1326201992 2.0380053846 0.0000000000 0.0000000000 0.0000000000 96.9920406106 0.3673798008 2.0380053848
-0.1321930784 2.0173428975 0.0000000000 0.0000000000 0.0000000000 138.8938548461 0.3673798008 2.0380053848
-0.1309124457 1.9967157118 0.0000000000 0.0000000000 0.0000000000 175.6937657747 0.3673798008 2.0380053848
-0.1287804890 1.9761590689 0.0000000000 0.0000000000 0.0000000000 207.4918958920 0.3673798008 2.0380053848
-0.1258008509 1.9557080894 0.0000000000 0.0000000000 0.0000000000 234.4561235933 0.3673798008 2.0380053848
-0.1219786218 1.9353977135 0.0000000000 0.0000000000 0.0000000000 256.8172780255 0.3673798008 2.0380053848
-0.1173203321 1.9152626410 0.0000000000 0.0000000000 0.0000000000 274.8609194078 0.3673798008 2.0380053848
-0.1118339404 1.8953372725 0.0000000000 0.0000000000 0.0000000000 288.9161111869 0.3673798008 2.0380053848
-0.1055288200 1.8756556500 0.0000000000 0.0000000000 0.0000000000 299.3420565312 0.3673798008 2.0380053848
-0.0984157431 1.8562513993 0.0000000000 0.0000000000 0.0000000000 306.5138205434 0.3673798008 2.0380053848
-0.0905068624 1.8371576723 0.0000000000 0.0000000000 0.0000000000 310.8084957585 0.3673798008 2.0380053848
-0.0818156900 1.8184070902 0.0000000000 0.0000000000 0.0000000000 312.5930482355 0.3673798008 2.0380053848
-0.0723570747 1.8000316881 0.0000000000 0.0000000000 0.0000000000 312.2147367996 0.3673798008 2.0380053848
-0.0621471763 1.7820628600 0.0000000000 0.0000000000 0.0000000000 309.9945213100 0.3673798008 2.0380053848
-0.0512034382 1.7645313055 0.0000000000 0.0000000000 0.0000000000 306.2233980236 0.3673798008 2.0380053848
-0.0395445577 1.7474669769 0.0000000000 0.0000000000 0.0000000000 301.1612241436 0.3673798008 2.0380053848
-0.0271904537 1.7308990282 0.0000000000 0.0000000000 0.0000000000 295.0373974631 0.3673798008 2.0380053848
-0.0141622331 1.7148557657 0.0000000000 0.0000000000 0.0000000000 288.0527178427 0.3673798008 2.0380053848
-0.0004821544 1.6993645988 0.0000000000 0.0000000000 0.0000000000 280.3818769012 0.3673798008 2.0380053848
0.0287390152 1.6701434293 0.0000000000 0.0000000000 0.0000000000 263.5661378861 0.3673798008 2.0380053848
0.0442301821 1.6564633505 0.0000000000 0.0000000000 0.0000000000 254.6642463490 0.3673798008 2.0380053848
0.0602734447 1.6434351299 0.0000000000 0.0000000000 0.0000000000 245.5671707541 0.3673798008 2.0380053848
0.0768413933 1.6310810260 0.0000000000 0.0000000000 0.0000000000 236.3580371472 0.3673798008 2.0380053848
0.0939057220 1.6194221455 0.0000000000 0.0000000000 0.0000000000 227.1083732442 0.3673798008 2.0380053848
0.1114372765 1.6084784075 0.0000000000 0.0000000000 0.0000000000 217.8797944107 0.3673798008 2.0380053848
0.1294061045 1.5982685091 0.0000000000 0.0000000000 0.0000000000 208.7254250366 0.3673798008 2.0380053848
0.1477815066 1.5888098937 0.0000000000 0.0000000000 0.0000000000 199.6910688140 0.3673798008 2.0380053848
0.1665320887 1.5801187213 0.0000000000 0.0000000000 0.0000000000 190.8161887704 0.3673798008 2.0380053848
0.1856258158 1.5722098407 0.0000000000 0.0000000000 0.0000000000 182.1347515412 0.3673798008 2.0380053848
0.2050300665 1.5650967638 0.0000000000 0.0000000000 0.0000000000 173.6759819658 0.3673798008 2.0380053848
0.2247116889 1.5587916435 0.0000000000 0.0000000000 0.0000000000 165.4650488754 0.3673798008 2.0380053848
0.2446370575 1.5533052517 0.0000000000 0.0000000000 0.0000000000 157.5236895764 0.3673798008 2.0380053848
0.2647721300 1.5486469621 0.0000000000 0.0000000000 0.0000000000 149.8707739588 0.3673798008 2.0380053848
0.2850825059 1.5448247330 0.0000000000 0.0000000000 0.0000000000 142.5228094109 0.3673798008 2.0380053848
0.3055334855 1.5418450949 0.0000000000 0.0000000000 0.0000000000 135.4943911271 0.3673798008 2.0380053848
0.3260901284 1.5397131383 0.0000000000 0.0000000000 0.0000000000 128.7986021919 0.3673798008 2.0380053848
0.3467173140 1.5384325056 0.0000000000 0.0000000000 0.0000000000 122.4473749405 0.3673798008 2.0380053848
0.3673798011 1.5380053848 0.0000000000 0.0000000000 0.0000000000 116.4518175764 0.3673798008 2.0380053848
0.3880422882 1.5384325056 0.0000000000 0.0000000000 0.0000000000 110.8225297409 0.3673798008 2.0380053848
0.4086694738 1.5397131383 0.0000000000 0.0000000000 0.0000000000 105.5698992571 0.3673798008 2.0380053848
0.4292261167 1.5418450950 0.0000000000 0.0000000000 0.0000000000 100.7044398417 0.3673798008 2.0380053848
0.4496770963 1.5448247331 0.0000000000 0.0000000000 0.0000000000 96.2371105187 0.3673798008 2.0380053848
0.4699874722 1.5486469622 0.0000000000 0.0000000000 0.0000000000 92.1797993953 0.3673798008 2.0380053848
0.4901225447 1.5533052519 0.0000000000 0.0000000000 0.0000000000 88.5456828238 0.3673798008 2.0380053848
0.5100479132 1.5587916437 0.0000000000 0.0000000000 0.0000000000 85.3500546056 0.3673798008 2.0380053848
0.5297295357 1.5650967640 0.0000000000 0.0000000000 0.0000000000 82.6102916359 0.3673798008 2.0380053848
0.5491337864 1.5722098409 0.0000000000 0.0000000000 0.0000000000 80.3470559256 0.3673798008 2.0380053848
0.5682275134 1.5801187216 0.0000000000 0.0000000000 0.0000000000 78.5810407564 0.3673798008 2.0380053848
0.5869780955 1.5888098940 0.0000000000 0.0000000000 0.0000000000 77.3343171149 0.3673798008 2.0380053848
0.6053534976 1.5982685093 0.0000000000 0.0000000000 0.0000000000 76.6139968764 0.3673798008 2.0380053848
0.6233223256 1.6084784078 0.0000000000 0.0000000000 0.0000000000 76.4216175398 0.3673798008 2.0380053848
0.6408538801 1.6194221458 0.0000000000 0.0000000000 0.0000000000 76.6972564521 0.3673798008 2.0380053848
0.6579182088 1.6310810264 0.0000000000 0.0000000000 0.0000000000 77.3969472906 0.3673798008 2.0380053848
0.6744861574 1.6434351303 0.0000000000 0.0000000000 0.0000000000 78.2937530775 0.3673798008 2.0380053848
0.6905294200 1.6564633509 0.0000000000 0.0000000000 0.0000000000 79.3933880733 0.3673798008 2.0380053848
0.7060205869 1.6701434297 0.0000000000 0.0000000000 0.0000000000 80.0653779251 0.3673798008 2.0380053848
0.9050744405 1.5157801742 0.0000000000 0.1736272526 0.1676010409 78.0041143258 0.3552855363 2.0259097272
0.9244823157 1.5359332951 0.0000000000 0.1768609309 0.1462608894 79.1785564711 0.3560035230 2.0251488531
0.9430972387 1.5567969894 0.0000000000 0.1804397829 0.1240293597 80.0476486602 0.3567236265 2.0244143404
0.9608903331 1.5783443900 0.0000000000 0.1842940293 0.1019034475 80.6042045241 0.3574419980 2.0237095288
0.9778339242 1.6005481080 0.0000000000 0.1883921586 0.0804190440 80.8508969092 0.3581548432 2.0230381511
0.9939018458 1.6233799784 0.0000000000 0.1927399333 0.0597327922 80.7903021397 0.3588586961 2.0224040354
1.0090696253 1.6468109539 0.0000000000 0.1973766590 0.0397417472 80.4185351462 0.3595505722 2.0218109535
1.0233145921 1.6708110552 0.0000000000 0.2023690294 0.0202027168 79.7218827590 0.3602280468 2.0212625260
1.0366159221 1.6953493532 0.0000000000 0.2078042647 0.0008272441 78.6759690357 0.3608892709 2.0207621572
1.0489546285 1.7203939673 0.0000000000 0.2137836437 -0.0186560782 77.2464808938 0.3615329365 2.0203129852
1.0603135149 1.7459120727 0.0000000000 0.2204170489 -0.0384693550 75.3904950873 0.3621582033 2.0199178406
1.0706771058 1.7718699124 0.0000000000 0.2278188026 -0.0587752632 73.0577407341 0.3627646079 2.0195792085
1.0800315733 1.7982328116 0.0000000000 0.2361047693 -0.0796801343 70.1914929312 0.3633519688 2.0192991920
1.0883646694 1.8249651943 0.0000000000 0.2453904647 -0.1012428769 66.7290815614 0.3639202996 2.0190794777
1.0956656714 1.8520306034 0.0000000000 0.2557898256 -0.1234848635 62.6021622036 0.3644697372 2.0189213035
1.1019253389 1.8793917246 0.0000000000 0.2674143183 -0.1463982429 57.7369435448 0.3650004840 2.0188254296
1.1071358855 1.9070104150 0.0000000000 0.2803721512 -0.1699518336 52.0545397414 0.3655127658 2.0187921143
1.1112909592 1.9348477373 0.0000000000 0.2947674443 -0.1940947265 45.4715615438 0.3660068018 2.0188210940
1.1143856341 1.9628639995 0.0000000000 0.3106992674 -0.2187581511 37.9010069496 0.3664827862 2.0189115694
1.1164164093 1.9910188013 0.0000000000 0.3282604882 -0.2438562446 29.2534726626 0.3669408807 2.0190621966
1.1173812155 2.0192710862 0.0000000000 0.3475363914 -0.2692862979 19.4386807869 0.3673812155 2.0192710859
1.1172794287 2.0475792021 0.0000000000 0.3686030494 -0.2949289305 8.3672950321 0.3678039001 2.0195358061
1.1161118888 2.0759009678 0.0000000000 0.3915254653 -0.3206485260 -4.0470178548 0.3682090409 2.0198533973
1.1138809222 2.1041937481 0.0000000000 0.4163555507 -0.3462941472 -17.8853445769 0.3685967649 2.0202203908
1.1105903662 2.1324145384 0.0000000000 0.4431300528 -0.3717010419 -33.2211809606 0.3689672466 2.0206328385
1.1062455916 2.1605200587 0.0000000000 0.4718685803 -0.3966927587 -50.1180827628 0.3693207368 2.0210863531
1.1008535229 2.1884668594 0.0000000000 0.5025718949 -0.4210838017 -68.6274159237 0.3696575889 2.0215761587
1.0944226520 2.2162114412 0.0000000000 0.5352206248 -0.4446826885 -88.7863104177 0.3699782824 2.0220971572
1.0869630459 2.2437103888 0.0000000000 0.5697745233 -0.4672952290 -110.6159122320 0.3702834416 2.0226440078
1.0784863471 2.2709205207 0.0000000000 0.6061723416 -0.4887278271 -134.1200092337 0.3705738494 2.0232112240
1.0690057692 2.2977990536 0.0000000000 0.6443323236 -0.5087906150 -159.2840805170 0.3708504578 2.0237932851
1.0585360878 2.3243037802 0.0000000000 0.6841532702 -0.5273002620 -186.0747880772 0.3711143960 2.0243847618
1.0470936303 2.3503932563 0.0000000000 0.7255160684 -0.5440823486 -214.4398982639 0.3713669794 2.0249804519
1.0346962647 2.3760269926 0.0000000000 0.7682855477 -0.5589732491 -244.3085928426 0.3716097196 2.0255755213
1.0213633881 2.4011656459 0.0000000000 0.8123125150 -0.5718215276 -275.5921104242 0.3718443353 2.0261656458
1.0071159096 2.4257712057 0.0000000000 0.8574358268 -0.5824888958 -308.1846518271 0.3720727603 2.0267471482
0.9919762206 2.4498071732 0.0000000000 0.9034843882 -0.5908508191 -341.9644876379 0.3722971400 2.0273171296
0.9759681457 2.4732387330 0.0000000000 0.9502790007 -0.5967968578 -376.7952012392 0.3725198110 2.0278735937
0.9591168871 2.4960329242 0.0000000000 0.9976340007 -0.6002308054 -412.5270149469 0.3727432753 2.0284155727
0.9414490186 2.5181588303 0.0000000000 1.0453585178 -0.6010705702 -448.9978350099 0.3729702263 2.0289432718
0.9229927314 2.5395877887 0.0000000000 1.0932563829 -0.5992467023 -486.0298623121 0.3732038275 2.0294582354
0.8815545926 2.5821972202 0.0000000000 1.1938678085 -0.5868510683 -565.3821943874 0.3735934139 2.0304042872
0.8584700038 2.6031454880 0.0000000000 1.2461518088 -0.5755238597 -607.3253141068 0.3737455755 2.0308324368
0.8345611167 2.6231007785 0.0000000000 1.2976892905 -0.5608029628 -649.0782478271 0.3739015822 2.0312453964
0.8098661440 2.6420288627 0.0000000000 1.3482284438 -0.5427041682 -690.3783569176 0.3740585326 2.0316423247
0.7844249348 2.6598979697 0.0000000000 1.3975134788 -0.5212667341 -730.9704892434 0.3742138162 2.0320231109
0.7582787067 2.6766784240 0.0000000000 1.4452950496 -0.4965486628 -770.6022187467 0.3743649199 2.0323879582
0.7314698469 2.6923425793 0.0000000000 1.4913303594 -0.4686274814 -809.0250346824 0.3745093022 2.0327372659
0.7040417929 2.7068648095 0.0000000000 1.5353841335 -0.4375994563 -845.9957217786 0.3746443514 2.0330715730
0.6760389672 2.7202214980 0.0000000000 1.5772293260 -0.4035789090 -881.2776261607 0.3747673988 2.0333915030
0.6475067479 2.7323910236 0.0000000000 1.6166477854 -0.3666976088 -914.6417811438 0.3748757701 2.0336977076
0.6184914605 2.7433537499 0.0000000000 1.6534309392 -0.3271042831 -945.8679695271 0.3749668587 2.0339908186
0.5890403747 2.7530920236 0.0000000000 1.6873805593 -0.2849642241 -974.7457932691 0.3750382066 2.0342714117
0.5592016970 2.7615901802 0.0000000000 1.7183096514 -0.2404589400 -1001.0758129883 0.3750875818 2.0345399807
0.5290245509 2.7688345538 0.0000000000 1.7460434925 -0.1937857831 -1024.6707966353 0.3751130444 2.0347969198
0.4985589402 2.7748134891 0.0000000000 1.7704208209 -0.1451574789 -1045.3570898257 0.3751129977 2.0350425115
0.4678556949 2.7795173539 0.0000000000 1.7912951684 -0.0948014952 -1062.9760930904 0.3750862216 2.0352769191
0.4369664003 2.7829385554 0.0000000000 1.8085363118 -0.0429592131 -1077.3858100942 0.3750318913 2.0355001856
0.4059433122 2.7850715590 0.0000000000 1.8220318074 0.0101151141 -1088.4624173283 0.3749495817 2.0357122402
0.3748392613 2.7859129122 0.0000000000 1.8316885561 0.0641556224 -1096.1017992900 0.3748392615 2.0359129122
0.3437075499 2.7854612705 0.0000000000 1.8374343278 0.1188863303 -1100.2209920160 0.3747012807 2.0361019517
0.3126018445 2.7837174253 0.0000000000 1.8392191610 0.1740228827 -1100.7594814901 0.3745363538 2.0362790555
0.2815760660 2.7806843294 0.0000000000 1.8370165621 0.2292745573 -1097.6803119265 0.3743455396 2.0364438947
0.2506842782 2.7763671187 0.0000000000 1.8308244526 0.2843465199 -1090.9709703827 0.3741302211 2.0365961412
0.2199805758 2.7707731274 0.0000000000 1.8206658470 0.3389422770 -1080.6440236796 0.3738920826 2.0367354934
0.1895189716 2.7639118970 0.0000000000 1.8065892647 0.3927662552 -1066.7374862368 0.3736330871 2.0368616975
0.1593532821 2.7557951794 0.0000000000 1.7886688665 0.4455264375 -1049.3148934474 0.3733554504 2.0369745676
0.1295370124 2.7464369354 0.0000000000 1.7670042834 0.4969370148 -1028.4650519764 0.3730616145 2.0370740042
0.1001232386 2.7358533289 0.0000000000 1.7417200834 0.5467210331 -1004.3014449992 0.3727542167 2.0371600130
0.0711644886 2.7240627187 0.0000000000 1.7129648427 0.5946130167 -976.9612893787 0.3724360573 2.0372327237
0.0427126206 2.7110856460 0.0000000000 1.6809098329 0.6403615226 -946.6042654970 0.3721100624 2.0372924097
0.0148186993 2.6969448182 0.0000000000 1.6457473864 0.6837315510 -913.4109566716 0.3717792442 2.0373395049
-0.0124671297 2.6816650848 0.0000000000 1.6076890207 0.7245067270 -877.5810369725 0.3714466573 2.0373746192
-0.0390957684 2.6652734055 0.0000000000 1.5669633776 0.7624911902 -839.3312386362 0.3711153504 2.0373985469
-0.0650192965 2.6477988067 0.0000000000 1.5238140005 0.7975111679 -798.8931261865 0.3707883153 2.0374122689
-0.0901911025 2.6292723275 0.0000000000 1.4784969523 0.8294162375 -756.5107096913 0.3704684322 2.0374169456
-0.1145660151 2.6097269531 0.0000000000 1.4312783063 0.8580802797 -712.4379460513 0.3701584134 2.0374139021
-0.1381004312 2.5891975371 0.0000000000 1.3824315625 0.8834021092 -666.9361654761 0.3698607477 2.0374046042
-0.1824822013 2.5453346963 0.0000000000 1.2809689287 0.9237405493 -572.7118339069 0.3693107319 2.0373735177
-0.2032513706 2.5220795162 0.0000000000 1.2289139459 0.9386804108 -524.5256139239 0.3690616807 2.0373550880
-0.2230238902 2.4979965308 0.0000000000 1.1763477638 0.9501238870 -475.9783697485 0.3688314920 2.0373369965
-0.2417658256 2.4731284753 0.0000000000 1.1235432169 0.9580930598 -427.3308984381 0.3686207125 2.0373208640
-0.2594454332 2.4475193490 0.0000000000 1.0707662603 0.9626327254 -378.8373921902 0.3684294256 2.0373082306
-0.2760332070 2.4212143058 0.0000000000 1.0182741146 0.9638093871 -330.7437124396 0.3682572589 2.0373005192
-0.2915019018 2.3942595495 0.0000000000 0.9663135798 0.9617101631 -283.2858553512 0.3681034117 2.0372990049
-0.3058265342 2.3667022336 0.0000000000 0.9151194905 0.9564416297 -236.6885770452 0.3679667024 2.0373047922
-0.3189843648 2.3385903674 0.0000000000 0.8649132723 0.9481286132 -191.1641423350 0.3678456303 2.0373187991
-0.3309548688 2.3099727268 0.0000000000 0.8159015698 0.9369129314 -146.9111611446 0.3677384473 2.0373417491
-0.3417196987 2.2808987709 0.0000000000 0.7682749297 0.9229520733 -104.1134825283 0.3676432326 2.0373741693
-0.3512626465 2.2514185622 0.0000000000 0.7222065388 0.9064178076 -62.9391267975 0.3675579654 2.0374163942
-0.3595696091 2.2215826897 0.0000000000 0.6778510355 0.8874947102 -23.5392486499 0.3674805905 2.0374685746
-0.3666285612 2.1914421937 0.0000000000 0.6353434297 0.8663786151 13.9528619164 0.3674090729 2.0375306874
-0.3724295378 2.1610484903 0.0000000000 0.5947981677 0.8432749981 49.4227204684 0.3673414398 2.0376025478
-0.3769646260 2.1304532954 0.0000000000 0.5563083789 0.8183972888 82.7754947418 0.3672758088 2.0376838222
-0.3802279656 2.0997085486 0.0000000000 0.5199453177 0.7919650503 113.9367006792 0.3672104042 2.0377740398
-0.3822157572 2.0688663357 0.0000000000 0.4857579845 0.7642018260 142.8526624320 0.3671435616 2.0378726053
-0.3829262739 2.0379788111 0.0000000000 0.4537728741 0.7353321986 169.4906104404 0.3670737261 2.0379788114
-0.3823598756 2.0070981207 0.0000000000 0.4239937816 0.7055771928 193.8382439449 0.3669994432 2.0380918517
-0.3805190222 1.9762763244 0.0000000000 0.3964016263 0.6751466016 215.9025449851 0.3669193475 2.0382108338
-0.3774082855 1.9455653207 0.0000000000 0.3709543827 0.6442262137 235.7076338049 0.3668321493 2.0383347945
-0.3730343582 1.9150167706 0.0000000000 0.3475874639 0.6129575257 253.2915494396 0.3667366193 2.0384627136
-0.3674060614 1.8846820231 0.0000000000 0.3262153012 0.5814077838 268.7020729144 0.3666315725 2.0385935301
-0.3605343501 1.8546120418 0.0000000000 0.3067353234 0.5495297538 281.9920935315 0.3665158492 2.0387261575
-0.3524323177 1.8248573313 0.0000000000 0.2890358487 0.5171140969 293.2154668145 0.3663882941 2.0388594998
-0.3431151990 1.7954678652 0.0000000000 0.2730092411 0.4837429205 302.4246049681 0.3662477322 2.0389924674
-0.3326003715 1.7664930139 0.0000000000 0.2585706620 0.4487603554 309.6708547123 0.3660929444 2.0391239921