 TITLE = "Tecplot data"
 VARIABLES = "X", "Y", "Z" "U", "V", "p", "dispX", "dispY"
 ZONE SOLUTIONTIME=152.900000, NODES=26114 , ELEMENTS=25916, DATAPACKING=POINT, ZONETYPE=FEQUADRILATERAL
3.6347144053 10.9108878041 0.0000000000 0.0000000000 0.0000000000 -941.5471336126 3.2811610147 10.5573344135
3.6347144055 10.2037810232 0.0000000000 0.0000000000 0.0000000000 1095.0133309885 3.2811610147 10.5573344135
2.9276076240 10.9108878040 0.0000000000 0.0000000000 0.0000000000 -1815.4073942868 3.2811610147 10.5573344135
2.9276076243 10.2037810227 0.0000000000 0.0000000000 0.0000000000 1096.8786875212 3.2811610147 10.5573344135
3.8404508740 11.0457737436 0.0000000000 1.4523874926 -1.1020763056 169.4974909226 3.3101207881 10.5154436577
3.7348905364 9.9659918741 0.0000000000 0.4711400409 0.2928710581 1272.2009980602 3.2045604501 10.4963219597
2.7594816970 11.0832107538 0.0000000000 1.9896396625 1.4815094391 -922.8887496842 3.2898117830 10.5528806680
2.7261911595 10.0409895971 0.0000000000 0.1670114765 -0.1101402578 1109.6231681481 3.2565212451 10.5713196833
4.5267126904 11.2901481266 0.0000000000 1.4322725943 -0.2582998720 967.6172071950 3.4660525187 10.2294879547
3.8838894524 9.1128083226 0.0000000000 0.6967299328 0.4630364137 1199.1526809046 2.8232292799 10.1734684936
2.2668934698 11.5728549821 0.0000000000 1.6433325857 0.7005119382 531.9724708009 3.3275536419 10.5121948106
2.0304408268 9.5540949487 0.0000000000 0.7128066348 0.5471539927 1215.8583883198 3.0911009980 10.6147551210
8.4929307819 11.7915194813 0.0000000000 1.8375920649 0.1428683531 948.7237611580 4.2929307819 8.4915194813
5.2794854908 4.8497125349 0.0000000000 0.6490772102 0.0281932457 1185.2630614267 1.0794854908 8.1497125349
20.0000000000 4.7000000000 0.0000000000 1.2443358210 1.6665324542 7.0844879635 0.0000000000 0.0000000000
20.0000000000 -4.7000000000 0.0000000000 0.5713189673 -0.1156027552 -7.5524771461 0.0000000000 0.0000000000
-10.0000000000 15.0000000000 0.0000000000 1.0000000000 0.0000000000 1064.4443838849 0.0000000000 0.0000000000
20.0000000000 15.0000000000 0.0000000000 2.0508109715 0.0000000000 -0.1235030639 0.0000000000 0.0000000000
20.0000000000 -15.0000000000 0.0000000000 1.9829354534 0.0000000000 -0.2954211225 0.0000000000 0.0000000000
-10.0000000000 -15.0000000000 0.0000000000 1.0000000000 0.0000000000 1233.9410999500 0.0000000000 0.0000000000
3.6476869509 10.2172480449 0.0000000000 0.0000000000 0.0000000000 1053.3889227330 3.2811610147 10.5573344135
3.6601468765 10.2311907081 0.0000000000 0.0000000000 0.0000000000 1021.4503552409 3.2811610147 10.5573344135
3.6720767561 10.2455895128 0.0000000000 0.0000000000 0.0000000000 992.7739844374 3.2811610147 10.5573344135
3.6834599048 10.2604243210 0.0000000000 0.0000000000 0.0000000000 970.7790912507 3.2811610147 10.5573344135
3.6942804020 10.2756743847 0.0000000000 0.0000000000 0.0000000000 953.5824751162 3.2811610147 10.5573344135
3.7045231145 10.2913183755 0.0000000000 0.0000000000 0.0000000000 941.5333241560 3.2811610147 10.5573344135
3.7141737167 10.3073344138 0.0000000000 0.0000000000 0.0000000000 933.8298334109 3.2811610147 10.5573344135
3.7232187116 10.3237000996 0.0000000000 0.0000000000 0.0000000000 930.1691590663 3.2811610147 10.5573344135
3.7316454488 10.3403925442 0.0000000000 0.0000000000 0.0000000000 929.9541930704 3.2811610147 10.5573344135
3.7394421428 10.3573884016 0.0000000000 0.0000000000 0.0000000000 932.6812104230 3.2811610147 10.5573344135
3.7465978891 10.3746639016 0.0000000000 0.0000000000 0.0000000000 937.7376219401 3.2811610147 10.5573344135
3.7531026799 10.3921948828 0.0000000000 0.0000000000 0.0000000000 944.4985266511 3.2811610147 10.5573344135
3.7589474177 10.4099568265 0.0000000000 0.0000000000 0.0000000000 952.2777215904 3.2811610147 10.5573344135
3.7641239279 10.4279248912 0.0000000000 0.0000000000 0.0000000000 960.3576488413 3.2811610147 10.5573344135
3.7686249708 10.4460739468 0.0000000000 0.0000000000 0.0000000000 967.9822207759 3.2811610147 10.5573344135
3.7724442514 10.4643786102 0.0000000000 0.0000000000 0.0000000000 974.3709476931 3.2811610147 10.5573344135
3.7755764278 10.4828132806 0.0000000000 0.0000000000 0.0000000000 978.7235085653 3.2811610147 10.5573344135
3.7780171197 10.5013521757 0.0000000000 0.0000000000 0.0000000000 980.2306146893 3.2811610147 10.5573344135
3.7797629133 10.5199693669 0.0000000000 0.0000000000 0.0000000000 978.0828380981 3.2811610147 10.5573344135
3.7808113671 10.5386388166 0.0000000000 0.0000000000 0.0000000000 971.4818686793 3.2811610147 10.5573344135
3.7811610147 10.5573344137 0.0000000000 0.0000000000 0.0000000000 959.6518613362 3.2811610147 10.5573344135
3.7808113671 10.5760300108 0.0000000000 0.0000000000 0.0000000000 941.8523340695 3.2811610147 10.5573344135
3.7797629133 10.5946994605 0.0000000000 0.0000000000 0.0000000000 917.3915850478 3.2811610147 10.5573344135
3.7780171196 10.6133166517 0.0000000000 0.0000000000 0.0000000000 885.6419736627 3.2811610147 10.5573344135
3.7755764278 10.6318555468 0.0000000000 0.0000000000 0.0000000000 846.0547497111 3.2811610147 10.5573344135
3.7724442513 10.6502902172 0.0000000000 0.0000000000 0.0000000000 798.1788046235 3.2811610147 10.5573344135
3.7686249708 10.6685948806 0.0000000000 0.0000000000 0.0000000000 741.6737935323 3.2811610147 10.5573344135
3.7641239278 10.6867439362 0.0000000000 0.0000000000 0.0000000000 676.3347932735 3.2811610147 10.5573344135
3.7589474176 10.7047120008 0.0000000000 0.0000000000 0.0000000000 602.0921157483 3.2811610147 10.5573344135
3.7531026798 10.7224739446 0.0000000000 0.0000000000 0.0000000000 519.0518512478 3.2811610147 10.5573344135
3.7465978890 10.7400049258 0.0000000000 0.0000000000 0.0000000000 427.4488969186 3.2811610147 10.5573344135
3.7394421426 10.7572804258 0.0000000000 0.0000000000 0.0000000000 327.7462828866 3.2811610147 10.5573344135
3.7316454486 10.7742762832 0.0000000000 0.0000000000 0.0000000000 220.4454960479 3.2811610147 10.5573344135
3.7232187114 10.7909687277 0.0000000000 0.0000000000 0.0000000000 106.3979782394 3.2811610147 10.5573344135
3.7141737165 10.8073344136 0.0000000000 0.0000000000 0.0000000000 -13.8129527423 3.2811610147 10.5573344135
3.7045231143 10.8233504518 0.0000000000 0.0000000000 0.0000000000 -138.8451437314 3.2811610147 10.5573344135
3.6942804018 10.8389944426 0.0000000000 0.0000000000 0.0000000000 -268.5186303043 3.2811610147 10.5573344135
3.6834599045 10.8542445063 0.0000000000 0.0000000000 0.0000000000 -400.5105447795 3.2811610147 10.5573344135
3.6720767559 10.8690793145 0.0000000000 0.0000000000 0.0000000000 -536.2778504631 3.2811610147 10.5573344135
3.6601468762 10.8834781192 0.0000000000 0.0000000000 0.0000000000 -670.7397844456 3.2811610147 10.5573344135
3.6476869506 10.8974207824 0.0000000000 0.0000000000 0.0000000000 -810.3702592708 3.2811610147 10.5573344135
3.6198018005 10.9251963689 0.0000000000 0.0000000000 0.0000000000 -1095.7558612206 3.2811610147 10.5573344135
3.6043106336 10.9388764476 0.0000000000 0.0000000000 0.0000000000 -1240.3800166243 3.2811610147 10.5573344135
3.5882673710 10.9519046682 0.0000000000 0.0000000000 0.0000000000 -1386.5515437883 3.2811610147 10.5573344135
3.5716994224 10.9642587722 0.0000000000 0.0000000000 0.0000000000 -1526.8125390872 3.2811610147 10.5573344135
3.5546350937 10.9759176527 0.0000000000 0.0000000000 0.0000000000 -1664.2370356181 3.2811610147 10.5573344135
3.5371035392 10.9868613907 0.0000000000 0.0000000000 0.0000000000 -1796.1662579704 3.2811610147 10.5573344135
3.5191347112 10.9970712891 0.0000000000 0.0000000000 0.0000000000 -1923.2078528428 3.2811610147 10.5573344135
3.5007593091 11.0065299045 0.0000000000 0.0000000000 0.0000000000 -2044.2201245430 3.2811610147 10.5573344135
3.4820087270 11.0152210769 0.0000000000 0.0000000000 0.0000000000 -2159.0962267803 3.2811610147 10.5573344135
3.4629149999 11.0231299576 0.0000000000 0.0000000000 0.0000000000 -2267.2125915765 3.2811610147 10.5573344135
3.4435107492 11.0302430344 0.0000000000 0.0000000000 0.0000000000 -2368.2889306186 3.2811610147 10.5573344135
3.4238291267 11.0365481547 0.0000000000 0.0000000000 0.0000000000 -2461.9089143413 3.2811610147 10.5573344135
3.4039037582 11.0420345465 0.0000000000 0.0000000000 0.0000000000 -2547.7844700513 3.2811610147 10.5573344135
3.3837686857 11.0466928362 0.0000000000 0.0000000000 0.0000000000 -2625.6078126783 3.2811610147 10.5573344135
3.3634583098 11.0505150652 0.0000000000 0.0000000000 0.0000000000 -2695.1310081167 3.2811610147 10.5573344135
3.3430073302 11.0534947034 0.0000000000 0.0000000000 0.0000000000 -2756.1198788417 3.2811610147 10.5573344135
3.3224506873 11.0556266600 0.0000000000 0.0000000000 0.0000000000 -2808.3765628789 3.2811610147 10.5573344135
3.3018235017 11.0569072927 0.0000000000 0.0000000000 0.0000000000 -2851.7246214001 3.2811610147 10.5573344135
3.2811610146 11.0573344135 0.0000000000 0.0000000000 0.0000000000 -2886.0145216574 3.2811610147 10.5573344135
3.2604985275 11.0569072927 0.0000000000 0.0000000000 0.0000000000 -2911.1184212389 3.2811610147 10.5573344135
3.2398713419 11.0556266600 0.0000000000 0.0000000000 0.0000000000 -2926.9309946059 3.2811610147 10.5573344135
3.2193146990 11.0534947034 0.0000000000 0.0000000000 0.0000000000 -2933.3676214844 3.2811610147 10.5573344135
3.1988637194 11.0505150652 0.0000000000 0.0000000000 0.0000000000 -2930.3647945587 3.2811610147 10.5573344135
3.1785533435 11.0466928361 0.0000000000 0.0000000000 0.0000000000 -2917.8806385216 3.2811610147 10.5573344135
3.1584182710 11.0420345464 0.0000000000 0.0000000000 0.0000000000 -2895.8970639303 3.2811610147 10.5573344135
3.1384929025 11.0365481547 0.0000000000 0.0000000000 0.0000000000 -2864.4231554716 3.2811610147 10.5573344135
3.1188112800 11.0302430343 0.0000000000 0.0000000000 0.0000000000 -2823.5001946488 3.2811610147 10.5573344135
3.0994070293 11.0231299575 0.0000000000 0.0000000000 0.0000000000 -2773.2080893931 3.2811610147 10.5573344135
3.0803133023 11.0152210768 0.0000000000 0.0000000000 0.0000000000 -2713.6730616079 3.2811610147 10.5573344135
3.0615627202 11.0065299044 0.0000000000 0.0000000000 0.0000000000 -2645.0761222699 3.2811610147 10.5573344135
3.0431873181 10.9970712890 0.0000000000 0.0000000000 0.0000000000 -2567.6616859366 3.2811610147 10.5573344135
3.0252184900 10.9868613906 0.0000000000 0.0000000000 0.0000000000 -2481.7455001625 3.2811610147 10.5573344135
3.0076869355 10.9759176526 0.0000000000 0.0000000000 0.0000000000 -2387.7210122730 3.2811610147 10.5573344135
2.9906226069 10.9642587720 0.0000000000 0.0000000000 0.0000000000 -2286.0633192562 3.2811610147 10.5573344135
2.9740546582 10.9519046681 0.0000000000 0.0000000000 0.0000000000 -2177.3300067273 3.2811610147 10.5573344135
2.9580113957 10.9388764475 0.0000000000 0.0000000000 0.0000000000 -2062.1584393912 3.2811610147 10.5573344135
2.9425202288 10.9251963687 0.0000000000 0.0000000000 0.0000000000 -1941.2594063258 3.2811610147 10.5573344135
2.9132990593 10.8959751992 0.0000000000 0.0000000000 0.0000000000 -1685.4281047135 3.2811610147 10.5573344135
2.8996189805 10.8804840323 0.0000000000 0.0000000000 0.0000000000 -1552.1840864294 3.2811610147 10.5573344135
2.8865907599 10.8644407697 0.0000000000 0.0000000000 0.0000000000 -1416.5594906776 3.2811610147 10.5573344135
2.8742366560 10.8478728211 0.0000000000 0.0000000000 0.0000000000 -1279.4449658379 3.2811610147 10.5573344135
2.8625777755 10.8308084924 0.0000000000 0.0000000000 0.0000000000 -1141.7236242716 3.2811610147 10.5573344135
2.8516340374 10.8132769379 0.0000000000 0.0000000000 0.0000000000 -1004.2588614088 3.2811610147 10.5573344135
2.8414241390 10.7953081099 0.0000000000 0.0000000000 0.0000000000 -867.8845870827 3.2811610147 10.5573344135
2.8319655237 10.7769327078 0.0000000000 0.0000000000 0.0000000000 -733.3981014336 3.2811610147 10.5573344135
2.8232743513 10.7581821257 0.0000000000 0.0000000000 0.0000000000 -601.5553699296 3.2811610147 10.5573344135
2.8153654706 10.7390883986 0.0000000000 0.0000000000 0.0000000000 -473.0678397135 3.2811610147 10.5573344135
2.8082523938 10.7196841479 0.0000000000 0.0000000000 0.0000000000 -348.5993258872 3.2811610147 10.5573344135
2.8019472734 10.7000025254 0.0000000000 0.0000000000 0.0000000000 -228.7611347785 3.2811610147 10.5573344135
2.7964608817 10.6800771569 0.0000000000 0.0000000000 0.0000000000 -114.1037685227 3.2811610147 10.5573344135
2.7918025920 10.6599420844 0.0000000000 0.0000000000 0.0000000000 -5.1044324605 3.2811610147 10.5573344135
2.7879803630 10.6396317084 0.0000000000 0.0000000000 0.0000000000 97.8489463288 3.2811610147 10.5573344135
2.7850007248 10.6191807289 0.0000000000 0.0000000000 0.0000000000 194.4747251640 3.2811610147 10.5573344135
2.7828687682 10.5986240860 0.0000000000 0.0000000000 0.0000000000 284.6116074816 3.2811610147 10.5573344135
2.7815881355 10.5779969004 0.0000000000 0.0000000000 0.0000000000 368.2252119331 3.2811610147 10.5573344135
2.7811610147 10.5573344133 0.0000000000 0.0000000000 0.0000000000 445.4036541124 3.2811610147 10.5573344135
2.7815881355 10.5366719262 0.0000000000 0.0000000000 0.0000000000 516.3415336102 3.2811610147 10.5573344135
2.7828687682 10.5160447406 0.0000000000 0.0000000000 0.0000000000 581.3154482330 3.2811610147 10.5573344135
2.7850007249 10.4954880977 0.0000000000 0.0000000000 0.0000000000 640.6567234004 3.2811610147 10.5573344135
2.7879803630 10.4750371181 0.0000000000 0.0000000000 0.0000000000 694.7269058416 3.2811610147 10.5573344135
2.7918025921 10.4547267422 0.0000000000 0.0000000000 0.0000000000 743.8990683454 3.2811610147 10.5573344135
2.7964608818 10.4345916697 0.0000000000 0.0000000000 0.0000000000 788.5450269871 3.2811610147 10.5573344135
2.8019472735 10.4146663012 0.0000000000 0.0000000000 0.0000000000 829.0269331694 3.2811610147 10.5573344135
2.8082523939 10.3949846787 0.0000000000 0.0000000000 0.0000000000 865.6916721641 3.2811610147 10.5573344135
2.8153654708 10.3755804280 0.0000000000 0.0000000000 0.0000000000 898.8672346354 3.2811610147 10.5573344135
2.8232743515 10.3564867010 0.0000000000 0.0000000000 0.0000000000 928.8608111996 3.2811610147 10.5573344135
2.8319655239 10.3377361189 0.0000000000 0.0000000000 0.0000000000 955.9584575938 3.2811610147 10.5573344135
2.8414241392 10.3193607168 0.0000000000 0.0000000000 0.0000000000 980.4259888315 3.2811610147 10.5573344135
2.8516340376 10.3013918887 0.0000000000 0.0000000000 0.0000000000 1002.5105608131 3.2811610147 10.5573344135
2.8625777757 10.2838603342 0.0000000000 0.0000000000 0.0000000000 1022.4424339138 3.2811610147 10.5573344135
2.8742366562 10.2667960056 0.0000000000 0.0000000000 0.0000000000 1040.4365791053 3.2811610147 10.5573344135
2.8865907602 10.2502280570 0.0000000000 0.0000000000 0.0000000000 1056.6941030020 3.2811610147 10.5573344135
2.8996189808 10.2341847944 0.0000000000 0.0000000000 0.0000000000 1071.4035653761 3.2811610147 10.5573344135
2.9132990595 10.2186936275 0.0000000000 0.0000000000 0.0000000000 1084.7424453498 3.2811610147 10.5573344135
2.9425202291 10.1894724580 0.0000000000 0.0000000000 0.0000000000 1107.9725444892 3.2811610147 10.5573344135
2.9580113960 10.1757923792 0.0000000000 0.0000000000 0.0000000000 1118.1783132760 3.2811610147 10.5573344135
2.9740546586 10.1627641586 0.0000000000 0.0000000000 0.0000000000 1127.6462895595 3.2811610147 10.5573344135
2.9906226072 10.1504100547 0.0000000000 0.0000000000 0.0000000000 1136.5246162931 3.2811610147 10.5573344135
3.0076869359 10.1387511742 0.0000000000 0.0000000000 0.0000000000 1144.9613201863 3.2811610147 10.5573344135
3.0252184904 10.1278074362 0.0000000000 0.0000000000 0.0000000000 1153.1065099842 3.2811610147 10.5573344135
3.0431873184 10.1175975378 0.0000000000 0.0000000000 0.0000000000 1161.1148840331 3.2811610147 10.5573344135
3.0615627205 10.1081389224 0.0000000000 0.0000000000 0.0000000000 1169.1486023399 3.2811610147 10.5573344135
3.0803133026 10.0994477501 0.0000000000 0.0000000000 0.0000000000 1177.3805554495 3.2811610147 10.5573344135
3.0994070297 10.0915388694 0.0000000000 0.0000000000 0.0000000000 1185.9979525674 3.2811610147 10.5573344135
3.1188112804 10.0844257926 0.0000000000 0.0000000000 0.0000000000 1195.2059731046 3.2811610147 10.5573344135
3.1384929029 10.0781206722 0.0000000000 0.0000000000 0.0000000000 1205.2309379465 3.2811610147 10.5573344135
3.1584182714 10.0726342805 0.0000000000 0.0000000000 0.0000000000 1216.3220481891 3.2811610147 10.5573344135
3.1785533439 10.0679759908 0.0000000000 0.0000000000 0.0000000000 1228.7502137333 3.2811610147 10.5573344135
3.1988637199 10.0641537617 0.0000000000 0.0000000000 0.0000000000 1242.8018812204 3.2811610147 10.5573344135
3.2193146994 10.0611741236 0.0000000000 0.0000000000 0.0000000000 1258.7651854463 3.2811610147 10.5573344135
3.2398713423 10.0590421670 0.0000000000 0.0000000000 0.0000000000 1276.9053700899 3.2811610147 10.5573344135
3.2604985279 10.0577615343 0.0000000000 0.0000000000 0.0000000000 1297.4266098163 3.2811610147 10.5573344135
3.2811610150 10.0573344135 0.0000000000 0.0000000000 0.0000000000 1320.4184580956 3.2811610147 10.5573344135
3.3018235021 10.0577615343 0.0000000000 0.0000000000 0.0000000000 1345.7876890299 3.2811610147 10.5573344135
3.3224506877 10.0590421670 0.0000000000 0.0000000000 0.0000000000 1373.1803425947 3.2811610147 10.5573344135
3.3430073306 10.0611741237 0.0000000000 0.0000000000 0.0000000000 1401.9045754773 3.2811610147 10.5573344135
3.3634583102 10.0641537618 0.0000000000 0.0000000000 0.0000000000 1430.8708573714 3.2811610147 10.5573344135
3.3837686861 10.0679759909 0.0000000000 0.0000000000 0.0000000000 1458.5716646166 3.2811610147 10.5573344135
3.4039037586 10.0726342806 0.0000000000 0.0000000000 0.0000000000 1483.1228948502 3.2811610147 10.5573344135
3.4238291271 10.0781206724 0.0000000000 0.0000000000 0.0000000000 1502.3857422552 3.2811610147 10.5573344135
3.4435107496 10.0844257928 0.0000000000 0.0000000000 0.0000000000 1514.1699167277 3.2811610147 10.5573344135
3.4629150003 10.0915388696 0.0000000000 0.0000000000 0.0000000000 1516.5060605117 3.2811610147 10.5573344135
3.4820087273 10.0994477503 0.0000000000 0.0000000000 0.0000000000 1507.9364789578 3.2811610147 10.5573344135
3.5007593094 10.1081389227 0.0000000000 0.0000000000 0.0000000000 1487.7878253546 3.2811610147 10.5573344135
3.5191347115 10.1175975381 0.0000000000 0.0000000000 0.0000000000 1456.3194582848 3.2811610147 10.5573344135
3.5371035395 10.1278074365 0.0000000000 0.0000000000 0.0000000000 1414.7950153274 3.2811610147 10.5573344135
3.5546350941 10.1387511746 0.0000000000 0.0000000000 0.0000000000 1365.2568052225 3.2811610147 10.5573344135
3.5716994227 10.1504100551 0.0000000000 0.0000000000 0.0000000000 1310.4818679837 3.2811610147 10.5573344135
3.5882673713 10.1627641590 0.0000000000 0.0000000000 0.0000000000 1253.1409749673 3.2811610147 10.5573344135
3.6043106339 10.1757923796 0.0000000000 0.0000000000 0.0000000000 1196.7116525669 3.2811610147 10.5573344135
3.6198018008 10.1894724584 0.0000000000 0.0000000000 0.0000000000 1142.0098550744 3.2811610147 10.5573344135
3.7585783551 9.9820073178 0.0000000000 0.4720497460 0.2790057530 1268.4444821531 3.2087894509 10.4921368708
3.7815210965 9.9988828349 0.0000000000 0.4725290679 0.2643396274 1264.9901305234 3.2130423038 10.4880983930
3.8036714499 10.0165978553 0.0000000000 0.4726617619 0.2487473580 1261.9834180370 3.2172978377 10.4842152063
3.8249804973 10.0351383540 0.0000000000 0.4725308797 0.2321195227 1259.5317522581 3.2215321622 10.4805034928
3.8454010872 10.0544914902 0.0000000000 0.4722215419 0.2143675838 1257.6951196281 3.2257220062 10.4769815333
3.8648894276 10.0746440479 0.0000000000 0.4718187927 0.1954169897 1256.4920403873 3.2298462779 10.4736681049
3.8834060048 10.0955816905 0.0000000000 0.4714068291 0.1752026167 1255.9054495912 3.2338869517 10.4705816901
3.9009160637 10.1172885261 0.0000000000 0.4710694912 0.1536654890 1255.8885354698 3.2378295184 10.4677399969
3.9173897232 10.1397468305 0.0000000000 0.4708917789 0.1307500356 1256.3697992278 3.2416630721 10.4651596344
3.9328017825 10.1629368558 0.0000000000 0.4709620716 0.1064021556 1257.2567928796 3.2453800904 10.4628558736
3.9471313047 10.1868366776 0.0000000000 0.4713747156 0.0805683782 1258.4383045841 3.2489759931 10.4608424454
3.9603610803 10.2114220549 0.0000000000 0.4722326802 0.0531961562 1259.7850309738 3.2524485825 10.4591313510
3.9724770678 10.2366662948 0.0000000000 0.4736500360 0.0242351866 1261.1489490456 3.2557974633 10.4577326753
3.9834678795 10.2625401205 0.0000000000 0.4757540579 -0.0063603959 1262.3616966477 3.2590235097 10.4566544040
3.9933243473 10.2890115498 0.0000000000 0.4786867833 -0.0386291106 1263.2323185241 3.2621284131 10.4559022499
4.0020391773 10.3160457887 0.0000000000 0.4826058779 -0.0725986679 1263.5447601952 3.2651143223 10.4554794937
4.0096066888 10.3436051465 0.0000000000 0.4876846711 -0.1082821238 1263.0555110886 3.2679835690 10.4553868458
4.0160226290 10.3716489764 0.0000000000 0.4941112439 -0.1456738480 1261.4918158567 3.2707384715 10.4556223332
4.0212840540 10.4001336450 0.0000000000 0.5020864816 -0.1847455376 1258.5508840698 3.2733812061 10.4561812149
4.0253892685 10.4290125345 0.0000000000 0.5118210535 -0.2254425455 1253.9005234273 3.2759137399 10.4570559299
4.0283378202 10.4582360803 0.0000000000 0.5235313456 -0.2676808209 1247.1815881036 3.2783378202 10.4582360800
4.0301305423 10.4877518464 0.0000000000 0.5374344565 -0.3113447694 1238.0125602656 3.2806550137 10.4597084504
4.0307696388 10.5175046414 0.0000000000 0.5537424664 -0.3562863222 1225.9964605313 3.2828667909 10.4614570710
4.0302588031 10.5474366790 0.0000000000 0.5726562881 -0.4023254504 1210.7301089565 3.2849746458 10.4634633217
4.0286033578 10.5774877872 0.0000000000 0.5943595139 -0.4492522619 1191.8155366791 3.2869802382 10.4657060873
4.0258104010 10.6075956729 0.0000000000 0.6190127402 -0.4968306923 1168.8730942890 3.2888855461 10.4681619673
4.0218889458 10.6376962505 0.0000000000 0.6467488765 -0.5448036538 1141.5555415084 3.2906930117 10.4708055498
4.0168500399 10.6677240408 0.0000000000 0.6776699033 -0.5928993656 1109.5621662919 3.2924056702 10.4736097567
4.0107068576 10.6976126506 0.0000000000 0.7118454740 -0.6408384165 1072.6518019060 3.2940272533 10.4765462696
4.0034747636 10.7272953336 0.0000000000 0.7493137174 -0.6883407886 1030.6535301091 3.2955622659 10.4795860370
3.9951713522 10.7567056329 0.0000000000 0.7900848044 -0.7351313070 983.4739607063 3.2970160408 10.4826998644
3.9858164719 10.7857780922 0.0000000000 0.8341484655 -0.7809405658 931.1003866490 3.2983947800 10.4858590738
3.9754322461 10.8144490198 0.0000000000 0.8814868597 -0.8254969409 873.5998333974 3.2997055952 10.4890362153
3.9640430996 10.8426572770 0.0000000000 0.9320915920 -0.8685063452 811.1148415552 3.3009565546 10.4922058056
3.9516757874 10.8703450651 0.0000000000 0.9859771018 -0.9096227751 743.8574248961 3.3021567346 10.4953450650
3.9383594077 10.8974586867 0.0000000000 1.0431775384 -0.9484224003 672.1028975319 3.3033162584 10.4984346292
3.9241253607 10.9239492646 0.0000000000 1.1037197049 -0.9843978074 596.1848830891 3.3044462801 10.5014592210
3.9090072220 10.9497734232 0.0000000000 1.1675804998 -1.0169797699 516.4918323397 3.3055588873 10.5044082839
3.8930405891 10.9748939615 0.0000000000 1.2346488073 -1.0455779564 433.4643171348 3.3066669773 10.5072766101
3.8762631930 10.9992806190 0.0000000000 1.3047067710 -1.0696235516 347.5931049780 3.3077844007 10.5100650605
3.8587162795 11.0229109451 0.0000000000 1.3774313633 -1.0885977813 259.4261564015 3.3089273757 10.5127813917
3.8187505678 11.0695848447 0.0000000000 1.5369773284 -1.1122392460 65.8079330140 3.3107893892 10.5177919116
3.7962107787 11.0923803508 0.0000000000 1.6235397855 -1.1149026436 -39.4293574295 3.3114863504 10.5200672996
3.7728527023 11.1141104684 0.0000000000 1.7112109527 -1.1099673219 -145.5193781022 3.3121931679 10.5222550863
3.7487036460 11.1347380468 0.0000000000 1.7992621783 -1.0973592489 -251.8292031682 3.3128960346 10.5243515088
3.7237937701 11.1542312614 0.0000000000 1.8869778338 -1.0770970348 -357.7605381279 3.3135826516 10.5263564027
3.6981550768 11.1725615835 0.0000000000 1.9736740084 -1.0492790146 -462.7449206792 3.3142412900 10.5282711176
3.6718207297 11.1897032474 0.0000000000 2.0587058894 -1.0140677542 -566.2457667957 3.3148601850 10.5300979339
3.6448247728 11.2056330187 0.0000000000 2.1414716304 -0.9716752986 -667.7562907771 3.3154273312 10.5318397822
3.6172021141 11.2203299772 0.0000000000 2.2214123002 -0.9223513044 -766.7946460575 3.3159305457 10.5334999821
3.5889886894 11.2337752929 0.0000000000 2.2980094889 -0.8663743101 -862.8973748487 3.3163577116 10.5350819769
3.5602217272 11.2459520399 0.0000000000 2.3707816130 -0.8040460244 -955.6123900402 3.3166971254 10.5365891086
3.5309400475 11.2568450657 0.0000000000 2.4392799346 -0.7356882183 -1044.4924155825 3.3169378794 10.5380244538
3.5011843404 11.2664409089 0.0000000000 2.5030848735 -0.6616419369 -1129.0897508088 3.3170702251 10.5393907094
3.4709973881 11.2747277476 0.0000000000 2.5618029775 -0.5822685569 -1208.9529715077 3.3170858815 10.5406901136
3.4404242104 11.2816953656 0.0000000000 2.6150646563 -0.4979519507 -1283.6258895052 3.3169782679 10.5419243880
3.4095121273 11.2873351369 0.0000000000 2.6625226515 -0.4091009230 -1352.6487648179 3.3167426540 10.5430947021
3.3783107420 11.2916400334 0.0000000000 2.7038511891 -0.3161515661 -1415.5615760929 3.3163762330 10.5442016637
3.3468718579 11.2946046642 0.0000000000 2.7387458572 -0.2195699708 -1471.9091046093 3.3158781274 10.5452453454
3.3152493445 11.2962253510 0.0000000000 2.7669243340 -0.1198559923 -1521.2475751693 3.3152493447 10.5462253510
3.2834989688 11.2965002371 0.0000000000 2.7881280916 -0.0175479998 -1563.1525399746 3.3144926996 10.5471409183
3.2516782056 11.2954294206 0.0000000000 2.8021251827 0.0867726381 -1597.2276815114 3.3136127149 10.5479910509
3.2198460380 11.2930150980 0.0000000000 2.8087143428 0.1924788418 -1623.1143597155 3.3126155116 10.5487746632
3.1880627515 11.2892617041 0.0000000000 2.8077309083 0.2988973704 -1640.5019365891 3.3115086943 10.5494907265
3.1563897244 11.2841760392 0.0000000000 2.7990551052 0.4053100622 -1649.1389132972 3.3103012312 10.5501384052
3.1248892139 11.2777673788 0.0000000000 2.7826227950 0.5109566753 -1648.8445823150 3.3090033294 10.5507171793
3.0936241336 11.2700475662 0.0000000000 2.7584379089 0.6150409666 -1639.5204608610 3.3076263019 10.5512269544
3.0626578217 11.2610310930 0.0000000000 2.7265852290 0.7167421098 -1621.1607110867 3.3061824238 10.5516681618
3.0320537969 11.2507351708 0.0000000000 2.6872421015 0.8152318127 -1593.8608877166 3.3046847750 10.5520418548
3.0018754996 11.2391797961 0.0000000000 2.6406875301 0.9096961139 -1557.8240498944 3.3031470682 10.5523498011
2.9721860186 11.2263878059 0.0000000000 2.5873069610 0.9993605592 -1513.3632963682 3.3015834604 10.5525945695
2.9430478028 11.2123849159 0.0000000000 2.5275914680 1.0835164769 -1460.9001590045 3.3000083478 10.5527796026
2.9145223575 11.1971997330 0.0000000000 2.4621305871 1.1615453874 -1400.9583086160 3.2984361445 10.5529092673
2.8866699269 11.1808637298 0.0000000000 2.3915986145 1.2329391814 -1334.1525133905 3.2968810457 10.5529888713
2.8595491658 11.1634111767 0.0000000000 2.3167349985 1.2973143433 -1261.1732980854 3.2953567775 10.5530246389
2.8332168028 11.1448790233 0.0000000000 2.2383202915 1.3544191051 -1182.7682270678 3.2938763375 10.5530236414
2.8077273052 11.1253067331 0.0000000000 2.1571497492 1.4041330099 -1099.7210258397 3.2924517337 10.5529936821
2.7831325643 11.1047360675 0.0000000000 2.0740069666 1.4464590915 -1012.8302268463 3.2910937432 10.5529431346
2.7368186205 11.0607767266 0.0000000000 1.9047378804 1.5094853667 -830.6520556950 3.2886115537 10.5528155481
2.7151871650 11.0374810427 0.0000000000 1.8199250407 1.5306562871 -736.8550442465 3.2875002163 10.5527566144
2.6946254680 11.0133722042 0.0000000000 1.7357416112 1.5453352548 -642.1674888780 3.2864808502 10.5527126699
2.6751679404 10.9884996315 0.0000000000 1.6526438081 1.5538564917 -547.1986790620 3.2855544785 10.5526920201
2.6568450904 10.9629134746 0.0000000000 1.5710038177 1.5565540890 -452.4928906885 3.2847199493 10.5527023563
2.6396835250 10.9366643781 0.0000000000 1.4911132175 1.5537431971 -358.5290543795 3.2839739909 10.5527505915
2.6237060587 10.9098032702 0.0000000000 1.4131883644 1.5457034467 -265.7235357683 3.2833113722 10.5528427257
2.6089319088 10.8823811863 0.0000000000 1.3373764603 1.5326640400 -174.4351470367 3.2827251454 10.5529837449
2.5953769558 10.8544491280 0.0000000000 1.2637612234 1.5147895554 -84.9715528145 3.2822069509 10.5531775598
2.5830540436 10.8260579574 0.0000000000 1.1923673318 1.4921652737 2.4036547722 3.2817473598 10.5534269797
2.5719732940 10.7972583227 0.0000000000 1.1231630853 1.4647807539 87.4637517637 3.2813362254 10.5537337211
2.5621424086 10.7681006098 0.0000000000 1.0560610447 1.4325105174 170.0118650271 3.2809630205 10.5540984419
2.5535669382 10.7386349120 0.0000000000 0.9909168108 1.3950911495 249.8742495626 3.2806171377 10.5545207969
2.5462505036 10.7089110109 0.0000000000 0.9275266631 1.3520951121 326.8938159192 3.2802881377 10.5549995045
2.5401949589 10.6789783620 0.0000000000 0.8656255452 1.3029033619 400.9237726604 3.2799659365 10.5555324196
2.5354004960 10.6488860816 0.0000000000 0.8048878532 1.2466818421 471.8212007654 3.2796409308 10.5561166085
2.5318656932 10.6186829329 0.0000000000 0.7449346790 1.1823714717 539.4404144608 3.2793040630 10.5567484241
2.5295875181 10.5884173119 0.0000000000 0.6853527530 1.1087079852 603.6263015743 3.2789468369 10.5574235816
2.5285612948 10.5581372348 0.0000000000 0.6257327072 1.0242976022 664.2087922288 3.2785612948 10.5581372351
2.5287806482 10.5278903283 0.0000000000 0.5657375774 0.9277869956 721.0011351954 3.2781399670 10.5588840593
2.5302374371 10.4977238241 0.0000000000 0.5052149956 0.8181776308 773.8057048787 3.2776758068 10.5596583335
2.5329216808 10.4676845579 0.0000000000 0.4443623448 0.6953322172 822.4296369533 3.2771621156 10.5604540317
2.5368214838 10.4378189723 0.0000000000 0.3839319247 0.5606772563 866.7082856571 3.2765924613 10.5612649153