 TITLE = "Tecplot data"
 VARIABLES = "X", "Y", "Z" "U", "V", "p", "dispX", "dispY"
 ZONE SOLUTIONTIME=179.900000, NODES=26114 , ELEMENTS=25916, DATAPACKING=POINT, ZONETYPE=FEQUADRILATERAL
0.3535533906 0.3535533906 0.0000000000 0.0000000000 0.0000000000 -367.6302031768 0.0000000000 0.0000000000
0.3535533908 -0.3535533903 0.0000000000 0.0000000000 0.0000000000 -401.1143454146 0.0000000000 0.0000000000
-0.3535533907 0.3535533905 0.0000000000 0.0000000000 0.0000000000 -133.0692973234 0.0000000000 0.0000000000
-0.3535533904 -0.3535533908 0.0000000000 0.0000000000 0.0000000000 -95.3170502321 0.0000000000 0.0000000000
0.5303300858 0.5303300859 0.0000000000 0.1968093633 0.0397133731 -341.0592213765 0.0000000000 0.0000000000
0.5303300863 -0.5303300855 0.0000000000 0.2282918302 0.0199564282 -388.7953057853 0.0000000000 0.0000000000
-0.5303300861 0.5303300857 0.0000000000 0.8643144903 0.5326583217 37.7569281473 0.0000000000 0.0000000000
-0.5303300856 -0.5303300862 0.0000000000 0.8352619118 -0.5027214060 55.0332137220 0.0000000000 0.0000000000
1.0606601717 1.0606601719 0.0000000000 1.3145558068 -0.0413784622 -297.9500145740 0.0000000000 0.0000000000
1.0606601725 -1.0606601710 0.0000000000 1.1513867081 -0.0161342154 -179.1793969131 0.0000000000 0.0000000000
-1.0606601721 1.0606601715 0.0000000000 0.9517228095 0.1855328229 77.8626300539 0.0000000000 0.0000000000
-1.0606601712 -1.0606601723 0.0000000000 0.9346456156 -0.1729076700 81.9467856637 0.0000000000 0.0000000000
4.2000000000 3.3000000000 0.0000000000 1.0508782291 0.0044416423 2.6865006025 0.0000000000 0.0000000000
4.2000000000 -3.3000000000 0.0000000000 1.0263057854 0.0411263399 -5.2175199991 0.0000000000 0.0000000000
20.0000000000 4.7000000000 0.0000000000 1.0314964844 0.0281517550 0.4664485904 0.0000000000 0.0000000000
20.0000000000 -4.7000000000 0.0000000000 1.0374929154 -0.0096595148 -0.2599750365 0.0000000000 0.0000000000
-10.0000000000 15.0000000000 0.0000000000 1.0000000000 0.0000000000 20.0920993533 0.0000000000 0.0000000000
20.0000000000 15.0000000000 0.0000000000 1.0214631295 0.0000000000 0.0213949995 0.0000000000 0.0000000000
20.0000000000 -15.0000000000 0.0000000000 1.0214620011 0.0000000000 0.0234916453 0.0000000000 0.0000000000
-10.0000000000 -15.0000000000 0.0000000000 1.0000000000 0.0000000000 21.2603163239 0.0000000000 0.0000000000
0.3665259362 -0.3400863686 0.0000000000 0.0000000000 0.0000000000 -396.3405646708 0.0000000000 0.0000000000
0.3789858618 -0.3261437054 0.0000000000 0.0000000000 0.0000000000 -391.4637491936 0.0000000000 0.0000000000
0.3909157414 -0.3117449007 0.0000000000 0.0000000000 0.0000000000 -386.6018980718 0.0000000000 0.0000000000
0.4022988901 -0.2969100925 0.0000000000 0.0000000000 0.0000000000 -381.6534988786 0.0000000000 0.0000000000
0.4131193873 -0.2816600288 0.0000000000 0.0000000000 0.0000000000 -376.6927600656 0.0000000000 0.0000000000
0.4233620998 -0.2660160380 0.0000000000 0.0000000000 0.0000000000 -371.7356531332 0.0000000000 0.0000000000
0.4330127020 -0.2499999997 0.0000000000 0.0000000000 0.0000000000 -366.8620379650 0.0000000000 0.0000000000
0.4420576969 -0.2336343139 0.0000000000 0.0000000000 0.0000000000 -362.1490643942 0.0000000000 0.0000000000
0.4504844341 -0.2169418693 0.0000000000 0.0000000000 0.0000000000 -357.6946017761 0.0000000000 0.0000000000
0.4582811280 -0.1999460119 0.0000000000 0.0000000000 0.0000000000 -353.5959109839 0.0000000000 0.0000000000
0.4654368744 -0.1826705119 0.0000000000 0.0000000000 0.0000000000 -349.9488965307 0.0000000000 0.0000000000
0.4719416652 -0.1651395307 0.0000000000 0.0000000000 0.0000000000 -346.8378565123 0.0000000000 0.0000000000
0.4777864030 -0.1473775870 0.0000000000 0.0000000000 0.0000000000 -344.3307320628 0.0000000000 0.0000000000
0.4829629132 -0.1294095223 0.0000000000 0.0000000000 0.0000000000 -342.4734009247 0.0000000000 0.0000000000
0.4874639561 -0.1112604667 0.0000000000 0.0000000000 0.0000000000 -341.2865880322 0.0000000000 0.0000000000
0.4912832367 -0.0929558033 0.0000000000 0.0000000000 0.0000000000 -340.7640015482 0.0000000000 0.0000000000
0.4944154131 -0.0745211329 0.0000000000 0.0000000000 0.0000000000 -340.8725055702 0.0000000000 0.0000000000
0.4968561050 -0.0559822378 0.0000000000 0.0000000000 0.0000000000 -341.5538964817 0.0000000000 0.0000000000
0.4986018986 -0.0373650466 0.0000000000 0.0000000000 0.0000000000 -342.7282919830 0.0000000000 0.0000000000
0.4996503524 -0.0186955969 0.0000000000 0.0000000000 0.0000000000 -344.2987803184 0.0000000000 0.0000000000
0.5000000000 0.0000000002 0.0000000000 0.0000000000 0.0000000000 -346.1570258235 0.0000000000 0.0000000000
0.4996503524 0.0186955973 0.0000000000 0.0000000000 0.0000000000 -348.1894175584 0.0000000000 0.0000000000
0.4986018986 0.0373650470 0.0000000000 0.0000000000 0.0000000000 -350.2833197879 0.0000000000 0.0000000000
0.4968561049 0.0559822382 0.0000000000 0.0000000000 0.0000000000 -352.3330264036 0.0000000000 0.0000000000
0.4944154131 0.0745211333 0.0000000000 0.0000000000 0.0000000000 -354.2449620079 0.0000000000 0.0000000000
0.4912832366 0.0929558037 0.0000000000 0.0000000000 0.0000000000 -355.9419545572 0.0000000000 0.0000000000
0.4874639561 0.1112604671 0.0000000000 0.0000000000 0.0000000000 -357.3661504175 0.0000000000 0.0000000000
0.4829629131 0.1294095227 0.0000000000 0.0000000000 0.0000000000 -358.4809840724 0.0000000000 0.0000000000
0.4777864029 0.1473775873 0.0000000000 0.0000000000 0.0000000000 -359.2715023700 0.0000000000 0.0000000000
0.4719416651 0.1651395311 0.0000000000 0.0000000000 0.0000000000 -359.7447968826 0.0000000000 0.0000000000
0.4654368743 0.1826705123 0.0000000000 0.0000000000 0.0000000000 -359.9281793904 0.0000000000 0.0000000000
0.4582811279 0.1999460123 0.0000000000 0.0000000000 0.0000000000 -359.8703271390 0.0000000000 0.0000000000
0.4504844339 0.2169418697 0.0000000000 0.0000000000 0.0000000000 -359.6367960573 0.0000000000 0.0000000000
0.4420576967 0.2336343142 0.0000000000 0.0000000000 0.0000000000 -359.3156764738 0.0000000000 0.0000000000
0.4330127018 0.2500000001 0.0000000000 0.0000000000 0.0000000000 -359.0046858503 0.0000000000 0.0000000000
0.4233620996 0.2660160383 0.0000000000 0.0000000000 0.0000000000 -358.8298168634 0.0000000000 0.0000000000
0.4131193871 0.2816600291 0.0000000000 0.0000000000 0.0000000000 -358.9039706708 0.0000000000 0.0000000000
0.4022988898 0.2969100929 0.0000000000 0.0000000000 0.0000000000 -359.3880527805 0.0000000000 0.0000000000
0.3909157412 0.3117449010 0.0000000000 0.0000000000 0.0000000000 -360.3609813937 0.0000000000 0.0000000000
0.3789858615 0.3261437057 0.0000000000 0.0000000000 0.0000000000 -362.0330746523 0.0000000000 0.0000000000
0.3665259359 0.3400863689 0.0000000000 0.0000000000 0.0000000000 -364.3186330874 0.0000000000 0.0000000000
0.3386407858 0.3678619554 0.0000000000 0.0000000000 0.0000000000 -371.9494689033 0.0000000000 0.0000000000
0.3231496189 0.3815420341 0.0000000000 0.0000000000 0.0000000000 -377.5812131985 0.0000000000 0.0000000000
0.3071063563 0.3945702547 0.0000000000 0.0000000000 0.0000000000 -384.0668497893 0.0000000000 0.0000000000
0.2905384077 0.4069243587 0.0000000000 0.0000000000 0.0000000000 -391.6008169457 0.0000000000 0.0000000000
0.2734740790 0.4185832392 0.0000000000 0.0000000000 0.0000000000 -400.0143614729 0.0000000000 0.0000000000
0.2559425245 0.4295269772 0.0000000000 0.0000000000 0.0000000000 -409.3374689865 0.0000000000 0.0000000000
0.2379736965 0.4397368756 0.0000000000 0.0000000000 0.0000000000 -419.4963108258 0.0000000000 0.0000000000
0.2195982944 0.4491954910 0.0000000000 0.0000000000 0.0000000000 -430.4764963232 0.0000000000 0.0000000000
0.2008477123 0.4578866634 0.0000000000 0.0000000000 0.0000000000 -442.2191201113 0.0000000000 0.0000000000
0.1817539852 0.4657955441 0.0000000000 0.0000000000 0.0000000000 -454.6627655417 0.0000000000 0.0000000000
0.1623497345 0.4729086209 0.0000000000 0.0000000000 0.0000000000 -467.7040501110 0.0000000000 0.0000000000
0.1426681120 0.4792137413 0.0000000000 0.0000000000 0.0000000000 -481.2071426008 0.0000000000 0.0000000000
0.1227427435 0.4847001330 0.0000000000 0.0000000000 0.0000000000 -494.9904213260 0.0000000000 0.0000000000
0.1026076710 0.4893584227 0.0000000000 0.0000000000 0.0000000000 -508.8305596432 0.0000000000 0.0000000000
0.0822972951 0.4931806517 0.0000000000 0.0000000000 0.0000000000 -522.4610875519 0.0000000000 0.0000000000
0.0618463155 0.4961602899 0.0000000000 0.0000000000 0.0000000000 -535.5776451858 0.0000000000 0.0000000000
0.0412896726 0.4982922465 0.0000000000 0.0000000000 0.0000000000 -547.8427650591 0.0000000000 0.0000000000
0.0206624870 0.4995728792 0.0000000000 0.0000000000 0.0000000000 -558.8938183823 0.0000000000 0.0000000000
-0.0000000001 0.5000000000 0.0000000000 0.0000000000 0.0000000000 -568.3517826944 0.0000000000 0.0000000000
-0.0206624872 0.4995728792 0.0000000000 0.0000000000 0.0000000000 -575.8316070485 0.0000000000 0.0000000000
-0.0412896728 0.4982922465 0.0000000000 0.0000000000 0.0000000000 -580.9530895812 0.0000000000 0.0000000000
-0.0618463157 0.4961602899 0.0000000000 0.0000000000 0.0000000000 -583.3520646764 0.0000000000 0.0000000000
-0.0822972953 0.4931806517 0.0000000000 0.0000000000 0.0000000000 -582.6911832793 0.0000000000 0.0000000000
-0.1026076712 0.4893584226 0.0000000000 0.0000000000 0.0000000000 -578.6698834861 0.0000000000 0.0000000000
-0.1227427437 0.4847001329 0.0000000000 0.0000000000 0.0000000000 -571.0330923320 0.0000000000 0.0000000000
-0.1426681122 0.4792137412 0.0000000000 0.0000000000 0.0000000000 -559.5783840279 0.0000000000 0.0000000000
-0.1623497347 0.4729086208 0.0000000000 0.0000000000 0.0000000000 -544.1614025864 0.0000000000 0.0000000000
-0.1817539854 0.4657955440 0.0000000000 0.0000000000 0.0000000000 -524.6994938127 0.0000000000 0.0000000000
-0.2008477124 0.4578866633 0.0000000000 0.0000000000 0.0000000000 -501.1735851269 0.0000000000 0.0000000000
-0.2195982945 0.4491954909 0.0000000000 0.0000000000 0.0000000000 -473.6284382120 0.0000000000 0.0000000000
-0.2379736966 0.4397368755 0.0000000000 0.0000000000 0.0000000000 -442.1714522538 0.0000000000 0.0000000000
-0.2559425247 0.4295269771 0.0000000000 0.0000000000 0.0000000000 -406.9702244083 0.0000000000 0.0000000000
-0.2734740792 0.4185832391 0.0000000000 0.0000000000 0.0000000000 -368.2490753992 0.0000000000 0.0000000000
-0.2905384078 0.4069243586 0.0000000000 0.0000000000 0.0000000000 -326.2847301004 0.0000000000 0.0000000000
-0.3071063565 0.3945702546 0.0000000000 0.0000000000 0.0000000000 -281.4013135422 0.0000000000 0.0000000000
-0.3231496190 0.3815420340 0.0000000000 0.0000000000 0.0000000000 -233.9647949395 0.0000000000 0.0000000000
-0.3386407859 0.3678619552 0.0000000000 0.0000000000 0.0000000000 -184.3769976052 0.0000000000 0.0000000000
-0.3678619554 0.3386407857 0.0000000000 0.0000000000 0.0000000000 -80.4961517132 0.0000000000 0.0000000000
-0.3815420342 0.3231496188 0.0000000000 0.0000000000 0.0000000000 -27.1286236854 0.0000000000 0.0000000000
-0.3945702548 0.3071063562 0.0000000000 0.0000000000 0.0000000000 26.5519347897 0.0000000000 0.0000000000
-0.4069243587 0.2905384076 0.0000000000 0.0000000000 0.0000000000 80.0598975648 0.0000000000 0.0000000000
-0.4185832392 0.2734740789 0.0000000000 0.0000000000 0.0000000000 132.9109867379 0.0000000000 0.0000000000
-0.4295269773 0.2559425244 0.0000000000 0.0000000000 0.0000000000 184.6274700030 0.0000000000 0.0000000000
-0.4397368757 0.2379736964 0.0000000000 0.0000000000 0.0000000000 234.7429484968 0.0000000000 0.0000000000
-0.4491954910 0.2195982943 0.0000000000 0.0000000000 0.0000000000 282.8067767124 0.0000000000 0.0000000000
-0.4578866634 0.2008477122 0.0000000000 0.0000000000 0.0000000000 328.3881591413 0.0000000000 0.0000000000
-0.4657955441 0.1817539851 0.0000000000 0.0000000000 0.0000000000 371.0799559920 0.0000000000 0.0000000000
-0.4729086209 0.1623497344 0.0000000000 0.0000000000 0.0000000000 410.5022123965 0.0000000000 0.0000000000
-0.4792137413 0.1426681119 0.0000000000 0.0000000000 0.0000000000 446.3054095360 0.0000000000 0.0000000000
-0.4847001330 0.1227427434 0.0000000000 0.0000000000 0.0000000000 478.1734256635 0.0000000000 0.0000000000
-0.4893584227 0.1026076709 0.0000000000 0.0000000000 0.0000000000 505.8261903910 0.0000000000 0.0000000000
-0.4931806517 0.0822972949 0.0000000000 0.0000000000 0.0000000000 529.0220154020 0.0000000000 0.0000000000
-0.4961602899 0.0618463154 0.0000000000 0.0000000000 0.0000000000 547.5595870577 0.0000000000 0.0000000000
-0.4982922465 0.0412896725 0.0000000000 0.0000000000 0.0000000000 561.2796096565 0.0000000000 0.0000000000
-0.4995728792 0.0206624869 0.0000000000 0.0000000000 0.0000000000 570.0660913627 0.0000000000 0.0000000000
-0.5000000000 -0.0000000002 0.0000000000 0.0000000000 0.0000000000 573.8472675617 0.0000000000 0.0000000000
-0.4995728792 -0.0206624873 0.0000000000 0.0000000000 0.0000000000 572.5961584694 0.0000000000 0.0000000000
-0.4982922465 -0.0412896729 0.0000000000 0.0000000000 0.0000000000 566.3307592998 0.0000000000 0.0000000000
-0.4961602898 -0.0618463158 0.0000000000 0.0000000000 0.0000000000 555.1138623496 0.0000000000 0.0000000000
-0.4931806517 -0.0822972954 0.0000000000 0.0000000000 0.0000000000 539.0525111863 0.0000000000 0.0000000000
-0.4893584226 -0.1026076713 0.0000000000 0.0000000000 0.0000000000 518.2970878972 0.0000000000 0.0000000000
-0.4847001329 -0.1227427438 0.0000000000 0.0000000000 0.0000000000 493.0400351780 0.0000000000 0.0000000000
-0.4792137412 -0.1426681123 0.0000000000 0.0000000000 0.0000000000 463.5142159532 0.0000000000 0.0000000000
-0.4729086208 -0.1623497348 0.0000000000 0.0000000000 0.0000000000 429.9909141877 0.0000000000 0.0000000000
-0.4657955439 -0.1817539855 0.0000000000 0.0000000000 0.0000000000 392.7774815328 0.0000000000 0.0000000000
-0.4578866632 -0.2008477125 0.0000000000 0.0000000000 0.0000000000 352.2146353692 0.0000000000 0.0000000000
-0.4491954908 -0.2195982946 0.0000000000 0.0000000000 0.0000000000 308.6734146727 0.0000000000 0.0000000000
-0.4397368755 -0.2379736967 0.0000000000 0.0000000000 0.0000000000 262.5518009361 0.0000000000 0.0000000000
-0.4295269771 -0.2559425248 0.0000000000 0.0000000000 0.0000000000 214.2710122582 0.0000000000 0.0000000000
-0.4185832390 -0.2734740793 0.0000000000 0.0000000000 0.0000000000 164.2714797993 0.0000000000 0.0000000000
-0.4069243585 -0.2905384079 0.0000000000 0.0000000000 0.0000000000 113.0085173117 0.0000000000 0.0000000000
-0.3945702545 -0.3071063565 0.0000000000 0.0000000000 0.0000000000 60.9476966573 0.0000000000 0.0000000000
-0.3815420339 -0.3231496191 0.0000000000 0.0000000000 0.0000000000 8.5599453787 0.0000000000 0.0000000000
-0.3678619552 -0.3386407860 0.0000000000 0.0000000000 0.0000000000 -43.6836131317 0.0000000000 0.0000000000
-0.3386407856 -0.3678619555 0.0000000000 0.0000000000 0.0000000000 -145.8852186495 0.0000000000 0.0000000000
-0.3231496187 -0.3815420343 0.0000000000 0.0000000000 0.0000000000 -194.9494899344 0.0000000000 0.0000000000
-0.3071063561 -0.3945702549 0.0000000000 0.0000000000 0.0000000000 -242.0935845189 0.0000000000 0.0000000000
-0.2905384075 -0.4069243588 0.0000000000 0.0000000000 0.0000000000 -286.9294203315 0.0000000000 0.0000000000
-0.2734740788 -0.4185832393 0.0000000000 0.0000000000 0.0000000000 -329.1028874492 0.0000000000 0.0000000000
-0.2559425243 -0.4295269773 0.0000000000 0.0000000000 0.0000000000 -368.2994354863 0.0000000000 0.0000000000
-0.2379736963 -0.4397368757 0.0000000000 0.0000000000 0.0000000000 -404.2493382411 0.0000000000 0.0000000000
-0.2195982942 -0.4491954911 0.0000000000 0.0000000000 0.0000000000 -436.7324779038 0.0000000000 0.0000000000
-0.2008477121 -0.4578866634 0.0000000000 0.0000000000 0.0000000000 -465.5824709773 0.0000000000 0.0000000000
-0.1817539850 -0.4657955441 0.0000000000 0.0000000000 0.0000000000 -490.6899426657 0.0000000000 0.0000000000
-0.1623497343 -0.4729086209 0.0000000000 0.0000000000 0.0000000000 -512.0047492029 0.0000000000 0.0000000000
-0.1426681118 -0.4792137413 0.0000000000 0.0000000000 0.0000000000 -529.5369520161 0.0000000000 0.0000000000
-0.1227427433 -0.4847001330 0.0000000000 0.0000000000 0.0000000000 -543.3563674741 0.0000000000 0.0000000000
-0.1026076708 -0.4893584227 0.0000000000 0.0000000000 0.0000000000 -553.5905539994 0.0000000000 0.0000000000
-0.0822972948 -0.4931806518 0.0000000000 0.0000000000 0.0000000000 -560.4211565258 0.0000000000 0.0000000000
-0.0618463153 -0.4961602899 0.0000000000 0.0000000000 0.0000000000 -564.0786053164 0.0000000000 0.0000000000
-0.0412896724 -0.4982922465 0.0000000000 0.0000000000 0.0000000000 -564.8352602071 0.0000000000 0.0000000000
-0.0206624868 -0.4995728792 0.0000000000 0.0000000000 0.0000000000 -562.9971930673 0.0000000000 0.0000000000
0.0000000003 -0.5000000000 0.0000000000 0.0000000000 0.0000000000 -558.8949069750 0.0000000000 0.0000000000
0.0206624874 -0.4995728792 0.0000000000 0.0000000000 0.0000000000 -552.8733783960 0.0000000000 0.0000000000
0.0412896730 -0.4982922465 0.0000000000 0.0000000000 0.0000000000 -545.2818877638 0.0000000000 0.0000000000
0.0618463159 -0.4961602898 0.0000000000 0.0000000000 0.0000000000 -536.4641245841 0.0000000000 0.0000000000
0.0822972955 -0.4931806516 0.0000000000 0.0000000000 0.0000000000 -526.7490868643 0.0000000000 0.0000000000
0.1026076714 -0.4893584226 0.0000000000 0.0000000000 0.0000000000 -516.4431844936 0.0000000000 0.0000000000
0.1227427439 -0.4847001329 0.0000000000 0.0000000000 0.0000000000 -505.8240008476 0.0000000000 0.0000000000
0.1426681124 -0.4792137411 0.0000000000 0.0000000000 0.0000000000 -495.1357567992 0.0000000000 0.0000000000
0.1623497349 -0.4729086207 0.0000000000 0.0000000000 0.0000000000 -484.5868607654 0.0000000000 0.0000000000
0.1817539856 -0.4657955439 0.0000000000 0.0000000000 0.0000000000 -474.3485689961 0.0000000000 0.0000000000
0.2008477126 -0.4578866632 0.0000000000 0.0000000000 0.0000000000 -464.5557821504 0.0000000000 0.0000000000
0.2195982947 -0.4491954908 0.0000000000 0.0000000000 0.0000000000 -455.3061427059 0.0000000000 0.0000000000
0.2379736968 -0.4397368754 0.0000000000 0.0000000000 0.0000000000 -446.6634287400 0.0000000000 0.0000000000
0.2559425248 -0.4295269770 0.0000000000 0.0000000000 0.0000000000 -438.6511425279 0.0000000000 0.0000000000
0.2734740794 -0.4185832389 0.0000000000 0.0000000000 0.0000000000 -431.2658537803 0.0000000000 0.0000000000
0.2905384080 -0.4069243584 0.0000000000 0.0000000000 0.0000000000 -424.4500891972 0.0000000000 0.0000000000
0.3071063566 -0.3945702545 0.0000000000 0.0000000000 0.0000000000 -418.1534011298 0.0000000000 0.0000000000
0.3231496192 -0.3815420339 0.0000000000 0.0000000000 0.0000000000 -412.2226442978 0.0000000000 0.0000000000
0.3386407861 -0.3678619551 0.0000000000 0.0000000000 0.0000000000 -406.6268623740 0.0000000000 0.0000000000
0.5497889042 -0.5101295529 0.0000000000 0.1815198619 0.0207274288 -387.8037739003 0.0000000000 0.0000000000
0.5684787927 -0.4892155581 0.0000000000 0.1394298089 0.0222224425 -386.5083081049 0.0000000000 0.0000000000
0.5863736122 -0.4676173510 0.0000000000 0.1016829082 0.0248633290 -384.8960439197 0.0000000000 0.0000000000
0.6034483351 -0.4453651388 0.0000000000 0.0679245775 0.0289415778 -382.9205845946 0.0000000000 0.0000000000
0.6196790810 -0.4224900431 0.0000000000 0.0378464118 0.0346216896 -380.5716624946 0.0000000000 0.0000000000
0.6350431497 -0.3990240570 0.0000000000 0.0112054347 0.0419507866 -377.8781243453 0.0000000000 0.0000000000
0.6495190531 -0.3749999996 0.0000000000 -0.0121807371 0.0508779491 -374.9054853851 0.0000000000 0.0000000000
0.6630865453 -0.3504514708 0.0000000000 -0.0324529777 0.0612779632 -371.7493981287 0.0000000000 0.0000000000
0.6757266511 -0.3254128039 0.0000000000 -0.0497338943 0.0729750878 -368.5259006136 0.0000000000 0.0000000000
0.6874216921 -0.2999190178 0.0000000000 -0.0641475004 0.0857638961 -365.3600498747 0.0000000000 0.0000000000
0.6981553116 -0.2740057679 0.0000000000 -0.0758310152 0.0994254977 -362.3745558500 0.0000000000 0.0000000000
0.7079124979 -0.2477092961 0.0000000000 -0.0849378750 0.1137384637 -359.6797707132 0.0000000000 0.0000000000
0.7166796045 -0.2210663804 0.0000000000 -0.0916336785 0.1284846130 -357.3658973205 0.0000000000 0.0000000000
0.7244443698 -0.1941142835 0.0000000000 -0.0960883095 0.1434504998 -355.4977211400 0.0000000000 0.0000000000
0.7311959342 -0.1668907001 0.0000000000 -0.0984678005 0.1584259371 -354.1117119105 0.0000000000 0.0000000000
0.7369248550 -0.1394337050 0.0000000000 -0.0989288092 0.1732011029 -353.2150957401 0.0000000000 0.0000000000
0.7416231197 -0.1117816993 0.0000000000 -0.0976172830 0.1875636745 -352.7864779381 0.0000000000 0.0000000000
0.7452841575 -0.0839733567 0.0000000000 -0.0946714615 0.2012970508 -352.7777265457 0.0000000000 0.0000000000
0.7479028479 -0.0560475699 0.0000000000 -0.0902282168 0.2141801861 -353.1169936383 0.0000000000 0.0000000000
0.7494755286 -0.0280433954 0.0000000000 -0.0844310810 0.2259890358 -353.7128608425 0.0000000000 0.0000000000
0.7500000000 0.0000000003 0.0000000000 -0.0774381835 0.2364992338 -354.4596018750 0.0000000000 0.0000000000
0.7494755286 0.0280433960 0.0000000000 -0.0694285888 0.2454894698 -355.2434655667 0.0000000000 0.0000000000
0.7479028479 0.0560475705 0.0000000000 -0.0606059937 0.2527451157 -355.9497388387 0.0000000000 0.0000000000
0.7452841574 0.0839733573 0.0000000000 -0.0511992125 0.2580619090 -356.4702005336 0.0000000000 0.0000000000
0.7416231196 0.1117816999 0.0000000000 -0.0414592168 0.2612498490 -356.7104629275 0.0000000000 0.0000000000
0.7369248549 0.1394337056 0.0000000000 -0.0316526223 0.2621377940 -356.5966379783 0.0000000000 0.0000000000
0.7311959341 0.1668907007 0.0000000000 -0.0220514211 0.2605794621 -356.0807642528 0.0000000000 0.0000000000
0.7244443697 0.1941142840 0.0000000000 -0.0129184482 0.2564615573 -355.1444882134 0.0000000000 0.0000000000
0.7166796043 0.2210663810 0.0000000000 -0.0044875800 0.2497145360 -353.8006181085 0.0000000000 0.0000000000
0.7079124977 0.2477092967 0.0000000000 0.0030629479 0.2403261209 -352.0923806199 0.0000000000 0.0000000000
0.6981553114 0.2740057685 0.0000000000 0.0096461956 0.2283571384 -350.0905298408 0.0000000000 0.0000000000
0.6874216918 0.2999190184 0.0000000000 0.0153129480 0.2139586337 -347.8888622412 0.0000000000 0.0000000000
0.6757266509 0.3254128045 0.0000000000 0.0203084854 0.1973884135 -345.5990448433 0.0000000000 0.0000000000
0.6630865451 0.3504514714 0.0000000000 0.0251337403 0.1790239278 -343.3456843300 0.0000000000 0.0000000000
0.6495190528 0.3750000001 0.0000000000 0.0305959435 0.1593666194 -341.2619505548 0.0000000000 0.0000000000
0.6350431493 0.3990240575 0.0000000000 0.0378245554 0.1390311867 -339.4848653655 0.0000000000 0.0000000000
0.6196790807 0.4224900437 0.0000000000 0.0482254816 0.1187134337 -338.1483336602 0.0000000000 0.0000000000
0.6034483348 0.4453651393 0.0000000000 0.0633577415 0.0991347723 -337.3723799564 0.0000000000 0.0000000000
0.5863736118 0.4676173515 0.0000000000 0.0847429898 0.0809704456 -337.2494630266 0.0000000000 0.0000000000
0.5684787923 0.4892155585 0.0000000000 0.1136493053 0.0647786890 -337.8320658342 0.0000000000 0.0000000000
0.5497889038 0.5101295534 0.0000000000 0.1509073522 0.0509529797 -339.1224609842 0.0000000000 0.0000000000
0.5079611787 0.5517929331 0.0000000000 0.2573630620 0.0304074371 -344.0130827384 0.0000000000 0.0000000000
0.4847244283 0.5723130512 0.0000000000 0.3272308268 0.0244174514 -347.5372735104 0.0000000000 0.0000000000
0.4606595344 0.5918553821 0.0000000000 0.4048956227 0.0217165806 -351.5892896068 0.0000000000 0.0000000000
0.4358076115 0.6103865380 0.0000000000 0.4884902434 0.0223023695 -356.0785084937 0.0000000000 0.0000000000
0.4102111185 0.6278748587 0.0000000000 0.5759024857 0.0261938083 -360.9177196051 0.0000000000 0.0000000000
0.3839137867 0.6442904658 0.0000000000 0.6648719224 0.0333854521 -366.0110510837 0.0000000000 0.0000000000
0.3569605447 0.6596053135 0.0000000000 0.7530968523 0.0437955677 -371.2431852615 0.0000000000 0.0000000000
0.3293974415 0.6737932365 0.0000000000 0.8383650800 0.0572334526 -376.4731381053 0.0000000000 0.0000000000
0.3012715684 0.6868299950 0.0000000000 0.9186957519 0.0733962350 -381.5345940807 0.0000000000 0.0000000000
0.2726309778 0.6986933161 0.0000000000 0.9924648829 0.0918920328 -386.2423127970 0.0000000000 0.0000000000
0.2435246018 0.7093629313 0.0000000000 1.0584887747 0.1122786474 -390.4024354430 0.0000000000 0.0000000000
0.2140021681 0.7188206119 0.0000000000 1.1160521407 0.1341056059 -393.8236987888 0.0000000000 0.0000000000
0.1841141152 0.7270501995 0.0000000000 1.1648827113 0.1569500961 -396.3268665517 0.0000000000 0.0000000000
0.1539115065 0.7340376340 0.0000000000 1.2050850964 0.1804415552 -397.7507969361 0.0000000000 0.0000000000
0.1234459426 0.7397709776 0.0000000000 1.2370515405 0.2042735957 -397.9548637098 0.0000000000 0.0000000000
0.0927694733 0.7442404348 0.0000000000 1.2613667071 0.2282047424 -396.8184309682 0.0000000000 0.0000000000
0.0619345090 0.7474383698 0.0000000000 1.2787198025 0.2520509653 -394.2385486670 0.0000000000 0.0000000000
0.0309937305 0.7493593188 0.0000000000 1.2898322909 0.2756734111 -390.1270481013 0.0000000000 0.0000000000
-0.0000000002 0.7500000000 0.0000000000 1.2954046435 0.2989643952 -384.4079493478 0.0000000000 0.0000000000
-0.0309937308 0.7493593188 0.0000000000 1.2960818818 0.3218339695 -377.0157232515 0.0000000000 0.0000000000
-0.0619345093 0.7474383697 0.0000000000 1.2924353447 0.3441985290 -367.8946032209 0.0000000000 0.0000000000
-0.0927694736 0.7442404348 0.0000000000 1.2849570382 0.3659721571 -356.9988814788 0.0000000000 0.0000000000
-0.1234459429 0.7397709775 0.0000000000 1.2740627725 0.3870608289 -344.2939678292 0.0000000000 0.0000000000
-0.1539115068 0.7340376340 0.0000000000 1.2601007150 0.4073592228 -329.7579246862 0.0000000000 0.0000000000
-0.1841141155 0.7270501994 0.0000000000 1.2433626759 0.4267497004 -313.3831949778 0.0000000000 0.0000000000
-0.2140021684 0.7188206118 0.0000000000 1.2240961816 0.4451029495 -295.1782824742 0.0000000000 0.0000000000
-0.2435246021 0.7093629312 0.0000000000 1.2025160560 0.4622798116 -275.1692043549 0.0000000000 0.0000000000
-0.2726309781 0.6986933160 0.0000000000 1.1788147615 0.4781338791 -253.4005975550 0.0000000000 0.0000000000
-0.3012715687 0.6868299949 0.0000000000 1.1531711398 0.4925145278 -229.9364144819 0.0000000000 0.0000000000
-0.3293974418 0.6737932363 0.0000000000 1.1257574581 0.5052701322 -204.8601861949 0.0000000000 0.0000000000
-0.3569605450 0.6596053133 0.0000000000 1.0967448272 0.5162512767 -178.2748616959 0.0000000000 0.0000000000
-0.3839137870 0.6442904657 0.0000000000 1.0663071476 0.5253138381 -150.3022520504 0.0000000000 0.0000000000
-0.4102111188 0.6278748586 0.0000000000 1.0346237791 0.5323218518 -121.0821198374 0.0000000000 0.0000000000
-0.4358076117 0.6103865378 0.0000000000 1.0018811366 0.5371501118 -90.7709601301 0.0000000000 0.0000000000
-0.4606595347 0.5918553819 0.0000000000 0.9682734060 0.5396864735 -59.5405207532 0.0000000000 0.0000000000
-0.4847244286 0.5723130510 0.0000000000 0.9340025512 0.5398338473 -27.5761084212 0.0000000000 0.0000000000
-0.5079611789 0.5517929329 0.0000000000 0.8992777653 0.5375118787 4.9252753468 0.0000000000 0.0000000000
-0.5517929332 0.5079611785 0.0000000000 0.8293331135 0.5252301117 70.7045338117 0.0000000000 0.0000000000
-0.5723130513 0.4847244282 0.0000000000 0.7945574275 0.5152041523 103.5483096995 0.0000000000 0.0000000000
-0.5918553822 0.4606595343 0.0000000000 0.7602129233 0.5025778281 136.0651843985 0.0000000000 0.0000000000
-0.6103865381 0.4358076114 0.0000000000 0.7265249786 0.4873692584 168.0309788772 0.0000000000 0.0000000000
-0.6278748588 0.4102111184 0.0000000000 0.6937169858 0.4696173082 199.2225665491 0.0000000000 0.0000000000
-0.6442904659 0.3839137866 0.0000000000 0.6620084630 0.4493813717 229.4199899244 0.0000000000 0.0000000000
-0.6596053135 0.3569605446 0.0000000000 0.6316131791 0.4267409449 258.4085137368 0.0000000000 0.0000000000
-0.6737932365 0.3293974414 0.0000000000 0.6027373242 0.4017950036 285.9805968066 0.0000000000 0.0000000000
-0.6868299951 0.3012715682 0.0000000000 0.5755777479 0.3746612005 311.9377674287 0.0000000000 0.0000000000
-0.6986933161 0.2726309777 0.0000000000 0.5503202873 0.3454748981 336.0923895187 0.0000000000 0.0000000000
-0.7093629314 0.2435246016 0.0000000000 0.5271382006 0.3143880485 358.2693088511 0.0000000000 0.0000000000
-0.7188206119 0.2140021679 0.0000000000 0.5061907192 0.2815679344 378.3073701917 0.0000000000 0.0000000000
-0.7270501995 0.1841141151 0.0000000000 0.4876217284 0.2471957819 396.0607970706 0.0000000000 0.0000000000
-0.7340376341 0.1539115064 0.0000000000 0.4715585820 0.2114652602 411.4004262622 0.0000000000 0.0000000000
-0.7397709776 0.1234459424 0.0000000000 0.4581110542 0.1745808792 424.2147892947 0.0000000000 0.0000000000
-0.7442404348 0.0927694732 0.0000000000 0.4473704318 0.1367563032 434.4110336686 0.0000000000 0.0000000000
-0.7474383698 0.0619345088 0.0000000000 0.4394087480 0.0982125975 441.9156772090 0.0000000000 0.0000000000
-0.7493593188 0.0309937304 0.0000000000 0.4342781662 0.0591764288 446.6751917060 0.0000000000 0.0000000000
-0.7500000000 -0.0000000003 0.0000000000 0.4320105290 0.0198782401 448.6564160090 0.0000000000 0.0000000000
-0.7493593188 -0.0309937310 0.0000000000 0.4326170895 -0.0194495886 447.8468042868 0.0000000000 0.0000000000
-0.7474383697 -0.0619345094 0.0000000000 0.4360884405 -0.0585745865 444.2545138788 0.0000000000 0.0000000000
-0.7442404348 -0.0927694738 0.0000000000 0.4423946407 -0.0972660428 437.9083327368 0.0000000000 0.0000000000
-0.7397709775 -0.1234459430 0.0000000000 0.4514855285 -0.1352968588 428.8574415054 0.0000000000 0.0000000000
-0.7340376339 -0.1539115070 0.0000000000 0.4632911994 -0.1724453896 417.1710013266 0.0000000000 0.0000000000
-0.7270501994 -0.1841141157 0.0000000000 0.4777226295 -0.2084972568 402.9375625344 0.0000000000 0.0000000000
-0.7188206117 -0.2140021685 0.0000000000 0.4946724320 -0.2432471091 386.2642952743 0.0000000000 0.0000000000