 TITLE = "Tecplot data"
 VARIABLES = "X", "Y", "Z" "U", "V", "p", "dispX", "dispY"
 ZONE SOLUTIONTIME=162.900000, NODES=26114 , ELEMENTS=25916, DATAPACKING=POINT, ZONETYPE=FEQUADRILATERAL
0.4091213480 0.4091213481 0.0000000000 0.0000926500 0.0000926500 -544.5820747550 0.0555679575 0.0555679575
0.4091213483 -0.2979854329 0.0000000000 0.0000926500 0.0000926500 -360.0875172170 0.0555679575 0.0555679575
-0.2979854332 0.4091213480 0.0000000000 0.0000926500 0.0000926500 -175.8663924013 0.0555679575 0.0555679575
-0.2979854329 -0.2979854333 0.0000000000 0.0000926500 0.0000926500 -185.2494071700 0.0555679575 0.0555679575
0.5812634465 0.5813200556 0.0000000000 0.3443584487 -0.0426270057 -550.8633456132 0.0509333607 0.0509899697
0.5763999685 -0.4841679601 0.0000000000 0.2885787679 -0.0290524522 -333.8852500647 0.0460698822 0.0461621254
-0.4845607065 0.5762642530 0.0000000000 0.8554471054 0.4750919431 39.3881064451 0.0457693796 0.0459341673
-0.4797952966 -0.4793053440 0.0000000000 0.9040308747 -0.5065516937 42.9873913604 0.0505347890 0.0510247422
1.1010693721 1.1011445754 0.0000000000 1.0856985113 -0.0581724588 -137.8780356723 0.0404092004 0.0404844035
1.0932115180 -1.0277677621 0.0000000000 1.3012834196 0.1281883073 -235.7731991043 0.0325513454 0.0328924089
-1.0289050521 1.0928871554 0.0000000000 0.9440149542 0.1518066057 70.5143897670 0.0317551200 0.0322269840
-1.0214641972 -1.0202227997 0.0000000000 0.9712011582 -0.1659916280 82.8509113666 0.0391959740 0.0404373726
4.2208557271 3.3183075597 0.0000000000 1.0071097216 -0.0311254331 22.6034122481 0.0208557271 0.0183075597
4.2125259844 -3.2888873797 0.0000000000 1.0329326582 -0.0084794979 28.9884246925 0.0125259844 0.0111126203
20.0000000000 4.7000000000 0.0000000000 1.0453769108 0.0329264759 0.1613654082 0.0000000000 0.0000000000
20.0000000000 -4.7000000000 0.0000000000 1.0390519638 -0.0337575332 0.1323959268 0.0000000000 0.0000000000
-10.0000000000 15.0000000000 0.0000000000 1.0000000000 0.0000000000 31.1760455460 0.0000000000 0.0000000000
20.0000000000 15.0000000000 0.0000000000 1.0321355158 0.0000000000 0.0247375759 0.0000000000 0.0000000000
20.0000000000 -15.0000000000 0.0000000000 1.0315087299 0.0000000000 0.0229840465 0.0000000000 0.0000000000
-10.0000000000 -15.0000000000 0.0000000000 1.0000000000 0.0000000000 33.9466449840 0.0000000000 0.0000000000
0.4220938936 -0.2845184111 0.0000000000 0.0000926500 0.0000926500 -358.0744300657 0.0555679575 0.0555679575
0.4345538193 -0.2705757479 0.0000000000 0.0000926500 0.0000926500 -357.2261660962 0.0555679575 0.0555679575
0.4464836989 -0.2561769432 0.0000000000 0.0000926500 0.0000926500 -357.6551329809 0.0555679575 0.0555679575
0.4578668476 -0.2413421350 0.0000000000 0.0000926500 0.0000926500 -359.1708529539 0.0555679575 0.0555679575
0.4686873448 -0.2260920713 0.0000000000 0.0000926500 0.0000926500 -361.6316053192 0.0555679575 0.0555679575
0.4789300573 -0.2104480805 0.0000000000 0.0000926500 0.0000926500 -364.7995761438 0.0555679575 0.0555679575
0.4885806595 -0.1944320423 0.0000000000 0.0000926500 0.0000926500 -368.4862949259 0.0555679575 0.0555679575
0.4976256544 -0.1780663564 0.0000000000 0.0000926500 0.0000926500 -372.5246459244 0.0555679575 0.0555679575
0.5060523916 -0.1613739118 0.0000000000 0.0000926500 0.0000926500 -376.7956082148 0.0555679575 0.0555679575
0.5138490855 -0.1443780544 0.0000000000 0.0000926500 0.0000926500 -381.2040710422 0.0555679575 0.0555679575
0.5210048319 -0.1271025544 0.0000000000 0.0000926500 0.0000926500 -385.6671568590 0.0555679575 0.0555679575
0.5275096227 -0.1095715732 0.0000000000 0.0000926500 0.0000926500 -390.0976062684 0.0555679575 0.0555679575
0.5333543604 -0.0918096295 0.0000000000 0.0000926500 0.0000926500 -394.3987689312 0.0555679575 0.0555679575
0.5385308707 -0.0738415648 0.0000000000 0.0000926500 0.0000926500 -398.4664841942 0.0555679575 0.0555679575
0.5430319136 -0.0556925093 0.0000000000 0.0000926500 0.0000926500 -402.1991129716 0.0555679575 0.0555679575
0.5468511941 -0.0373878459 0.0000000000 0.0000926500 0.0000926500 -405.5117522994 0.0555679575 0.0555679575
0.5499833706 -0.0189531754 0.0000000000 0.0000926500 0.0000926500 -408.3522109235 0.0555679575 0.0555679575
0.5524240624 -0.0004142803 0.0000000000 0.0000926500 0.0000926500 -410.7154387218 0.0555679575 0.0555679575
0.5541698561 0.0182029109 0.0000000000 0.0000926500 0.0000926500 -412.6538211815 0.0555679575 0.0555679575
0.5552183099 0.0368723606 0.0000000000 0.0000926500 0.0000926500 -414.2810752752 0.0555679575 0.0555679575
0.5555679575 0.0555679577 0.0000000000 0.0000926500 0.0000926500 -415.7684462774 0.0555679575 0.0555679575
0.5552183099 0.0742635548 0.0000000000 0.0000926500 0.0000926500 -417.3329988891 0.0555679575 0.0555679575
0.5541698561 0.0929330045 0.0000000000 0.0000926500 0.0000926500 -419.2190005623 0.0555679575 0.0555679575
0.5524240624 0.1115501957 0.0000000000 0.0000926500 0.0000926500 -421.6745076982 0.0555679575 0.0555679575
0.5499833706 0.1300890907 0.0000000000 0.0000926500 0.0000926500 -424.9258763020 0.0555679575 0.0555679575
0.5468511941 0.1485237612 0.0000000000 0.0000926500 0.0000926500 -429.1534030290 0.0555679575 0.0555679575
0.5430319135 0.1668284246 0.0000000000 0.0000926500 0.0000926500 -434.4707497865 0.0555679575 0.0555679575
0.5385308706 0.1849774802 0.0000000000 0.0000926500 0.0000926500 -440.9109787505 0.0555679575 0.0555679575
0.5333543603 0.2029455448 0.0000000000 0.0000926500 0.0000926500 -448.4199872410 0.0555679575 0.0555679575
0.5275096226 0.2207074886 0.0000000000 0.0000926500 0.0000926500 -456.8595263199 0.0555679575 0.0555679575
0.5210048318 0.2382384698 0.0000000000 0.0000926500 0.0000926500 -466.0169451398 0.0555679575 0.0555679575
0.5138490854 0.2555139698 0.0000000000 0.0000926500 0.0000926500 -475.6252847361 0.0555679575 0.0555679575
0.5060523914 0.2725098271 0.0000000000 0.0000926500 0.0000926500 -485.3833309621 0.0555679575 0.0555679575
0.4976256542 0.2892022717 0.0000000000 0.0000926500 0.0000926500 -494.9882296492 0.0555679575 0.0555679575
0.4885806593 0.3055679576 0.0000000000 0.0000926500 0.0000926500 -504.1507413875 0.0555679575 0.0555679575
0.4789300570 0.3215839958 0.0000000000 0.0000926500 0.0000926500 -512.6384993058 0.0555679575 0.0555679575
0.4686873446 0.3372279866 0.0000000000 0.0000926500 0.0000926500 -520.2588521963 0.0555679575 0.0555679575
0.4578668473 0.3524780503 0.0000000000 0.0000926500 0.0000926500 -526.9333640487 0.0555679575 0.0555679575
0.4464836987 0.3673128585 0.0000000000 0.0000926500 0.0000926500 -532.5885312362 0.0555679575 0.0555679575
0.4345538190 0.3817116632 0.0000000000 0.0000926500 0.0000926500 -537.3580836080 0.0555679575 0.0555679575
0.4220938934 0.3956543264 0.0000000000 0.0000926500 0.0000926500 -541.1988621640 0.0555679575 0.0555679575
0.3942087433 0.4234299129 0.0000000000 0.0000926500 0.0000926500 -547.6041346196 0.0555679575 0.0555679575
0.3787175764 0.4371099916 0.0000000000 0.0000926500 0.0000926500 -550.5762799791 0.0555679575 0.0555679575
0.3626743138 0.4501382122 0.0000000000 0.0000926500 0.0000926500 -553.5903254568 0.0555679575 0.0555679575
0.3461063651 0.4624923161 0.0000000000 0.0000926500 0.0000926500 -557.0658640032 0.0555679575 0.0555679575
0.3290420365 0.4741511966 0.0000000000 0.0000926500 0.0000926500 -561.1742998122 0.0555679575 0.0555679575
0.3115104820 0.4850949347 0.0000000000 0.0000926500 0.0000926500 -566.1063461537 0.0555679575 0.0555679575
0.2935416539 0.4953048331 0.0000000000 0.0000926500 0.0000926500 -571.9267147179 0.0555679575 0.0555679575
0.2751662518 0.5047634485 0.0000000000 0.0000926500 0.0000926500 -578.6728497398 0.0555679575 0.0555679575
0.2564156697 0.5134546208 0.0000000000 0.0000926500 0.0000926500 -586.3289374915 0.0555679575 0.0555679575
0.2373219427 0.5213635015 0.0000000000 0.0000926500 0.0000926500 -594.8621040823 0.0555679575 0.0555679575
0.2179176920 0.5284765784 0.0000000000 0.0000926500 0.0000926500 -604.2079393990 0.0555679575 0.0555679575
0.1982360695 0.5347816987 0.0000000000 0.0000926500 0.0000926500 -614.2693354070 0.0555679575 0.0555679575
0.1783107010 0.5402680905 0.0000000000 0.0000926500 0.0000926500 -624.9004257567 0.0555679575 0.0555679575
0.1581756285 0.5449263802 0.0000000000 0.0000926500 0.0000926500 -635.8996310635 0.0555679575 0.0555679575
0.1378652525 0.5487486092 0.0000000000 0.0000926500 0.0000926500 -647.0036088835 0.0555679575 0.0555679575
0.1174142730 0.5517282474 0.0000000000 0.0000926500 0.0000926500 -657.8884696287 0.0555679575 0.0555679575
0.0968576301 0.5538602040 0.0000000000 0.0000926500 0.0000926500 -668.1747130614 0.0555679575 0.0555679575
0.0762304445 0.5551408367 0.0000000000 0.0000926500 0.0000926500 -677.4371500479 0.0555679575 0.0555679575
0.0555679574 0.5555679575 0.0000000000 0.0000926500 0.0000926500 -685.2181620103 0.0555679575 0.0555679575
0.0349054702 0.5551408367 0.0000000000 0.0000926500 0.0000926500 -691.0438696234 0.0555679575 0.0555679575
0.0142782846 0.5538602040 0.0000000000 0.0000926500 0.0000926500 -694.4417402759 0.0555679575 0.0555679575
-0.0062783583 0.5517282473 0.0000000000 0.0000926500 0.0000926500 -694.9584754495 0.0555679575 0.0555679575
-0.0267293378 0.5487486092 0.0000000000 0.0000926500 0.0000926500 -692.1768562529 0.0555679575 0.0555679575
-0.0470397137 0.5449263801 0.0000000000 0.0000926500 0.0000926500 -685.7305498545 0.0555679575 0.0555679575
-0.0671747862 0.5402680904 0.0000000000 0.0000926500 0.0000926500 -675.3161237765 0.0555679575 0.0555679575
-0.0871001548 0.5347816987 0.0000000000 0.0000926500 0.0000926500 -660.7018828472 0.0555679575 0.0555679575
-0.1067817772 0.5284765783 0.0000000000 0.0000926500 0.0000926500 -641.7334461660 0.0555679575 0.0555679575
-0.1261860279 0.5213635015 0.0000000000 0.0000926500 0.0000926500 -618.3362485943 0.0555679575 0.0555679575
-0.1452797550 0.5134546208 0.0000000000 0.0000926500 0.0000926500 -590.5153301444 0.0555679575 0.0555679575
-0.1640303371 0.5047634484 0.0000000000 0.0000926500 0.0000926500 -558.3528809600 0.0555679575 0.0555679575
-0.1824057392 0.4953048330 0.0000000000 0.0000926500 0.0000926500 -522.0040404311 0.0555679575 0.0555679575
-0.2003745672 0.4850949346 0.0000000000 0.0000926500 0.0000926500 -481.6914256171 0.0555679575 0.0555679575
-0.2179061217 0.4741511965 0.0000000000 0.0000926500 0.0000926500 -437.6988024162 0.0555679575 0.0555679575
-0.2349704503 0.4624923160 0.0000000000 0.0000926500 0.0000926500 -390.3642312451 0.0555679575 0.0555679575
-0.2515383990 0.4501382121 0.0000000000 0.0000926500 0.0000926500 -340.0729333768 0.0555679575 0.0555679575
-0.2675816616 0.4371099915 0.0000000000 0.0000926500 0.0000926500 -287.2500492721 0.0555679575 0.0555679575
-0.2830728284 0.4234299127 0.0000000000 0.0000926500 0.0000926500 -232.3534070831 0.0555679575 0.0555679575
-0.3122939980 0.3942087432 0.0000000000 0.0000926500 0.0000926500 -118.2910047399 0.0555679575 0.0555679575
-0.3259740767 0.3787175763 0.0000000000 0.0000926500 0.0000926500 -60.1411894559 0.0555679575 0.0555679575
-0.3390022973 0.3626743137 0.0000000000 0.0000926500 0.0000926500 -1.9365306945 0.0555679575 0.0555679575
-0.3513564013 0.3461063650 0.0000000000 0.0000926500 0.0000926500 55.8036281719 0.0555679575 0.0555679575
-0.3630152817 0.3290420364 0.0000000000 0.0000926500 0.0000926500 112.5656041188 0.0555679575 0.0555679575
-0.3739590198 0.3115104819 0.0000000000 0.0000926500 0.0000926500 167.8463399806 0.0555679575 0.0555679575
-0.3841689182 0.2935416538 0.0000000000 0.0000926500 0.0000926500 221.1579519503 0.0555679575 0.0555679575
-0.3936275335 0.2751662517 0.0000000000 0.0000926500 0.0000926500 272.0319090890 0.0555679575 0.0555679575
-0.4023187059 0.2564156696 0.0000000000 0.0000926500 0.0000926500 320.0228925067 0.0555679575 0.0555679575
-0.4102275866 0.2373219426 0.0000000000 0.0000926500 0.0000926500 364.7123687542 0.0555679575 0.0555679575
-0.4173406634 0.2179176919 0.0000000000 0.0000926500 0.0000926500 405.7118952255 0.0555679575 0.0555679575
-0.4236457838 0.1982360694 0.0000000000 0.0000926500 0.0000926500 442.6661605229 0.0555679575 0.0555679575
-0.4291321755 0.1783107009 0.0000000000 0.0000926500 0.0000926500 475.2557524570 0.0555679575 0.0555679575
-0.4337904652 0.1581756284 0.0000000000 0.0000926500 0.0000926500 503.1996409541 0.0555679575 0.0555679575
-0.4376126943 0.1378652524 0.0000000000 0.0000926500 0.0000926500 526.2573616676 0.0555679575 0.0555679575
-0.4405923324 0.1174142729 0.0000000000 0.0000926500 0.0000926500 544.2308872101 0.0555679575 0.0555679575
-0.4427242890 0.0968576300 0.0000000000 0.0000926500 0.0000926500 556.9661754921 0.0555679575 0.0555679575
-0.4440049217 0.0762304444 0.0000000000 0.0000926500 0.0000926500 564.3543878060 0.0555679575 0.0555679575
-0.4444320425 0.0555679573 0.0000000000 0.0000926500 0.0000926500 566.3327724444 0.0555679575 0.0555679575
-0.4440049217 0.0349054701 0.0000000000 0.0000926500 0.0000926500 562.8852123777 0.0555679575 0.0555679575
-0.4427242890 0.0142782845 0.0000000000 0.0000926500 0.0000926500 554.0424375785 0.0555679575 0.0555679575
-0.4405923324 -0.0062783584 0.0000000000 0.0000926500 0.0000926500 539.8819038613 0.0555679575 0.0555679575
-0.4376126942 -0.0267293379 0.0000000000 0.0000926500 0.0000926500 520.5273406486 0.0555679575 0.0555679575
-0.4337904651 -0.0470397138 0.0000000000 0.0000926500 0.0000926500 496.1479700172 0.0555679575 0.0555679575
-0.4291321754 -0.0671747863 0.0000000000 0.0000926500 0.0000926500 466.9573989661 0.0555679575 0.0555679575
-0.4236457837 -0.0871001549 0.0000000000 0.0000926500 0.0000926500 433.2121863297 0.0555679575 0.0555679575
-0.4173406633 -0.1067817773 0.0000000000 0.0000926500 0.0000926500 395.2100853219 0.0555679575 0.0555679575
-0.4102275865 -0.1261860280 0.0000000000 0.0000926500 0.0000926500 353.2879623959 0.0555679575 0.0555679575
-0.4023187058 -0.1452797551 0.0000000000 0.0000926500 0.0000926500 307.8193928670 0.0555679575 0.0555679575
-0.3936275334 -0.1640303372 0.0000000000 0.0000926500 0.0000926500 259.2119333779 0.0555679575 0.0555679575
-0.3841689180 -0.1824057392 0.0000000000 0.0000926500 0.0000926500 207.9040705596 0.0555679575 0.0555679575
-0.3739590196 -0.2003745673 0.0000000000 0.0000926500 0.0000926500 154.3618439325 0.0555679575 0.0555679575
-0.3630152815 -0.2179061218 0.0000000000 0.0000926500 0.0000926500 99.0751390833 0.0555679575 0.0555679575
-0.3513564010 -0.2349704504 0.0000000000 0.0000926500 0.0000926500 42.5536444211 0.0555679575 0.0555679575
-0.3390022971 -0.2515383991 0.0000000000 0.0000926500 0.0000926500 -14.6775384931 0.0555679575 0.0555679575
-0.3259740765 -0.2675816616 0.0000000000 0.0000926500 0.0000926500 -72.0826446634 0.0555679575 0.0555679575
-0.3122939977 -0.2830728285 0.0000000000 0.0000926500 0.0000926500 -129.1203724629 0.0555679575 0.0555679575
-0.2830728281 -0.3122939980 0.0000000000 0.0000926500 0.0000926500 -239.9343616921 0.0555679575 0.0555679575
-0.2675816613 -0.3259740768 0.0000000000 0.0000926500 0.0000926500 -292.6521527744 0.0555679575 0.0555679575
-0.2515383987 -0.3390022974 0.0000000000 0.0000926500 0.0000926500 -342.8988242534 0.0555679575 0.0555679575
-0.2349704500 -0.3513564013 0.0000000000 0.0000926500 0.0000926500 -390.1968156620 0.0555679575 0.0555679575
-0.2179061214 -0.3630152818 0.0000000000 0.0000926500 0.0000926500 -434.1026524641 0.0555679575 0.0555679575
-0.2003745668 -0.3739590198 0.0000000000 0.0000926500 0.0000926500 -474.2150009076 0.0555679575 0.0555679575
-0.1824057388 -0.3841689183 0.0000000000 0.0000926500 0.0000926500 -510.1829836630 0.0555679575 0.0555679575
-0.1640303367 -0.3936275336 0.0000000000 0.0000926500 0.0000926500 -541.7145903651 0.0555679575 0.0555679575
-0.1452797546 -0.4023187060 0.0000000000 0.0000926500 0.0000926500 -568.5849397098 0.0555679575 0.0555679575
-0.1261860275 -0.4102275867 0.0000000000 0.0000926500 0.0000926500 -590.6440591244 0.0555679575 0.0555679575
-0.1067817769 -0.4173406635 0.0000000000 0.0000926500 0.0000926500 -607.8237501878 0.0555679575 0.0555679575
-0.0871001544 -0.4236457838 0.0000000000 0.0000926500 0.0000926500 -620.1430136949 0.0555679575 0.0555679575
-0.0671747858 -0.4291321756 0.0000000000 0.0000926500 0.0000926500 -627.7114337988 0.0555679575 0.0555679575
-0.0470397133 -0.4337904652 0.0000000000 0.0000926500 0.0000926500 -630.7298874260 0.0555679575 0.0555679575
-0.0267293374 -0.4376126943 0.0000000000 0.0000926500 0.0000926500 -629.4879774746 0.0555679575 0.0555679575
-0.0062783579 -0.4405923324 0.0000000000 0.0000926500 0.0000926500 -624.3577092336 0.0555679575 0.0555679575
0.0142782850 -0.4427242891 0.0000000000 0.0000926500 0.0000926500 -615.7831538693 0.0555679575 0.0555679575
0.0349054707 -0.4440049217 0.0000000000 0.0000926500 0.0000926500 -604.2661699891 0.0555679575 0.0555679575
0.0555679578 -0.4444320425 0.0000000000 0.0000926500 0.0000926500 -590.3486598128 0.0555679575 0.0555679575
0.0762304449 -0.4440049217 0.0000000000 0.0000926500 0.0000926500 -574.5922712547 0.0555679575 0.0555679575
0.0968576305 -0.4427242890 0.0000000000 0.0000926500 0.0000926500 -557.5568476561 0.0555679575 0.0555679575
0.1174142734 -0.4405923324 0.0000000000 0.0000926500 0.0000926500 -539.7791966311 0.0555679575 0.0555679575
0.1378652529 -0.4376126942 0.0000000000 0.0000926500 0.0000926500 -521.7538245762 0.0555679575 0.0555679575
0.1581756289 -0.4337904651 0.0000000000 0.0000926500 0.0000926500 -503.9171480962 0.0555679575 0.0555679575
0.1783107014 -0.4291321754 0.0000000000 0.0000926500 0.0000926500 -486.6363276728 0.0555679575 0.0555679575
0.1982360699 -0.4236457837 0.0000000000 0.0000926500 0.0000926500 -470.2033488590 0.0555679575 0.0555679575
0.2179176924 -0.4173406633 0.0000000000 0.0000926500 0.0000926500 -454.8341380872 0.0555679575 0.0555679575
0.2373219431 -0.4102275864 0.0000000000 0.0000926500 0.0000926500 -440.6715653926 0.0555679575 0.0555679575
0.2564156701 -0.4023187057 0.0000000000 0.0000926500 0.0000926500 -427.7898932627 0.0555679575 0.0555679575
0.2751662522 -0.3936275333 0.0000000000 0.0000926500 0.0000926500 -416.1986585830 0.0555679575 0.0555679575
0.2935416543 -0.3841689180 0.0000000000 0.0000926500 0.0000926500 -405.8451499530 0.0555679575 0.0555679575
0.3115104823 -0.3739590195 0.0000000000 0.0000926500 0.0000926500 -396.6219257289 0.0555679575 0.0555679575
0.3290420368 -0.3630152815 0.0000000000 0.0000926500 0.0000926500 -388.3851801731 0.0555679575 0.0555679575
0.3461063655 -0.3513564010 0.0000000000 0.0000926500 0.0000926500 -380.9991543542 0.0555679575 0.0555679575
0.3626743141 -0.3390022970 0.0000000000 0.0000926500 0.0000926500 -374.3814401086 0.0555679575 0.0555679575
0.3787175767 -0.3259740764 0.0000000000 0.0000926500 0.0000926500 -368.5766827671 0.0555679575 0.0555679575
0.3942087436 -0.3122939976 0.0000000000 0.0000926500 0.0000926500 -363.6944749101 0.0555679575 0.0555679575
0.5960553594 -0.4641365731 0.0000000000 0.1957636706 -0.0384051786 -329.1055156202 0.0462664552 0.0459929799
0.6149536754 -0.4433772180 0.0000000000 0.1213596452 -0.0528896132 -325.1244048412 0.0464748827 0.0458383400
0.6330676523 -0.4219183005 0.0000000000 0.0693114586 -0.0741689567 -322.4076834851 0.0466940401 0.0456990505
0.6503710791 -0.3997892680 0.0000000000 0.0408428676 -0.1033380949 -321.3757101595 0.0469227439 0.0455758708
0.6668388398 -0.3770205713 0.0000000000 0.0331379401 -0.1401074701 -322.2431438996 0.0471597588 0.0454694718
0.6824469535 -0.3536436253 0.0000000000 0.0399464113 -0.1826411339 -324.9892633628 0.0474038038 0.0453804317
0.6971726126 -0.3296907664 0.0000000000 0.0539150676 -0.2281634390 -329.4526331733 0.0476535595 0.0453092332
0.7109942203 -0.3051952098 0.0000000000 0.0689138478 -0.2738093781 -335.4412961995 0.0479076750 0.0452562610
0.7238914261 -0.2801910040 0.0000000000 0.0809585890 -0.3171832042 -342.7532741192 0.0481647750 0.0452217999
0.7358451596 -0.2547129848 0.0000000000 0.0878954768 -0.3565516607 -351.1331029763 0.0484234675 0.0452060330
0.7468376629 -0.2287967269 0.0000000000 0.0887807891 -0.3908608495 -360.2476100382 0.0486823512 0.0452090410
0.7568525207 -0.2024784944 0.0000000000 0.0834629685 -0.4196781491 -369.7110599737 0.0489400228 0.0452308017
0.7658746892 -0.1757951903 0.0000000000 0.0723350090 -0.4430527283 -379.1355717908 0.0491950848 0.0452711901
0.7738905225 -0.1487843040 0.0000000000 0.0561346227 -0.4613095324 -388.1782042111 0.0494461527 0.0453299795
0.7808877971 -0.1214838583 0.0000000000 0.0357731399 -0.4748416670 -396.5726915126 0.0496918629 0.0454068418
0.7868557344 -0.0939323546 0.0000000000 0.0122189853 -0.4839648304 -404.1459095542 0.0499308794 0.0455013505
0.7917850214 -0.0661687176 0.0000000000 -0.0135575504 -0.4888578627 -410.8237898604 0.0501619017 0.0456129817
0.7956678286 -0.0382322389 0.0000000000 -0.0405969591 -0.4895748556 -416.6312503303 0.0503836712 0.0457411179
0.7984978261 -0.0101625190 0.0000000000 -0.0679473642 -0.4860972498 -421.6881447860 0.0505949782 0.0458850508
0.8002701971 0.0180005900 0.0000000000 -0.0946659697 -0.4783971380 -426.2005445910 0.0507946685 0.0460439854
0.8009816496 0.0462170441 0.0000000000 -0.1198343440 -0.4664941242 -430.4453871279 0.0509816496 0.0462170438
0.8006304252 0.0744466662 0.0000000000 -0.1425872667 -0.4504980332 -434.7470133608 0.0511548966 0.0464032702
0.7992163055 0.1026492067 0.0000000000 -0.1621486563 -0.4306350069 -439.4458965528 0.0513134577 0.0466016362
0.7967406168 0.1307844031 0.0000000000 -0.1778645506 -0.4072562029 -444.8621258539 0.0514564594 0.0468110457
0.7932062310 0.1588120412 0.0000000000 -0.1892220721 -0.3808292270 -451.2580910088 0.0515831114 0.0470303413
0.7886175658 0.1866920160 0.0000000000 -0.1958458766 -0.3519147362 -458.8055591681 0.0516927110 0.0472583104
0.7829805806 0.2143843920 0.0000000000 -0.1974709424 -0.3211344867 -467.5615203738 0.0517846466 0.0474936913
0.7763027712 0.2418494646 0.0000000000 -0.1939017688 -0.2891404563 -477.4550812088 0.0518584015 0.0477351805
0.7685931611 0.2690478206 0.0000000000 -0.1849784993 -0.2565945079 -488.2854503171 0.0519135568 0.0479814395
0.7598622912 0.2959403986 0.0000000000 -0.1705729380 -0.2241626799 -499.7301941785 0.0519497935 0.0482311020
0.7501222061 0.3224885495 0.0000000000 -0.1506264031 -0.1925194022 -511.3640804088 0.0519668947 0.0484827810
0.7393864386 0.3486540954 0.0000000000 -0.1252187770 -0.1623498535 -522.6906062064 0.0519647467 0.0487350770
0.7276699910 0.3743993894 0.0000000000 -0.0946352882 -0.1343385064 -533.1878277368 0.0519433401 0.0489865849
0.7149893147 0.3996873731 0.0000000000 -0.0593892604 -0.1091393932 -542.3655285231 0.0519027697 0.0492359018
0.7013622870 0.4244816351 0.0000000000 -0.0201716487 -0.0873335531 -549.8241179861 0.0518432343 0.0494816349
0.6868081853 0.4487464665 0.0000000000 0.0222770884 -0.0693838714 -555.3020472553 0.0517650359 0.0497224090
0.6713476591 0.4724469173 0.0000000000 0.0673557053 -0.0555933943 -558.7012717430 0.0516685784 0.0499568737
0.6550026999 0.4955488504 0.0000000000 0.1148212835 -0.0460637707 -560.0873920207 0.0515543652 0.0501837112
0.6377966088 0.5180189948 0.0000000000 0.1649933409 -0.0406448368 -559.6676185585 0.0514229970 0.0504016433
0.6197539610 0.5398249974 0.0000000000 0.2188689436 -0.0388741240 -557.7528171003 0.0512751687 0.0506094389
0.6009005697 0.5609354735 0.0000000000 0.2780445574 -0.0399282531 -554.7064676906 0.0511116659 0.0508059202
0.5586813601 0.6029706308 0.0000000000 0.4277699960 -0.0457986582 -546.2402612445 0.0507201814 0.0511776977
0.5352159106 0.6236606903 0.0000000000 0.5221517045 -0.0472823169 -541.3785230261 0.0504914823 0.0513476391
0.5109083014 0.6433539775 0.0000000000 0.6256638770 -0.0455497489 -536.5736235317 0.0502487669 0.0514985954
0.4858012466 0.6620160323 0.0000000000 0.7343657083 -0.0397112397 -531.9665717314 0.0499936351 0.0516294942
0.4599388911 0.6796142555 0.0000000000 0.8430546360 -0.0295828974 -527.5933338181 0.0497277726 0.0517393967
0.4333667267 0.6961179699 0.0000000000 0.9464201839 -0.0155440732 -523.4048313045 0.0494529400 0.0518275041
0.4061315056 0.7114984773 0.0000000000 1.0400147517 0.0016733306 -519.2956409966 0.0491709609 0.0518931639
0.3782811518 0.7257291110 0.0000000000 1.1208211201 0.0211891984 -515.1384850672 0.0488837103 0.0519358746
0.3498646699 0.7387852848 0.0000000000 1.1874096030 0.0421425932 -510.8122328571 0.0485931015 0.0519552897
0.3209320519 0.7506445367 0.0000000000 1.2397783333 0.0638105429 -506.2156533072 0.0483010741 0.0519512206
0.2915341818 0.7612865695 0.0000000000 1.2789997452 0.0856713419 -501.2676330487 0.0480095800 0.0519236382
0.2617227393 0.7706932858 0.0000000000 1.3067955409 0.1074143870 -495.8992083195 0.0477205712 0.0518726739
0.2315501010 0.7788488187 0.0000000000 1.3251402222 0.1289093664 -490.0428757425 0.0474359858 0.0517986192
0.2010692416 0.7857395583 0.0000000000 1.3359557253 0.1501535117 -483.6230169720 0.0471577351 0.0517019242
0.1703336332 0.7913541730 0.0000000000 1.3409193731 0.1712146269 -476.5496463519 0.0468876906 0.0515831954
0.1393971443 0.7956836267 0.0000000000 1.3413760506 0.1921821497 -468.7163485184 0.0466276710 0.0514431918
0.1083139384 0.7987211902 0.0000000000 1.3383284340 0.2131319708 -460.0021701094 0.0463794294 0.0512828205
0.0771383721 0.8004624495 0.0000000000 1.3324750265 0.2341055276 -450.2764717784 0.0461446415 0.0511031307
0.0459248936 0.8009053076 0.0000000000 1.3242700882 0.2551006612 -439.4054348668 0.0459248937 0.0509053076
0.0147279410 0.8000499830 0.0000000000 1.3139873686 0.2760706816 -427.2590024863 0.0457216719 0.0506906643
-0.0163981585 0.7978990028 0.0000000000 1.3017773260 0.2969283212 -413.7173537194 0.0455363507 0.0504606331
-0.0473992892 0.7944571912 0.0000000000 1.2877134858 0.3175520612 -398.6763870406 0.0453701844 0.0502167564
-0.0782216457 0.7897316539 0.0000000000 1.2718273571 0.3377932052 -382.0520071354 0.0452242972 0.0499606764
-0.1088118317 0.7837317576 0.0000000000 1.2541332577 0.3574827927 -363.7832215675 0.0450996751 0.0496941237
-0.1391169562 0.7764691052 0.0000000000 1.2346450858 0.3764379389 -343.8341651441 0.0449971593 0.0494189058
-0.1690847291 0.7679575069 0.0000000000 1.2133870731 0.3944674719 -322.1952088536 0.0449174393 0.0491368951
-0.1986635542 0.7582129468 0.0000000000 1.1904002348 0.4113768808 -298.8833080988 0.0448610479 0.0488500155
-0.2278026207 0.7472535455 0.0000000000 1.1657458375 0.4269726440 -273.9417253466 0.0448283574 0.0485602296
-0.2564519928 0.7350995195 0.0000000000 1.1395068429 0.4410660141 -247.4392393828 0.0448195759 0.0482695246
-0.2845626955 0.7217731354 0.0000000000 1.1117879927 0.4534763244 -219.4689335743 0.0448347463 0.0479798990
-0.3120868001 0.7072986617 0.0000000000 1.0827149878 0.4640338684 -190.1466405948 0.0448737448 0.0476933484
-0.3389775049 0.6917023168 0.0000000000 1.0524330664 0.4725823876 -159.6091103963 0.0449362821 0.0474118511
-0.3651892144 0.6750122133 0.0000000000 1.0211051843 0.4789811937 -128.0119604744 0.0450219044 0.0471373547
-0.3906776149 0.6572582998 0.0000000000 0.9889099377 0.4831069439 -95.5274614101 0.0451299968 0.0468717620
-0.4153997476 0.6384722991 0.0000000000 0.9560393242 0.4848550876 -62.3422053754 0.0452597871 0.0466169172
-0.4393140777 0.6186876445 0.0000000000 0.9226964129 0.4841409981 -28.6547002493 0.0454103509 0.0463745935
-0.4623805610 0.5979394122 0.0000000000 0.8890929740 0.4809008050 5.3270729570 0.0455806179 0.0461464794
-0.5058176361 0.5537003202 0.0000000000 0.8219808884 0.4666934339 73.3087872277 0.0459752971 0.0457391416
-0.5261161404 0.5302871966 0.0000000000 0.7889180928 0.4557059178 106.8672692390 0.0461969109 0.0455627684
-0.5454227312 0.5060658192 0.0000000000 0.7564819516 0.4421514547 139.8417742603 0.0464326510 0.0454062849
-0.5637056902 0.4810784022 0.0000000000 0.7248930201 0.4260731141 172.0128023631 0.0466808479 0.0452707909
-0.5809351144 0.4553683590 0.0000000000 0.6943671347 0.4075343758 203.1652347248 0.0469397445 0.0451572406
-0.5970829575 0.4289802223 0.0000000000 0.6651134852 0.3866183633 233.0903141456 0.0472075084 0.0450664357
-0.6121230683 0.4019595638 0.0000000000 0.6373328142 0.3634269293 261.5874918727 0.0474822453 0.0449990192
-0.6260312246 0.3743529127 0.0000000000 0.6112157551 0.3380796128 288.4661333553 0.0477620120 0.0449554713
-0.6387851645 0.3462076731 0.0000000000 0.5869413183 0.3107124820 313.5470795436 0.0480448306 0.0449361049
-0.6503646133 0.3175720418 0.0000000000 0.5646755246 0.2814768734 336.6640630746 0.0483287028 0.0449410641
-0.6607513077 0.2884949245 0.0000000000 0.5445701895 0.2505380430 357.6649794434 0.0486116237 0.0449703228
-0.6699290153 0.2590258526 0.0000000000 0.5267618574 0.2180737395 376.4130127512 0.0488915966 0.0450236847
-0.6778835522 0.2292148996 0.0000000000 0.5113708951 0.1842727177 392.7876157521 0.0491666473 0.0451007846
-0.6846027961 0.1991125977 0.0000000000 0.4985007545 0.1493331986 406.6853456427 0.0494348379 0.0452010913
-0.6900766964 0.1687698539 0.0000000000 0.4882374073 0.1134612785 418.0205582769 0.0496942812 0.0453239115
-0.6942972811 0.1382378673 0.0000000000 0.4806489242 0.0768692796 426.7259597454 0.0499431538 0.0454683941
-0.6972586607 0.1075680460 0.0000000000 0.4757851464 0.0397740517 432.7530055390 0.0501797091 0.0456335372
-0.6989570288 0.0768119253 0.0000000000 0.4736773990 0.0023952517 436.0721338297 0.0504022900 0.0458181949
-0.6993906592 0.0460210853 0.0000000000 0.4743382446 -0.0350463471 436.6728291619 0.0506093408 0.0460210856
-0.6985599012 0.0152470703 0.0000000000 0.4777613369 -0.0723304879 434.5635400853 0.0507994176 0.0462408013
-0.6964671707 -0.0154586915 0.0000000000 0.4839214181 -0.1092389956 429.7714723449 0.0509711990 0.0464758179
-0.6931169395 -0.0460449677 0.0000000000 0.4927744883 -0.1455572762 422.3422744560 0.0511234953 0.0467245061
-0.6885157209 -0.0764608000 0.0000000000 0.5042581954 -0.1810757666 412.3396350056 0.0512552566 0.0469851430
-0.6826720537 -0.1066555823 0.0000000000 0.5182924530 -0.2155913637 399.8447877626 0.0513655802 0.0472559247
-0.6755964827 -0.1365791366 0.0000000000 0.5347802487 -0.2489088532 384.9559081315 0.0514537167 0.0475349791
-0.6673015370 -0.1661817893 0.0000000000 0.5536085858 -0.2808423334 367.7873822790 0.0515190747 0.0478203792