 TITLE = "Tecplot data"
 VARIABLES = "X", "Y", "Z" "U", "V", "p", "dispX", "dispY"
 ZONE SOLUTIONTIME=170.900000, NODES=26114 , ELEMENTS=25916, DATAPACKING=POINT, ZONETYPE=FEQUADRILATERAL
0.4085775239 0.4085775239 0.0000000000 -0.0009651283 -0.0009651283 -298.7676620682 0.0550241333 0.0550241333
0.4085775241 -0.2985292570 0.0000000000 -0.0009651283 -0.0009651283 -615.2259334426 0.0550241333 0.0550241333
-0.2985292574 0.4085775238 0.0000000000 -0.0009651283 -0.0009651283 -137.5024601553 0.0550241333 0.0550241333
-0.2985292571 -0.2985292575 0.0000000000 -0.0009651283 -0.0009651283 -225.5098558465 0.0550241333 0.0550241333
0.5807649795 0.5808210346 0.0000000000 0.1397316906 0.0344853002 -271.3474619842 0.0504348937 0.0504909487
0.5759490987 -0.4846197327 0.0000000000 0.4879091939 0.0548657514 -611.9777210279 0.0456190124 0.0457103528
-0.4850086354 0.5758147113 0.0000000000 0.8672239495 0.4970061524 82.9439179584 0.0453214506 0.0454846256
-0.4802898629 -0.4798047053 0.0000000000 0.8926620832 -0.4860672305 -2.8730832433 0.0500402227 0.0505253808
1.1006739014 1.1007483686 0.0000000000 1.3310029589 -0.0671741638 -218.4081239336 0.0400137297 0.0400881968
1.0928929493 -1.0280896686 0.0000000000 1.0864305935 0.1232692925 -181.5176203599 0.0322327768 0.0325705024
-1.0292158283 1.0925717612 0.0000000000 0.9554109600 0.1657996442 102.7453061911 0.0314443438 0.0319115897
-1.0218477945 -1.0206185462 0.0000000000 0.9598181302 -0.1525683917 48.9601972984 0.0388123767 0.0400416262
4.2206516194 3.3181283900 0.0000000000 1.0221323656 0.0148099871 30.5534844689 0.0206516194 0.0181283900
4.2124033970 -3.2889961350 0.0000000000 1.0182909525 0.0326959237 18.8405594798 0.0124033970 0.0110038650
20.0000000000 4.7000000000 0.0000000000 1.0379199617 0.0328765201 0.0706347930 0.0000000000 0.0000000000
20.0000000000 -4.7000000000 0.0000000000 1.0457045959 -0.0336903282 0.2055131330 0.0000000000 0.0000000000
-10.0000000000 15.0000000000 0.0000000000 1.0000000000 0.0000000000 36.4833649485 0.0000000000 0.0000000000
20.0000000000 15.0000000000 0.0000000000 1.0316600385 0.0000000000 0.0235328184 0.0000000000 0.0000000000
20.0000000000 -15.0000000000 0.0000000000 1.0319821488 0.0000000000 0.0239523732 0.0000000000 0.0000000000
-10.0000000000 -15.0000000000 0.0000000000 1.0000000000 0.0000000000 26.7404106194 0.0000000000 0.0000000000
0.4215500694 -0.2850622353 0.0000000000 -0.0009651283 -0.0009651283 -613.0961477775 0.0550241333 0.0550241333
0.4340099951 -0.2711195721 0.0000000000 -0.0009651283 -0.0009651283 -611.2752855746 0.0550241333 0.0550241333
0.4459398747 -0.2567207674 0.0000000000 -0.0009651283 -0.0009651283 -608.9612669768 0.0550241333 0.0550241333
0.4573230234 -0.2418859592 0.0000000000 -0.0009651283 -0.0009651283 -606.1431249299 0.0550241333 0.0550241333
0.4681435206 -0.2266358955 0.0000000000 -0.0009651283 -0.0009651283 -602.4587815601 0.0550241333 0.0550241333
0.4783862331 -0.2109919047 0.0000000000 -0.0009651283 -0.0009651283 -597.7362117063 0.0550241333 0.0550241333
0.4880368353 -0.1949758664 0.0000000000 -0.0009651283 -0.0009651283 -591.7599694702 0.0550241333 0.0550241333
0.4970818302 -0.1786101806 0.0000000000 -0.0009651283 -0.0009651283 -584.3964711932 0.0550241333 0.0550241333
0.5055085674 -0.1619177360 0.0000000000 -0.0009651283 -0.0009651283 -575.5559512185 0.0550241333 0.0550241333
0.5133052613 -0.1449218786 0.0000000000 -0.0009651283 -0.0009651283 -565.2285128946 0.0550241333 0.0550241333
0.5204610077 -0.1276463786 0.0000000000 -0.0009651283 -0.0009651283 -553.4811589868 0.0550241333 0.0550241333
0.5269657985 -0.1101153974 0.0000000000 -0.0009651283 -0.0009651283 -540.4646718254 0.0550241333 0.0550241333
0.5328105363 -0.0923534537 0.0000000000 -0.0009651283 -0.0009651283 -526.4051672609 0.0550241333 0.0550241333
0.5379870465 -0.0743853890 0.0000000000 -0.0009651283 -0.0009651283 -511.5911414575 0.0550241333 0.0550241333
0.5424880894 -0.0562363334 0.0000000000 -0.0009651283 -0.0009651283 -496.3517587585 0.0550241333 0.0550241333
0.5463073700 -0.0379316701 0.0000000000 -0.0009651283 -0.0009651283 -481.0310166700 0.0550241333 0.0550241333
0.5494395464 -0.0194969996 0.0000000000 -0.0009651283 -0.0009651283 -465.9596599079 0.0550241333 0.0550241333
0.5518802383 -0.0009581045 0.0000000000 -0.0009651283 -0.0009651283 -451.4289116573 0.0550241333 0.0550241333
0.5536260319 0.0176590867 0.0000000000 -0.0009651283 -0.0009651283 -437.6691171306 0.0550241333 0.0550241333
0.5546744857 0.0363285364 0.0000000000 -0.0009651283 -0.0009651283 -424.8361169516 0.0550241333 0.0550241333
0.5550241333 0.0550241335 0.0000000000 -0.0009651283 -0.0009651283 -413.0068095149 0.0550241333 0.0550241333
0.5546744857 0.0737197306 0.0000000000 -0.0009651283 -0.0009651283 -402.1840268057 0.0550241333 0.0550241333
0.5536260319 0.0923891803 0.0000000000 -0.0009651283 -0.0009651283 -392.3093701799 0.0550241333 0.0550241333
0.5518802382 0.1110063715 0.0000000000 -0.0009651283 -0.0009651283 -383.2814635989 0.0550241333 0.0550241333
0.5494395464 0.1295452666 0.0000000000 -0.0009651283 -0.0009651283 -374.9764230981 0.0550241333 0.0550241333
0.5463073699 0.1479799370 0.0000000000 -0.0009651283 -0.0009651283 -367.2671579209 0.0550241333 0.0550241333
0.5424880893 0.1662846004 0.0000000000 -0.0009651283 -0.0009651283 -360.0388334115 0.0550241333 0.0550241333
0.5379870464 0.1844336560 0.0000000000 -0.0009651283 -0.0009651283 -353.1984971837 0.0550241333 0.0550241333
0.5328105361 0.2024017206 0.0000000000 -0.0009651283 -0.0009651283 -346.6788174733 0.0550241333 0.0550241333
0.5269657984 0.2201636644 0.0000000000 -0.0009651283 -0.0009651283 -340.4361080134 0.0550241333 0.0550241333
0.5204610076 0.2376946456 0.0000000000 -0.0009651283 -0.0009651283 -334.4461788116 0.0550241333 0.0550241333
0.5133052612 0.2549701456 0.0000000000 -0.0009651283 -0.0009651283 -328.6986726604 0.0550241333 0.0550241333
0.5055085672 0.2719660030 0.0000000000 -0.0009651283 -0.0009651283 -323.1975516525 0.0550241333 0.0550241333
0.4970818300 0.2886584475 0.0000000000 -0.0009651283 -0.0009651283 -317.9622976677 0.0550241333 0.0550241333
0.4880368351 0.3050241334 0.0000000000 -0.0009651283 -0.0009651283 -313.0436171426 0.0550241333 0.0550241333
0.4783862329 0.3210401716 0.0000000000 -0.0009651283 -0.0009651283 -308.5257741868 0.0550241333 0.0550241333
0.4681435204 0.3366841624 0.0000000000 -0.0009651283 -0.0009651283 -304.5512963331 0.0550241333 0.0550241333
0.4573230231 0.3519342261 0.0000000000 -0.0009651283 -0.0009651283 -301.2863086842 0.0550241333 0.0550241333
0.4459398745 0.3667690343 0.0000000000 -0.0009651283 -0.0009651283 -298.9456890060 0.0550241333 0.0550241333
0.4340099948 0.3811678390 0.0000000000 -0.0009651283 -0.0009651283 -297.6765041201 0.0550241333 0.0550241333
0.4215500692 0.3951105022 0.0000000000 -0.0009651283 -0.0009651283 -297.6216902366 0.0550241333 0.0550241333
0.3936649191 0.4228860887 0.0000000000 -0.0009651283 -0.0009651283 -301.3246633710 0.0550241333 0.0550241333
0.3781737522 0.4365661674 0.0000000000 -0.0009651283 -0.0009651283 -305.1226883948 0.0550241333 0.0550241333
0.3621304896 0.4495943880 0.0000000000 -0.0009651283 -0.0009651283 -309.8087674106 0.0550241333 0.0550241333
0.3455625409 0.4619484920 0.0000000000 -0.0009651283 -0.0009651283 -315.2573029458 0.0550241333 0.0550241333
0.3284982123 0.4736073725 0.0000000000 -0.0009651283 -0.0009651283 -321.3856529364 0.0550241333 0.0550241333
0.3109666578 0.4845511105 0.0000000000 -0.0009651283 -0.0009651283 -328.2596036877 0.0550241333 0.0550241333
0.2929978298 0.4947610089 0.0000000000 -0.0009651283 -0.0009651283 -336.0084346574 0.0550241333 0.0550241333
0.2746224277 0.5042196243 0.0000000000 -0.0009651283 -0.0009651283 -344.7929776002 0.0550241333 0.0550241333
0.2558718456 0.5129107967 0.0000000000 -0.0009651283 -0.0009651283 -354.7460018051 0.0550241333 0.0550241333
0.2367781185 0.5208196773 0.0000000000 -0.0009651283 -0.0009651283 -365.9510187171 0.0550241333 0.0550241333
0.2173738678 0.5279327542 0.0000000000 -0.0009651283 -0.0009651283 -378.4297250045 0.0550241333 0.0550241333
0.1976922453 0.5342378745 0.0000000000 -0.0009651283 -0.0009651283 -392.1425186135 0.0550241333 0.0550241333
0.1777668768 0.5397242663 0.0000000000 -0.0009651283 -0.0009651283 -406.9854782433 0.0550241333 0.0550241333
0.1576318043 0.5443825560 0.0000000000 -0.0009651283 -0.0009651283 -422.7862389797 0.0550241333 0.0550241333
0.1373214283 0.5482047850 0.0000000000 -0.0009651283 -0.0009651283 -439.2987714794 0.0550241333 0.0550241333
0.1168704488 0.5511844232 0.0000000000 -0.0009651283 -0.0009651283 -456.2015843761 0.0550241333 0.0550241333
0.0963138059 0.5533163798 0.0000000000 -0.0009651283 -0.0009651283 -473.1005732031 0.0550241333 0.0550241333
0.0756866203 0.5545970125 0.0000000000 -0.0009651283 -0.0009651283 -489.5375135522 0.0550241333 0.0550241333
0.0550241332 0.5550241333 0.0000000000 -0.0009651283 -0.0009651283 -505.0036359289 0.0550241333 0.0550241333
0.0343616461 0.5545970125 0.0000000000 -0.0009651283 -0.0009651283 -518.9574294519 0.0550241333 0.0550241333
0.0137344605 0.5533163798 0.0000000000 -0.0009651283 -0.0009651283 -530.8452114047 0.0550241333 0.0550241333
-0.0068221824 0.5511844231 0.0000000000 -0.0009651283 -0.0009651283 -540.1228472854 0.0550241333 0.0550241333
-0.0272731620 0.5482047850 0.0000000000 -0.0009651283 -0.0009651283 -546.2769322119 0.0550241333 0.0550241333
-0.0475835379 0.5443825559 0.0000000000 -0.0009651283 -0.0009651283 -548.8439618793 0.0550241333 0.0550241333
-0.0677186104 0.5397242662 0.0000000000 -0.0009651283 -0.0009651283 -547.4263632691 0.0550241333 0.0550241333
-0.0876439789 0.5342378745 0.0000000000 -0.0009651283 -0.0009651283 -541.7046993139 0.0550241333 0.0550241333
-0.1073256014 0.5279327541 0.0000000000 -0.0009651283 -0.0009651283 -531.4457979789 0.0550241333 0.0550241333
-0.1267298521 0.5208196773 0.0000000000 -0.0009651283 -0.0009651283 -516.5069361183 0.0550241333 0.0550241333
-0.1458235792 0.5129107966 0.0000000000 -0.0009651283 -0.0009651283 -496.8364876193 0.0550241333 0.0550241333
-0.1645741612 0.5042196242 0.0000000000 -0.0009651283 -0.0009651283 -472.4716155839 0.0550241333 0.0550241333
-0.1829495633 0.4947610088 0.0000000000 -0.0009651283 -0.0009651283 -443.5336559878 0.0550241333 0.0550241333
-0.2009183914 0.4845511104 0.0000000000 -0.0009651283 -0.0009651283 -410.2218261849 0.0550241333 0.0550241333
-0.2184499459 0.4736073723 0.0000000000 -0.0009651283 -0.0009651283 -372.8058202013 0.0550241333 0.0550241333
-0.2355142745 0.4619484918 0.0000000000 -0.0009651283 -0.0009651283 -331.6177493244 0.0550241333 0.0550241333
-0.2520822232 0.4495943879 0.0000000000 -0.0009651283 -0.0009651283 -287.0437737926 0.0550241333 0.0550241333
-0.2681254857 0.4365661673 0.0000000000 -0.0009651283 -0.0009651283 -239.5156689389 0.0550241333 0.0550241333
-0.2836166526 0.4228860885 0.0000000000 -0.0009651283 -0.0009651283 -189.5024910010 0.0550241333 0.0550241333
-0.3128378221 0.3936649190 0.0000000000 -0.0009651283 -0.0009651283 -84.0351572794 0.0550241333 0.0550241333
-0.3265179009 0.3781737521 0.0000000000 -0.0009651283 -0.0009651283 -29.6341235861 0.0550241333 0.0550241333
-0.3395461215 0.3621304895 0.0000000000 -0.0009651283 -0.0009651283 25.1600573803 0.0550241333 0.0550241333
-0.3519002254 0.3455625409 0.0000000000 -0.0009651283 -0.0009651283 79.8061385830 0.0550241333 0.0550241333
-0.3635591059 0.3284982122 0.0000000000 -0.0009651283 -0.0009651283 133.7680281020 0.0550241333 0.0550241333
-0.3745028440 0.3109666577 0.0000000000 -0.0009651283 -0.0009651283 186.5200655488 0.0550241333 0.0550241333
-0.3847127424 0.2929978297 0.0000000000 -0.0009651283 -0.0009651283 237.5518045456 0.0550241333 0.0550241333
-0.3941713577 0.2746224276 0.0000000000 -0.0009651283 -0.0009651283 286.3723630912 0.0550241333 0.0550241333
-0.4028625301 0.2558718455 0.0000000000 -0.0009651283 -0.0009651283 332.5144004687 0.0550241333 0.0550241333
-0.4107714108 0.2367781184 0.0000000000 -0.0009651283 -0.0009651283 375.5377650812 0.0550241333 0.0550241333
-0.4178844876 0.2173738677 0.0000000000 -0.0009651283 -0.0009651283 415.0328395353 0.0550241333 0.0550241333
-0.4241896080 0.1976922452 0.0000000000 -0.0009651283 -0.0009651283 450.6235931261 0.0550241333 0.0550241333
-0.4296759997 0.1777668767 0.0000000000 -0.0009651283 -0.0009651283 481.9703404441 0.0550241333 0.0550241333
-0.4343342894 0.1576318042 0.0000000000 -0.0009651283 -0.0009651283 508.7721985185 0.0550241333 0.0550241333
-0.4381565184 0.1373214282 0.0000000000 -0.0009651283 -0.0009651283 530.7692327813 0.0550241333 0.0550241333
-0.4411361566 0.1168704487 0.0000000000 -0.0009651283 -0.0009651283 547.7442827637 0.0550241333 0.0550241333
-0.4432681132 0.0963138058 0.0000000000 -0.0009651283 -0.0009651283 559.5244605390 0.0550241333 0.0550241333
-0.4445487459 0.0756866202 0.0000000000 -0.0009651283 -0.0009651283 565.9823175102 0.0550241333 0.0550241333
-0.4449758667 0.0550241331 0.0000000000 -0.0009651283 -0.0009651283 567.0366775346 0.0550241333 0.0550241333
-0.4445487459 0.0343616460 0.0000000000 -0.0009651283 -0.0009651283 562.6531361955 0.0550241333 0.0550241333
-0.4432681132 0.0137344603 0.0000000000 -0.0009651283 -0.0009651283 552.8442271231 0.0550241333 0.0550241333
-0.4411361565 -0.0068221826 0.0000000000 -0.0009651283 -0.0009651283 537.6692566971 0.0550241333 0.0550241333
-0.4381565184 -0.0272731621 0.0000000000 -0.0009651283 -0.0009651283 517.2338084620 0.0550241333 0.0550241333
-0.4343342893 -0.0475835380 0.0000000000 -0.0009651283 -0.0009651283 491.6889184143 0.0550241333 0.0550241333
-0.4296759996 -0.0677186105 0.0000000000 -0.0009651283 -0.0009651283 461.2299223039 0.0550241333 0.0550241333
-0.4241896079 -0.0876439790 0.0000000000 -0.0009651283 -0.0009651283 426.0949764085 0.0550241333 0.0550241333
-0.4178844875 -0.1073256015 0.0000000000 -0.0009651283 -0.0009651283 386.5632539478 0.0550241333 0.0550241333
-0.4107714106 -0.1267298522 0.0000000000 -0.0009651283 -0.0009651283 342.9528202681 0.0550241333 0.0550241333
-0.4028625299 -0.1458235792 0.0000000000 -0.0009651283 -0.0009651283 295.6181909280 0.0550241333 0.0550241333
-0.3941713575 -0.1645741613 0.0000000000 -0.0009651283 -0.0009651283 244.9475775489 0.0550241333 0.0550241333
-0.3847127422 -0.1829495634 0.0000000000 -0.0009651283 -0.0009651283 191.3598265300 0.0550241333 0.0550241333
-0.3745028438 -0.2009183915 0.0000000000 -0.0009651283 -0.0009651283 135.3010552910 0.0550241333 0.0550241333
-0.3635591057 -0.2184499460 0.0000000000 -0.0009651283 -0.0009651283 77.2409895678 0.0550241333 0.0550241333
-0.3519002252 -0.2355142746 0.0000000000 -0.0009651283 -0.0009651283 17.6690034983 0.0550241333 0.0550241333
-0.3395461213 -0.2520822232 0.0000000000 -0.0009651283 -0.0009651283 -42.9101379987 0.0550241333 0.0550241333
-0.3265179006 -0.2681254858 0.0000000000 -0.0009651283 -0.0009651283 -103.9808375024 0.0550241333 0.0550241333
-0.3128378219 -0.2836166527 0.0000000000 -0.0009651283 -0.0009651283 -165.0215292274 0.0550241333 0.0550241333
-0.2836166523 -0.3128378222 0.0000000000 -0.0009651283 -0.0009651283 -284.9281651232 0.0550241333 0.0550241333
-0.2681254854 -0.3265179010 0.0000000000 -0.0009651283 -0.0009651283 -342.7693316652 0.0550241333 0.0550241333
-0.2520822228 -0.3395461216 0.0000000000 -0.0009651283 -0.0009651283 -398.5429040761 0.0550241333 0.0550241333
-0.2355142742 -0.3519002255 0.0000000000 -0.0009651283 -0.0009651283 -451.7815682182 0.0550241333 0.0550241333
-0.2184499455 -0.3635591060 0.0000000000 -0.0009651283 -0.0009651283 -502.0479016351 0.0550241333 0.0550241333
-0.2009183910 -0.3745028440 0.0000000000 -0.0009651283 -0.0009651283 -548.9413707128 0.0550241333 0.0550241333
-0.1829495630 -0.3847127424 0.0000000000 -0.0009651283 -0.0009651283 -592.1054892462 0.0550241333 0.0550241333
-0.1645741609 -0.3941713578 0.0000000000 -0.0009651283 -0.0009651283 -631.2350134480 0.0550241333 0.0550241333
-0.1458235788 -0.4028625301 0.0000000000 -0.0009651283 -0.0009651283 -666.0829937220 0.0550241333 0.0550241333
-0.1267298517 -0.4107714108 0.0000000000 -0.0009651283 -0.0009651283 -696.4674389108 0.0550241333 0.0550241333
-0.1073256010 -0.4178844876 0.0000000000 -0.0009651283 -0.0009651283 -722.2772777243 0.0550241333 0.0550241333
-0.0876439786 -0.4241896080 0.0000000000 -0.0009651283 -0.0009651283 -743.4772314222 0.0550241333 0.0550241333
-0.0677186100 -0.4296759997 0.0000000000 -0.0009651283 -0.0009651283 -760.1111518586 0.0550241333 0.0550241333
-0.0475835375 -0.4343342894 0.0000000000 -0.0009651283 -0.0009651283 -772.3033441188 0.0550241333 0.0550241333
-0.0272731616 -0.4381565185 0.0000000000 -0.0009651283 -0.0009651283 -780.2573995486 0.0550241333 0.0550241333
-0.0068221820 -0.4411361566 0.0000000000 -0.0009651283 -0.0009651283 -784.2521312331 0.0550241333 0.0550241333
0.0137344609 -0.4432681132 0.0000000000 -0.0009651283 -0.0009651283 -784.6343413336 0.0550241333 0.0550241333
0.0343616465 -0.4445487459 0.0000000000 -0.0009651283 -0.0009651283 -781.8083669657 0.0550241333 0.0550241333
0.0550241336 -0.4449758667 0.0000000000 -0.0009651283 -0.0009651283 -776.2226306186 0.0550241333 0.0550241333
0.0756866207 -0.4445487459 0.0000000000 -0.0009651283 -0.0009651283 -768.3537518541 0.0550241333 0.0550241333
0.0963138063 -0.4432681132 0.0000000000 -0.0009651283 -0.0009651283 -758.6890807886 0.0550241333 0.0550241333
0.1168704492 -0.4411361565 0.0000000000 -0.0009651283 -0.0009651283 -747.7088014057 0.0550241333 0.0550241333
0.1373214287 -0.4381565184 0.0000000000 -0.0009651283 -0.0009651283 -735.8688285854 0.0550241333 0.0550241333
0.1576318047 -0.4343342893 0.0000000000 -0.0009651283 -0.0009651283 -723.5858191772 0.0550241333 0.0550241333
0.1777668772 -0.4296759996 0.0000000000 -0.0009651283 -0.0009651283 -711.2251557061 0.0550241333 0.0550241333
0.1976922457 -0.4241896078 0.0000000000 -0.0009651283 -0.0009651283 -699.0929585715 0.0550241333 0.0550241333
0.2173738682 -0.4178844874 0.0000000000 -0.0009651283 -0.0009651283 -687.4318040739 0.0550241333 0.0550241333
0.2367781189 -0.4107714106 0.0000000000 -0.0009651283 -0.0009651283 -676.4220131474 0.0550241333 0.0550241333
0.2558718459 -0.4028625299 0.0000000000 -0.0009651283 -0.0009651283 -666.1858795527 0.0550241333 0.0550241333
0.2746224280 -0.3941713575 0.0000000000 -0.0009651283 -0.0009651283 -656.8019758718 0.0550241333 0.0550241333
0.2929978301 -0.3847127421 0.0000000000 -0.0009651283 -0.0009651283 -648.3146116620 0.0550241333 0.0550241333
0.3109666581 -0.3745028437 0.0000000000 -0.0009651283 -0.0009651283 -640.7644395080 0.0550241333 0.0550241333
0.3284982126 -0.3635591056 0.0000000000 -0.0009651283 -0.0009651283 -634.1691348469 0.0550241333 0.0550241333
0.3455625413 -0.3519002251 0.0000000000 -0.0009651283 -0.0009651283 -628.5831986119 0.0550241333 0.0550241333
0.3621304899 -0.3395461212 0.0000000000 -0.0009651283 -0.0009651283 -623.9405786586 0.0550241333 0.0550241333
0.3781737525 -0.3265179006 0.0000000000 -0.0009651283 -0.0009651283 -620.3188306676 0.0550241333 0.0550241333
0.3936649194 -0.3128378218 0.0000000000 -0.0009651283 -0.0009651283 -617.2809436551 0.0550241333 0.0550241333
0.5956025658 -0.4645866903 0.0000000000 0.4092449905 0.0437654881 -616.7978437653 0.0458136615 0.0455428627
0.6144988420 -0.4438258219 0.0000000000 0.3424137278 0.0307446983 -621.8101849820 0.0460200493 0.0453897362
0.6326106740 -0.4223655412 0.0000000000 0.2865094874 0.0173045176 -626.8990970024 0.0462370618 0.0452518098
0.6499118626 -0.4002353031 0.0000000000 0.2392155518 0.0049212256 -631.7860042670 0.0464635274 0.0451298357
0.6663773037 -0.3774655652 0.0000000000 0.1976621015 -0.0051654153 -636.0948109550 0.0466982227 0.0450244780
0.6819830290 -0.3540877477 0.0000000000 0.1592085389 -0.0120611800 -639.3769160798 0.0469398794 0.0449363093
0.6967062439 -0.3301341920 0.0000000000 0.1219105794 -0.0152042988 -641.1477926455 0.0471871908 0.0448658076
0.7105253646 -0.3056381170 0.0000000000 0.0846439636 -0.0142890214 -640.9276187129 0.0474388193 0.0448133538
0.7234200543 -0.2806335740 0.0000000000 0.0470106177 -0.0091893204 -638.2832751816 0.0476934032 0.0447792300
0.7353712560 -0.2551554005 0.0000000000 0.0091681265 0.0000863826 -632.8704719745 0.0479495640 0.0447636174
0.7463612257 -0.2292391720 0.0000000000 -0.0283363846 0.0134106035 -624.4730297063 0.0482059141 0.0447665959
0.7563735618 -0.2029211525 0.0000000000 -0.0647050303 0.0305372718 -613.0341714991 0.0484610639 0.0447881436
0.7653932341 -0.1762382436 0.0000000000 -0.0990042866 0.0511012695 -598.6739031076 0.0487136297 0.0448281368
0.7734066103 -0.1492279327 0.0000000000 -0.1302626768 0.0746244807 -581.6879818095 0.0489622405 0.0448863508
0.7804014802 -0.1219282391 0.0000000000 -0.1575522451 0.1005297236 -562.5272142994 0.0492055460 0.0449624610
0.7863670783 -0.0943776604 0.0000000000 -0.1800527119 0.1281604375 -541.7595600882 0.0494422234 0.0450560446
0.7912941044 -0.0666151159 0.0000000000 -0.1970993083 0.1568033145 -520.0202813528 0.0496709847 0.0451665833
0.7951747413 -0.0386798912 0.0000000000 -0.2082184234 0.1857123771 -497.9565846378 0.0498905838 0.0452934655
0.7980026707 -0.0106115800 0.0000000000 -0.2131554672 0.2141346237 -476.1733122838 0.0500998228 0.0454359899
0.7997730875 0.0175499736 0.0000000000 -0.2118960570 0.2413377122 -455.1859056213 0.0502975588 0.0455933690
0.8004827101 0.0457647340 0.0000000000 -0.2046774298 0.2666388178 -435.3860976175 0.0504827101 0.0457647337
0.8001297901 0.0739925336 0.0000000000 -0.1919852158 0.2894317403 -417.0241672033 0.0506542615 0.0459491376
0.7987141187 0.1021931327 0.0000000000 -0.1745326700 0.3092078648 -400.2089660091 0.0508112708 0.0461455623
0.7962370304 0.1303262797 0.0000000000 -0.1532238975 0.3255662904 -384.9238885217 0.0509528730 0.0463529224
0.7927014052 0.1583517717 0.0000000000 -0.1291071883 0.3382090800 -371.0545115812 0.0510782855 0.0465700718
0.7881116673 0.1862295154 0.0000000000 -0.1033273728 0.3469188261 -358.4225892621 0.0511868125 0.0467958098
0.7824737824 0.2139195878 0.0000000000 -0.0770860732 0.3515182407 -346.8215649479 0.0512778483 0.0470288871
0.7757952511 0.2413822970 0.0000000000 -0.0516150253 0.3518170166 -336.0500858903 0.0513508814 0.0472680130
0.7680851012 0.2685782430 0.0000000000 -0.0281595998 0.3475610310 -325.9411231545 0.0514054969 0.0475118620
0.7593538767 0.2954683777 0.0000000000 -0.0079582186 0.3384106238 -316.3844932463 0.0514413790 0.0477590810
0.7496136243 0.3220140655 0.0000000000 0.0078062651 0.3239797138 -307.3400679891 0.0514583128 0.0480082970
0.7388778777 0.3481771423 0.0000000000 0.0181062243 0.3039547563 -298.8387524235 0.0514561859 0.0482581238
0.7271616397 0.3739199748 0.0000000000 0.0222283450 0.2782797420 -290.9693380992 0.0514349888 0.0485071703
0.7144813605 0.3992055186 0.0000000000 0.0199927638 0.2473597015 -283.8529784734 0.0513948154 0.0487540472
0.7008549154 0.4239973756 0.0000000000 0.0120728472 0.2122329918 -277.6171809545 0.0513358627 0.0489973755
0.6863015790 0.4482598507 0.0000000000 0.0005041522 0.1746889004 -272.3951252505 0.0512584296 0.0492357932
0.6708419967 0.4719580069 0.0000000000 -0.0107070690 0.1372798654 -268.3633121161 0.0511629161 0.0494679632
0.6544981554 0.4950577200 0.0000000000 -0.0154703477 0.1030551394 -265.7666324761 0.0510498206 0.0496925807
0.6372933499 0.5175257315 0.0000000000 -0.0067710160 0.0748445838 -264.8417076705 0.0509197381 0.0499083801
0.6192521488 0.5393297005 0.0000000000 0.0210418369 0.0543017253 -265.6490631395 0.0507733566 0.0501141420
0.6004003577 0.5604382538 0.0000000000 0.0702892028 0.0413485357 -267.9633115751 0.0506114539 0.0503087004
0.5581849794 0.6024697725 0.0000000000 0.2359984720 0.0317180427 -275.8356687609 0.0502238007 0.0506768395
0.5347217682 0.6231581689 0.0000000000 0.3476580154 0.0323045754 -280.5369740557 0.0499973398 0.0508451177
0.5104165342 0.6428499787 0.0000000000 0.4699265450 0.0355259453 -285.2465526126 0.0497569998 0.0509945966
0.4853119763 0.6615107524 0.0000000000 0.5982221432 0.0415797527 -289.9014329739 0.0495043649 0.0511242144
0.4594522228 0.6791079001 0.0000000000 0.7274565864 0.0508513781 -294.5022741783 0.0492411043 0.0512330413
0.4328827481 0.6956107522 0.0000000000 0.8520273747 0.0633960682 -299.0179172728 0.0489689613 0.0513202864
0.4056502866 0.7109906171 0.0000000000 0.9665612970 0.0787965000 -303.3474231814 0.0486897419 0.0513853036
0.3778027440 0.7252208328 0.0000000000 1.0668506128 0.0962967697 -307.3440655233 0.0484053025 0.0514275963
0.3493891062 0.7382768165 0.0000000000 1.1504530646 0.1150331905 -310.8631150989 0.0481175378 0.0514468215
0.3204593462 0.7501361082 0.0000000000 1.2167803121 0.1342346707 -313.7942328513 0.0478283683 0.0514427922
0.2910643288 0.7607784110 0.0000000000 1.2667810749 0.1533421058 -316.0679268599 0.0475397270 0.0514154797
0.2612557147 0.7701856260 0.0000000000 1.3024219864 0.1720449063 -317.6446623548 0.0472535466 0.0513650142
0.2310858616 0.7783418837 0.0000000000 1.3261471869 0.1902544059 -318.4974452942 0.0469717463 0.0512916842
0.2006077253 0.7852335696 0.0000000000 1.3404341833 0.2080412301 -318.5948962978 0.0466962188 0.0511959356
0.1698747597 0.7908493463 0.0000000000 1.3474974116 0.2255625137 -317.8886146880 0.0464288172 0.0510783687
0.1389408156 0.7951801701 0.0000000000 1.3491389618 0.2429977474 -316.3065664701 0.0461713422 0.0509397353
0.1078600391 0.7982193032 0.0000000000 1.3467150052 0.2605026824 -313.7525982495 0.0459255301 0.0507809334
0.0766867706 0.7999623210 0.0000000000 1.3411759787 0.2781827317 -310.1108969082 0.0456930401 0.0506030022
0.0454754427 0.8004071152 0.0000000000 1.3331424621 0.2960824760 -305.2535312870 0.0454754428 0.0504071152
0.0142804790 0.7995538912 0.0000000000 1.3229893449 0.3141861468 -299.0491874618 0.0452742098 0.0501945724
-0.0168438069 0.7974051622 0.0000000000 1.3109223496 0.3324242893 -291.3716350208 0.0450907024 0.0499667925
-0.0478433113 0.7939657373 0.0000000000 1.2970400502 0.3506830511 -282.1070417898 0.0449261623 0.0497253026
-0.0786642401 0.7892427062 0.0000000000 1.2813803044 0.3688139031 -271.1597666797 0.0447817028 0.0494717287
-0.1092532065 0.7832454186 0.0000000000 1.2639529647 0.3866426777 -258.4566074896 0.0446583004 0.0492077846
-0.1395573277 0.7759854597 0.0000000000 1.2447617627 0.4039775031 -243.9496622161 0.0445567878 0.0489352603
-0.1695243204 0.7674766213 0.0000000000 1.2238182329 0.4206155986 -227.6180245721 0.0444778480 0.0486560095
-0.1991025936 0.7577348687 0.0000000000 1.2011500541 0.4363490541 -209.4685295508 0.0444220085 0.0483719375
-0.2282413402 0.7467783035 0.0000000000 1.1768056064 0.4509697630 -189.5357328194 0.0443896379 0.0480849876
-0.2568906263 0.7346271225 0.0000000000 1.1508560121 0.4642736572 -167.8812716223 0.0443809424 0.0477971276
-0.2850014775 0.7213035728 0.0000000000 1.1233955246 0.4760643641 -144.5927247814 0.0443959643 0.0475103365
-0.3125259638 0.7068319035 0.0000000000 1.0945408378 0.4861563636 -119.7820675186 0.0444345812 0.0472265902
-0.3394172806 0.6912383135 0.0000000000 1.0644296897 0.4943777036 -93.5838018829 0.0444965064 0.0469478479
-0.3656298280 0.6745508965 0.0000000000 1.0332190058 0.5005723077 -66.1528332262 0.0445812908 0.0466760379
-0.3911192864 0.6567995822 0.0000000000 1.0010827461 0.5046019029 -37.6621553973 0.0446883253 0.0464130444
-0.4158426893 0.6380160757 0.0000000000 0.9682095677 0.5063475864 -8.3004007218 0.0448168454 0.0461606938
-0.4397584929 0.6182337925 0.0000000000 0.9348003814 0.5057110498 21.7306953404 0.0449659356 0.0459207415
-0.4628266426 0.5974877927 0.0000000000 0.9010658612 0.5026154799 52.2188709574 0.0451345363 0.0456948599
-0.5062675803 0.5532526872 0.0000000000 0.8334973917 0.4888507417 113.6802323070 0.0455253529 0.0452915086
-0.5265682534 0.5298412897 0.0000000000 0.8001113274 0.4781393647 144.1993069044 0.0457447979 0.0451168615
-0.5458771513 0.5056214438 0.0000000000 0.7672909603 0.4648843836 174.2721426894 0.0459782308 0.0449619094
-0.5641625394 0.4806353528 0.0000000000 0.7352593244 0.4491199892 203.6715576076 0.0462239987 0.0448277415
-0.5813944973 0.4549264208 0.0000000000 0.7042351629 0.4309015880 232.1743764456 0.0464803616 0.0447153025
-0.5975449609 0.4285391728 0.0000000000 0.6744309339 0.4103050171 259.5634880901 0.0467455050 0.0446253862
-0.6125877604 0.4015191741 0.0000000000 0.6460509536 0.3874256052 285.6297605643 0.0470175531 0.0445586296
-0.6264986547 0.3739129492 0.0000000000 0.6192896855 0.3623770997 310.1738079095 0.0472945818 0.0445155078
-0.6392553624 0.3457678992 0.0000000000 0.5943301821 0.3352904760 333.0076060433 0.0475746327 0.0444963309
-0.6508375895 0.3171322193 0.0000000000 0.5713426812 0.3063126436 353.9559566427 0.0478557267 0.0445012417
-0.6612270527 0.2880548157 0.0000000000 0.5504833624 0.2756050639 372.8577989993 0.0481358787 0.0445302140
-0.6704075003 0.2585852215 0.0000000000 0.5318932668 0.2433422937 389.5673704042 0.0484131116 0.0445830536
-0.6783647290 0.2287735140 0.0000000000 0.5156973851 0.2097104632 403.9552164913 0.0486854705 0.0446593989
-0.6850865976 0.1986702304 0.0000000000 0.5020039072 0.1749056917 415.9090531950 0.0489510365 0.0447587241
-0.6905630369 0.1683262846 0.0000000000 0.4909036102 0.1391324414 425.3344795026 0.0492079407 0.0448803422
-0.6947860573 0.1377928840 0.0000000000 0.4824693432 0.1026018150 432.1555342568 0.0494543776 0.0450234108
-0.6977497520 0.1071214466 0.0000000000 0.4767555712 0.0655298231 436.3150857720 0.0496886178 0.0451869378
-0.6994502984 0.0763635187 0.0000000000 0.4737979720 0.0281356647 437.7750489055 0.0499090204 0.0453697883
-0.6998859551 0.0455706930 0.0000000000 0.4736131315 -0.0093599367 436.5164410483 0.0501140449 0.0455706933
-0.6990570574 0.0147945277 0.0000000000 0.4761984127 -0.0467363280 432.5393082847 0.0503022614 0.0457882587
-0.6969660080 -0.0159135341 0.0000000000 0.4815320263 -0.0837744605 425.8625416550 0.0504723617 0.0460209753
-0.6936172672 -0.0465022441 0.0000000000 0.4895733237 -0.1202583760 416.5235964607 0.0506231675 0.0462672297
-0.6890173382 -0.0769206272 0.0000000000 0.5002633306 -0.1559766739 404.5781227777 0.0507536393 0.0465253158
-0.6831747507 -0.1071180595 0.0000000000 0.5135254713 -0.1907239835 390.0994881907 0.0508628833 0.0467934475