 TITLE = "Tecplot data"
 VARIABLES = "X", "Y", "Z" "U", "V", "p", "dispX", "dispY"
 ZONE SOLUTIONTIME=199.900000, NODES=26114 , ELEMENTS=25916, DATAPACKING=POINT, ZONETYPE=FEQUADRILATERAL
0.3535533906 0.3535533906 0.0000000000 0.0000000000 0.0000000000 -328.9754179549 0.0000000000 0.0000000000
0.3535533908 -0.3535533903 0.0000000000 0.0000000000 0.0000000000 -437.2536339003 0.0000000000 0.0000000000
-0.3535533907 0.3535533905 0.0000000000 0.0000000000 0.0000000000 -63.5993456733 0.0000000000 0.0000000000
-0.3535533904 -0.3535533908 0.0000000000 0.0000000000 0.0000000000 -162.1578267510 0.0000000000 0.0000000000
0.5303300858 0.5303300859 0.0000000000 0.1698698224 -0.0171971157 -311.8187165872 0.0000000000 0.0000000000
0.5303300863 -0.5303300855 0.0000000000 0.2519817480 -0.0336261638 -413.5507222298 0.0000000000 0.0000000000
-0.5303300861 0.5303300857 0.0000000000 0.8259651511 0.4995487860 79.6565512594 0.0000000000 0.0000000000
-0.5303300856 -0.5303300862 0.0000000000 0.8733569364 -0.5357821895 16.1568818830 0.0000000000 0.0000000000
1.0606601717 1.0606601719 0.0000000000 1.1934313210 0.0756192108 -166.0228056057 0.0000000000 0.0000000000
1.0606601725 -1.0606601710 0.0000000000 1.2731391884 0.0973837923 -311.0152108929 0.0000000000 0.0000000000
-1.0606601721 1.0606601715 0.0000000000 0.9317950563 0.1749695868 97.3347375514 0.0000000000 0.0000000000
-1.0606601712 -1.0606601723 0.0000000000 0.9545183523 -0.1835522767 65.5014159201 0.0000000000 0.0000000000
4.2000000000 3.3000000000 0.0000000000 1.0135864453 -0.0241826070 1.4129973467 0.0000000000 0.0000000000
4.2000000000 -3.3000000000 0.0000000000 1.0629667091 0.0151421535 -2.6607448695 0.0000000000 0.0000000000
20.0000000000 4.7000000000 0.0000000000 1.0300331706 0.0098768396 -0.1693282072 0.0000000000 0.0000000000
20.0000000000 -4.7000000000 0.0000000000 1.0390966246 -0.0288389278 0.5815442040 0.0000000000 0.0000000000
-10.0000000000 15.0000000000 0.0000000000 1.0000000000 0.0000000000 24.9918987988 0.0000000000 0.0000000000
20.0000000000 15.0000000000 0.0000000000 1.0215273936 0.0000000000 0.0227375403 0.0000000000 0.0000000000
20.0000000000 -15.0000000000 0.0000000000 1.0215051550 0.0000000000 0.0219378799 0.0000000000 0.0000000000
-10.0000000000 -15.0000000000 0.0000000000 1.0000000000 0.0000000000 18.5763251105 0.0000000000 0.0000000000
0.3665259362 -0.3400863686 0.0000000000 0.0000000000 0.0000000000 -433.5599096086 0.0000000000 0.0000000000
0.3789858618 -0.3261437054 0.0000000000 0.0000000000 0.0000000000 -430.8597443596 0.0000000000 0.0000000000
0.3909157414 -0.3117449007 0.0000000000 0.0000000000 0.0000000000 -428.5784948183 0.0000000000 0.0000000000
0.4022988901 -0.2969100925 0.0000000000 0.0000000000 0.0000000000 -426.7953865928 0.0000000000 0.0000000000
0.4131193873 -0.2816600288 0.0000000000 0.0000000000 0.0000000000 -425.2762790584 0.0000000000 0.0000000000
0.4233620998 -0.2660160380 0.0000000000 0.0000000000 0.0000000000 -423.9111277506 0.0000000000 0.0000000000
0.4330127020 -0.2499999997 0.0000000000 0.0000000000 0.0000000000 -422.5340176498 0.0000000000 0.0000000000
0.4420576969 -0.2336343139 0.0000000000 0.0000000000 0.0000000000 -421.0151806364 0.0000000000 0.0000000000
0.4504844341 -0.2169418693 0.0000000000 0.0000000000 0.0000000000 -419.2271143473 0.0000000000 0.0000000000
0.4582811280 -0.1999460119 0.0000000000 0.0000000000 0.0000000000 -417.0656829165 0.0000000000 0.0000000000
0.4654368744 -0.1826705119 0.0000000000 0.0000000000 0.0000000000 -414.4441770882 0.0000000000 0.0000000000
0.4719416652 -0.1651395307 0.0000000000 0.0000000000 0.0000000000 -411.2989717697 0.0000000000 0.0000000000
0.4777864030 -0.1473775870 0.0000000000 0.0000000000 0.0000000000 -407.5892557682 0.0000000000 0.0000000000
0.4829629132 -0.1294095223 0.0000000000 0.0000000000 0.0000000000 -403.2991276873 0.0000000000 0.0000000000
0.4874639561 -0.1112604667 0.0000000000 0.0000000000 0.0000000000 -398.4378951521 0.0000000000 0.0000000000
0.4912832367 -0.0929558033 0.0000000000 0.0000000000 0.0000000000 -393.0401560195 0.0000000000 0.0000000000
0.4944154131 -0.0745211329 0.0000000000 0.0000000000 0.0000000000 -387.1645034585 0.0000000000 0.0000000000
0.4968561050 -0.0559822378 0.0000000000 0.0000000000 0.0000000000 -380.8911567728 0.0000000000 0.0000000000
0.4986018986 -0.0373650466 0.0000000000 0.0000000000 0.0000000000 -374.3183379802 0.0000000000 0.0000000000
0.4996503524 -0.0186955969 0.0000000000 0.0000000000 0.0000000000 -367.5576940381 0.0000000000 0.0000000000
0.5000000000 0.0000000002 0.0000000000 0.0000000000 0.0000000000 -360.7290617646 0.0000000000 0.0000000000
0.4996503524 0.0186955973 0.0000000000 0.0000000000 0.0000000000 -353.9550106964 0.0000000000 0.0000000000
0.4986018986 0.0373650470 0.0000000000 0.0000000000 0.0000000000 -347.3556377670 0.0000000000 0.0000000000
0.4968561049 0.0559822382 0.0000000000 0.0000000000 0.0000000000 -341.0439638650 0.0000000000 0.0000000000
0.4944154131 0.0745211333 0.0000000000 0.0000000000 0.0000000000 -335.1223609201 0.0000000000 0.0000000000
0.4912832366 0.0929558037 0.0000000000 0.0000000000 0.0000000000 -329.6799549262 0.0000000000 0.0000000000
0.4874639561 0.1112604671 0.0000000000 0.0000000000 0.0000000000 -324.7914310016 0.0000000000 0.0000000000
0.4829629131 0.1294095227 0.0000000000 0.0000000000 0.0000000000 -320.5163508976 0.0000000000 0.0000000000
0.4777864029 0.1473775873 0.0000000000 0.0000000000 0.0000000000 -316.9001073851 0.0000000000 0.0000000000
0.4719416651 0.1651395311 0.0000000000 0.0000000000 0.0000000000 -313.9737221920 0.0000000000 0.0000000000
0.4654368743 0.1826705123 0.0000000000 0.0000000000 0.0000000000 -311.7566582080 0.0000000000 0.0000000000
0.4582811279 0.1999460123 0.0000000000 0.0000000000 0.0000000000 -310.2543600163 0.0000000000 0.0000000000
0.4504844339 0.2169418697 0.0000000000 0.0000000000 0.0000000000 -309.4648031031 0.0000000000 0.0000000000
0.4420576967 0.2336343142 0.0000000000 0.0000000000 0.0000000000 -309.3683784785 0.0000000000 0.0000000000
0.4330127018 0.2500000001 0.0000000000 0.0000000000 0.0000000000 -309.9469941635 0.0000000000 0.0000000000
0.4233620996 0.2660160383 0.0000000000 0.0000000000 0.0000000000 -311.1517382466 0.0000000000 0.0000000000
0.4131193871 0.2816600291 0.0000000000 0.0000000000 0.0000000000 -312.9620928390 0.0000000000 0.0000000000
0.4022988898 0.2969100929 0.0000000000 0.0000000000 0.0000000000 -315.2872772739 0.0000000000 0.0000000000
0.3909157412 0.3117449010 0.0000000000 0.0000000000 0.0000000000 -318.1422914951 0.0000000000 0.0000000000
0.3789858615 0.3261437057 0.0000000000 0.0000000000 0.0000000000 -321.3614381752 0.0000000000 0.0000000000
0.3665259359 0.3400863689 0.0000000000 0.0000000000 0.0000000000 -325.0685270439 0.0000000000 0.0000000000
0.3386407858 0.3678619554 0.0000000000 0.0000000000 0.0000000000 -333.8925281679 0.0000000000 0.0000000000
0.3231496189 0.3815420341 0.0000000000 0.0000000000 0.0000000000 -339.0621861175 0.0000000000 0.0000000000
0.3071063563 0.3945702547 0.0000000000 0.0000000000 0.0000000000 -344.7375627177 0.0000000000 0.0000000000
0.2905384077 0.4069243587 0.0000000000 0.0000000000 0.0000000000 -350.7958904270 0.0000000000 0.0000000000
0.2734740790 0.4185832392 0.0000000000 0.0000000000 0.0000000000 -357.3985638748 0.0000000000 0.0000000000
0.2559425245 0.4295269772 0.0000000000 0.0000000000 0.0000000000 -364.5337535616 0.0000000000 0.0000000000
0.2379736965 0.4397368756 0.0000000000 0.0000000000 0.0000000000 -372.2859126839 0.0000000000 0.0000000000
0.2195982944 0.4491954910 0.0000000000 0.0000000000 0.0000000000 -380.6579772337 0.0000000000 0.0000000000
0.2008477123 0.4578866634 0.0000000000 0.0000000000 0.0000000000 -389.6615007231 0.0000000000 0.0000000000
0.1817539852 0.4657955441 0.0000000000 0.0000000000 0.0000000000 -399.2545522335 0.0000000000 0.0000000000
0.1623497345 0.4729086209 0.0000000000 0.0000000000 0.0000000000 -409.3702525859 0.0000000000 0.0000000000
0.1426681120 0.4792137413 0.0000000000 0.0000000000 0.0000000000 -419.8964109716 0.0000000000 0.0000000000
0.1227427435 0.4847001330 0.0000000000 0.0000000000 0.0000000000 -430.6846831026 0.0000000000 0.0000000000
0.1026076710 0.4893584227 0.0000000000 0.0000000000 0.0000000000 -441.5447531148 0.0000000000 0.0000000000
0.0822972951 0.4931806517 0.0000000000 0.0000000000 0.0000000000 -452.2485794151 0.0000000000 0.0000000000
0.0618463155 0.4961602899 0.0000000000 0.0000000000 0.0000000000 -462.5311239453 0.0000000000 0.0000000000
0.0412896726 0.4982922465 0.0000000000 0.0000000000 0.0000000000 -472.0954895984 0.0000000000 0.0000000000
0.0206624870 0.4995728792 0.0000000000 0.0000000000 0.0000000000 -480.6183190326 0.0000000000 0.0000000000
-0.0000000001 0.5000000000 0.0000000000 0.0000000000 0.0000000000 -487.7576789469 0.0000000000 0.0000000000
-0.0206624872 0.4995728792 0.0000000000 0.0000000000 0.0000000000 -493.1618881823 0.0000000000 0.0000000000
-0.0412896728 0.4982922465 0.0000000000 0.0000000000 0.0000000000 -496.4795613384 0.0000000000 0.0000000000
-0.0618463157 0.4961602899 0.0000000000 0.0000000000 0.0000000000 -497.3700041610 0.0000000000 0.0000000000
-0.0822972953 0.4931806517 0.0000000000 0.0000000000 0.0000000000 -495.5136326452 0.0000000000 0.0000000000
-0.1026076712 0.4893584226 0.0000000000 0.0000000000 0.0000000000 -490.6218104299 0.0000000000 0.0000000000
-0.1227427437 0.4847001329 0.0000000000 0.0000000000 0.0000000000 -482.4457207829 0.0000000000 0.0000000000
-0.1426681122 0.4792137412 0.0000000000 0.0000000000 0.0000000000 -470.7839007750 0.0000000000 0.0000000000
-0.1623497347 0.4729086208 0.0000000000 0.0000000000 0.0000000000 -455.4882183816 0.0000000000 0.0000000000
-0.1817539854 0.4657955440 0.0000000000 0.0000000000 0.0000000000 -436.4681654372 0.0000000000 0.0000000000
-0.2008477124 0.4578866633 0.0000000000 0.0000000000 0.0000000000 -413.6934562653 0.0000000000 0.0000000000
-0.2195982945 0.4491954909 0.0000000000 0.0000000000 0.0000000000 -387.1950047629 0.0000000000 0.0000000000
-0.2379736966 0.4397368755 0.0000000000 0.0000000000 0.0000000000 -357.0644203784 0.0000000000 0.0000000000
-0.2559425247 0.4295269771 0.0000000000 0.0000000000 0.0000000000 -323.4522005954 0.0000000000 0.0000000000
-0.2734740792 0.4185832391 0.0000000000 0.0000000000 0.0000000000 -286.5648107797 0.0000000000 0.0000000000
-0.2905384078 0.4069243586 0.0000000000 0.0000000000 0.0000000000 -246.6608332768 0.0000000000 0.0000000000
-0.3071063565 0.3945702546 0.0000000000 0.0000000000 0.0000000000 -204.0463464200 0.0000000000 0.0000000000
-0.3231496190 0.3815420340 0.0000000000 0.0000000000 0.0000000000 -159.0696718371 0.0000000000 0.0000000000
-0.3386407859 0.3678619552 0.0000000000 0.0000000000 0.0000000000 -112.1156170151 0.0000000000 0.0000000000
-0.3678619554 0.3386407857 0.0000000000 0.0000000000 0.0000000000 -13.9600275562 0.0000000000 0.0000000000
-0.3815420342 0.3231496188 0.0000000000 0.0000000000 0.0000000000 36.3455619571 0.0000000000 0.0000000000
-0.3945702548 0.3071063562 0.0000000000 0.0000000000 0.0000000000 86.8493205421 0.0000000000 0.0000000000
-0.4069243587 0.2905384076 0.0000000000 0.0000000000 0.0000000000 137.0778299772 0.0000000000 0.0000000000
-0.4185832392 0.2734740789 0.0000000000 0.0000000000 0.0000000000 186.5580033428 0.0000000000 0.0000000000
-0.4295269773 0.2559425244 0.0000000000 0.0000000000 0.0000000000 234.8223299781 0.0000000000 0.0000000000
-0.4397368757 0.2379736964 0.0000000000 0.0000000000 0.0000000000 281.4137274644 0.0000000000 0.0000000000
-0.4491954910 0.2195982943 0.0000000000 0.0000000000 0.0000000000 325.8900360216 0.0000000000 0.0000000000
-0.4578866634 0.2008477122 0.0000000000 0.0000000000 0.0000000000 367.8281945986 0.0000000000 0.0000000000
-0.4657955441 0.1817539851 0.0000000000 0.0000000000 0.0000000000 406.8281268854 0.0000000000 0.0000000000
-0.4729086209 0.1623497344 0.0000000000 0.0000000000 0.0000000000 442.5163488875 0.0000000000 0.0000000000
-0.4792137413 0.1426681119 0.0000000000 0.0000000000 0.0000000000 474.5492949068 0.0000000000 0.0000000000
-0.4847001330 0.1227427434 0.0000000000 0.0000000000 0.0000000000 502.6163491919 0.0000000000 0.0000000000
-0.4893584227 0.1026076709 0.0000000000 0.0000000000 0.0000000000 526.4425664788 0.0000000000 0.0000000000
-0.4931806517 0.0822972949 0.0000000000 0.0000000000 0.0000000000 545.7910647633 0.0000000000 0.0000000000
-0.4961602899 0.0618463154 0.0000000000 0.0000000000 0.0000000000 560.4650761410 0.0000000000 0.0000000000
-0.4982922465 0.0412896725 0.0000000000 0.0000000000 0.0000000000 570.3096449681 0.0000000000 0.0000000000
-0.4995728792 0.0206624869 0.0000000000 0.0000000000 0.0000000000 575.2129659554 0.0000000000 0.0000000000
-0.5000000000 -0.0000000002 0.0000000000 0.0000000000 0.0000000000 575.1073576629 0.0000000000 0.0000000000
-0.4995728792 -0.0206624873 0.0000000000 0.0000000000 0.0000000000 569.9698690365 0.0000000000 0.0000000000
-0.4982922465 -0.0412896729 0.0000000000 0.0000000000 0.0000000000 559.8225181715 0.0000000000 0.0000000000
-0.4961602898 -0.0618463158 0.0000000000 0.0000000000 0.0000000000 544.7321635518 0.0000000000 0.0000000000
-0.4931806517 -0.0822972954 0.0000000000 0.0000000000 0.0000000000 524.8100087676 0.0000000000 0.0000000000
-0.4893584226 -0.1026076713 0.0000000000 0.0000000000 0.0000000000 500.2107423442 0.0000000000 0.0000000000
-0.4847001329 -0.1227427438 0.0000000000 0.0000000000 0.0000000000 471.1313149375 0.0000000000 0.0000000000
-0.4792137412 -0.1426681123 0.0000000000 0.0000000000 0.0000000000 437.8093568523 0.0000000000 0.0000000000
-0.4729086208 -0.1623497348 0.0000000000 0.0000000000 0.0000000000 400.5212396012 0.0000000000 0.0000000000
-0.4657955439 -0.1817539855 0.0000000000 0.0000000000 0.0000000000 359.5797860350 0.0000000000 0.0000000000
-0.4578866632 -0.2008477125 0.0000000000 0.0000000000 0.0000000000 315.3316343455 0.0000000000 0.0000000000
-0.4491954908 -0.2195982946 0.0000000000 0.0000000000 0.0000000000 268.1542619639 0.0000000000 0.0000000000
-0.4397368755 -0.2379736967 0.0000000000 0.0000000000 0.0000000000 218.4526760267 0.0000000000 0.0000000000
-0.4295269771 -0.2559425248 0.0000000000 0.0000000000 0.0000000000 166.6557777271 0.0000000000 0.0000000000
-0.4185832390 -0.2734740793 0.0000000000 0.0000000000 0.0000000000 113.2124086432 0.0000000000 0.0000000000
-0.4069243585 -0.2905384079 0.0000000000 0.0000000000 0.0000000000 58.5870881981 0.0000000000 0.0000000000
-0.3945702545 -0.3071063565 0.0000000000 0.0000000000 0.0000000000 3.2554530286 0.0000000000 0.0000000000
-0.3815420339 -0.3231496191 0.0000000000 0.0000000000 0.0000000000 -52.3005885333 0.0000000000 0.0000000000
-0.3678619552 -0.3386407860 0.0000000000 0.0000000000 0.0000000000 -107.5979700525 0.0000000000 0.0000000000
-0.3386407856 -0.3678619555 0.0000000000 0.0000000000 0.0000000000 -215.5110724962 0.0000000000 0.0000000000
-0.3231496187 -0.3815420343 0.0000000000 0.0000000000 0.0000000000 -267.2041557741 0.0000000000 0.0000000000
-0.3071063561 -0.3945702549 0.0000000000 0.0000000000 0.0000000000 -316.8049444350 0.0000000000 0.0000000000
-0.2905384075 -0.4069243588 0.0000000000 0.0000000000 0.0000000000 -363.9086741077 0.0000000000 0.0000000000
-0.2734740788 -0.4185832393 0.0000000000 0.0000000000 0.0000000000 -408.1438772918 0.0000000000 0.0000000000
-0.2559425243 -0.4295269773 0.0000000000 0.0000000000 0.0000000000 -449.1781894188 0.0000000000 0.0000000000
-0.2379736963 -0.4397368757 0.0000000000 0.0000000000 0.0000000000 -486.7239052343 0.0000000000 0.0000000000
-0.2195982942 -0.4491954911 0.0000000000 0.0000000000 0.0000000000 -520.5431348205 0.0000000000 0.0000000000
-0.2008477121 -0.4578866634 0.0000000000 0.0000000000 0.0000000000 -550.4523852033 0.0000000000 0.0000000000
-0.1817539850 -0.4657955441 0.0000000000 0.0000000000 0.0000000000 -576.3263733089 0.0000000000 0.0000000000
-0.1623497343 -0.4729086209 0.0000000000 0.0000000000 0.0000000000 -598.1008621774 0.0000000000 0.0000000000
-0.1426681118 -0.4792137413 0.0000000000 0.0000000000 0.0000000000 -615.7743086851 0.0000000000 0.0000000000
-0.1227427433 -0.4847001330 0.0000000000 0.0000000000 0.0000000000 -629.4081213192 0.0000000000 0.0000000000
-0.1026076708 -0.4893584227 0.0000000000 0.0000000000 0.0000000000 -639.1253549726 0.0000000000 0.0000000000
-0.0822972948 -0.4931806518 0.0000000000 0.0000000000 0.0000000000 -645.1077180831 0.0000000000 0.0000000000
-0.0618463153 -0.4961602899 0.0000000000 0.0000000000 0.0000000000 -647.5908383623 0.0000000000 0.0000000000
-0.0412896724 -0.4982922465 0.0000000000 0.0000000000 0.0000000000 -646.8578219269 0.0000000000 0.0000000000
-0.0206624868 -0.4995728792 0.0000000000 0.0000000000 0.0000000000 -643.2312479609 0.0000000000 0.0000000000
0.0000000003 -0.5000000000 0.0000000000 0.0000000000 0.0000000000 -637.0638473419 0.0000000000 0.0000000000
0.0206624874 -0.4995728792 0.0000000000 0.0000000000 0.0000000000 -628.7282293482 0.0000000000 0.0000000000
0.0412896730 -0.4982922465 0.0000000000 0.0000000000 0.0000000000 -618.6060904216 0.0000000000 0.0000000000
0.0618463159 -0.4961602898 0.0000000000 0.0000000000 0.0000000000 -607.0774307102 0.0000000000 0.0000000000
0.0822972955 -0.4931806516 0.0000000000 0.0000000000 0.0000000000 -594.5102495359 0.0000000000 0.0000000000
0.1026076714 -0.4893584226 0.0000000000 0.0000000000 0.0000000000 -581.2512974672 0.0000000000 0.0000000000
0.1227427439 -0.4847001329 0.0000000000 0.0000000000 0.0000000000 -567.6181268810 0.0000000000 0.0000000000
0.1426681124 -0.4792137411 0.0000000000 0.0000000000 0.0000000000 -553.8931524563 0.0000000000 0.0000000000
0.1623497349 -0.4729086207 0.0000000000 0.0000000000 0.0000000000 -540.3192823531 0.0000000000 0.0000000000
0.1817539856 -0.4657955439 0.0000000000 0.0000000000 0.0000000000 -527.0989058361 0.0000000000 0.0000000000
0.2008477126 -0.4578866632 0.0000000000 0.0000000000 0.0000000000 -514.3934111867 0.0000000000 0.0000000000
0.2195982947 -0.4491954908 0.0000000000 0.0000000000 0.0000000000 -502.3298282025 0.0000000000 0.0000000000
0.2379736968 -0.4397368754 0.0000000000 0.0000000000 0.0000000000 -491.0009264496 0.0000000000 0.0000000000
0.2559425248 -0.4295269770 0.0000000000 0.0000000000 0.0000000000 -480.4863431758 0.0000000000 0.0000000000
0.2734740794 -0.4185832389 0.0000000000 0.0000000000 0.0000000000 -470.8326390534 0.0000000000 0.0000000000
0.2905384080 -0.4069243584 0.0000000000 0.0000000000 0.0000000000 -462.1190488883 0.0000000000 0.0000000000
0.3071063566 -0.3945702545 0.0000000000 0.0000000000 0.0000000000 -454.3289550355 0.0000000000 0.0000000000
0.3231496192 -0.3815420339 0.0000000000 0.0000000000 0.0000000000 -447.6259718010 0.0000000000 0.0000000000
0.3386407861 -0.3678619551 0.0000000000 0.0000000000 0.0000000000 -441.7313035836 0.0000000000 0.0000000000
0.5497889042 -0.5101295529 0.0000000000 0.2034781695 -0.0474853877 -412.0992674995 0.0000000000 0.0000000000
0.5684787927 -0.4892155581 0.0000000000 0.1632036880 -0.0636799789 -411.2340450408 0.0000000000 0.0000000000
0.5863736122 -0.4676173510 0.0000000000 0.1307452138 -0.0817163379 -410.9714879995 0.0000000000 0.0000000000
0.6034483351 -0.4453651388 0.0000000000 0.1051904665 -0.1009802401 -411.2494081740 0.0000000000 0.0000000000
0.6196790810 -0.4224900431 0.0000000000 0.0852822295 -0.1207781984 -411.9615477952 0.0000000000 0.0000000000
0.6350431497 -0.3990240570 0.0000000000 0.0696128714 -0.1403996946 -412.9666340439 0.0000000000 0.0000000000
0.6495190531 -0.3749999996 0.0000000000 0.0568173182 -0.1591797926 -414.0990187645 0.0000000000 0.0000000000
0.6630865453 -0.3504514708 0.0000000000 0.0457208038 -0.1765470177 -415.1801362872 0.0000000000 0.0000000000
0.6757266511 -0.3254128039 0.0000000000 0.0354201256 -0.1920496604 -416.0288800503 0.0000000000 0.0000000000
0.6874216921 -0.2999190178 0.0000000000 0.0253015895 -0.2053616043 -416.4708335349 0.0000000000 0.0000000000
0.6981553116 -0.2740057679 0.0000000000 0.0150142628 -0.2162735106 -416.3468037473 0.0000000000 0.0000000000
0.7079124979 -0.2477092961 0.0000000000 0.0044206669 -0.2246761699 -415.5208648618 0.0000000000 0.0000000000
0.7166796045 -0.2210663804 0.0000000000 -0.0064576695 -0.2305415254 -413.8876210910 0.0000000000 0.0000000000
0.7244443698 -0.1941142835 0.0000000000 -0.0174897681 -0.2339049086 -411.3780910133 0.0000000000 0.0000000000
0.7311959342 -0.1668907001 0.0000000000 -0.0284760764 -0.2348503287 -407.9636138352 0.0000000000 0.0000000000
0.7369248550 -0.1394337050 0.0000000000 -0.0391806262 -0.2334994504 -403.6573746519 0.0000000000 0.0000000000
0.7416231197 -0.1117816993 0.0000000000 -0.0493560328 -0.2300041028 -398.5133977515 0.0000000000 0.0000000000
0.7452841575 -0.0839733567 0.0000000000 -0.0587631536 -0.2245416647 -392.6230831016 0.0000000000 0.0000000000
0.7479028479 -0.0560475699 0.0000000000 -0.0671868399 -0.2173123964 -386.1095449560 0.0000000000 0.0000000000
0.7494755286 -0.0280433954 0.0000000000 -0.0744486266 -0.2085376937 -379.1201664089 0.0000000000 0.0000000000
0.7500000000 0.0000000003 0.0000000000 -0.0804166137 -0.1984582838 -371.8179213726 0.0000000000 0.0000000000
0.7494755286 0.0280433960 0.0000000000 -0.0850122826 -0.1873315262 -364.3721319660 0.0000000000 0.0000000000
0.7479028479 0.0560475705 0.0000000000 -0.0882136054 -0.1754271796 -356.9494057583 0.0000000000 0.0000000000
0.7452841574 0.0839733573 0.0000000000 -0.0900535675 -0.1630212445 -349.7055083704 0.0000000000 0.0000000000
0.7416231196 0.1117816999 0.0000000000 -0.0906131476 -0.1503877638 -342.7788511328 0.0000000000 0.0000000000
0.7369248549 0.1394337056 0.0000000000 -0.0900079458 -0.1377887876 -336.2861016069 0.0000000000 0.0000000000
0.7311959341 0.1668907007 0.0000000000 -0.0883680677 -0.1254630831 -330.3201635018 0.0000000000 0.0000000000
0.7244443697 0.1941142840 0.0000000000 -0.0858116500 -0.1136145963 -324.9504452954 0.0000000000 0.0000000000
0.7166796043 0.2210663810 0.0000000000 -0.0824135864 -0.1024020965 -320.2249814737 0.0000000000 0.0000000000
0.7079124977 0.2477092967 0.0000000000 -0.0781725408 -0.0919317669 -316.1736387768 0.0000000000 0.0000000000
0.6981553114 0.2740057685 0.0000000000 -0.0729809672 -0.0822545740 -312.8114022078 0.0000000000 0.0000000000
0.6874216918 0.2999190184 0.0000000000 -0.0666040871 -0.0733698849 -310.1406833898 0.0000000000 0.0000000000
0.6757266509 0.3254128045 0.0000000000 -0.0586738893 -0.0652358557 -308.1518298215 0.0000000000 0.0000000000
0.6630865451 0.3504514714 0.0000000000 -0.0487025069 -0.0577856231 -306.8216045464 0.0000000000 0.0000000000
0.6495190528 0.3750000001 0.0000000000 -0.0361155482 -0.0509465396 -306.1102962396 0.0000000000 0.0000000000
0.6350431493 0.3990240575 0.0000000000 -0.0203007683 -0.0446581178 -305.9590500929 0.0000000000 0.0000000000
0.6196790807 0.4224900437 0.0000000000 -0.0006625688 -0.0388836297 -306.2895393291 0.0000000000 0.0000000000
0.6034483348 0.4453651393 0.0000000000 0.0233295672 -0.0336109696 -307.0078005980 0.0000000000 0.0000000000
0.5863736118 0.4676173515 0.0000000000 0.0521087339 -0.0288406162 -308.0127958285 0.0000000000 0.0000000000
0.5684787923 0.4892155585 0.0000000000 0.0859983118 -0.0245619534 -309.2084340421 0.0000000000 0.0000000000
0.5497889038 0.5101295534 0.0000000000 0.1252143114 -0.0207227936 -310.5106050492 0.0000000000 0.0000000000
0.5079611787 0.5517929331 0.0000000000 0.2256295609 -0.0134049680 -313.4723258458 0.0000000000 0.0000000000
0.4847244283 0.5723130512 0.0000000000 0.2879394623 -0.0092933565 -315.0862219256 0.0000000000 0.0000000000
0.4606595344 0.5918553821 0.0000000000 0.3563713954 -0.0043380155 -316.7931928311 0.0000000000 0.0000000000
0.4358076115 0.6103865380 0.0000000000 0.4301750973 0.0020140287 -318.6525280057 0.0000000000 0.0000000000
0.4102111185 0.6278748587 0.0000000000 0.5082047355 0.0102678362 -320.7124886087 0.0000000000 0.0000000000
0.3839137867 0.6442904658 0.0000000000 0.5889257638 0.0208021506 -322.9949020196 0.0000000000 0.0000000000
0.3569605447 0.6596053135 0.0000000000 0.6704995317 0.0338177797 -325.4834414952 0.0000000000 0.0000000000
0.3293974415 0.6737932365 0.0000000000 0.7509326786 0.0493217090 -328.1174423484 0.0000000000 0.0000000000
0.3012715684 0.6868299950 0.0000000000 0.8282578751 0.0671441676 -330.7919083979 0.0000000000 0.0000000000
0.2726309778 0.6986933161 0.0000000000 0.9007070952 0.0869788545 -333.3634085102 0.0000000000 0.0000000000
0.2435246018 0.7093629313 0.0000000000 0.9668459700 0.1084342789 -335.6606423526 0.0000000000 0.0000000000
0.2140021681 0.7188206119 0.0000000000 1.0256519078 0.1310854482 -337.4974717667 0.0000000000 0.0000000000
0.1841141152 0.7270501995 0.0000000000 1.0765333132 0.1545180216 -338.6858171707 0.0000000000 0.0000000000
0.1539115065 0.7340376340 0.0000000000 1.1192985552 0.1783603245 -339.0462360235 0.0000000000 0.0000000000
0.1234459426 0.7397709776 0.0000000000 1.1540898747 0.2023016876 -338.4149895934 0.0000000000 0.0000000000
0.0927694733 0.7442404348 0.0000000000 1.1812992719 0.2260980999 -336.6474907732 0.0000000000 0.0000000000
0.0619345090 0.7474383698 0.0000000000 1.2014816313 0.2495678562 -333.6188328093 0.0000000000 0.0000000000
0.0309937305 0.7493593188 0.0000000000 1.2152763803 0.2725806513 -329.2224788812 0.0000000000 0.0000000000
-0.0000000002 0.7500000000 0.0000000000 1.2233443240 0.2950435120 -323.3681939258 0.0000000000 0.0000000000
-0.0309937308 0.7493593188 0.0000000000 1.2263220894 0.3168863549 -315.9800634211 0.0000000000 0.0000000000
-0.0619345093 0.7474383697 0.0000000000 1.2247934671 0.3380490982 -306.9951159701 0.0000000000 0.0000000000
-0.0927694736 0.7442404348 0.0000000000 1.2192750438 0.3584714039 -296.3627553062 0.0000000000 0.0000000000
-0.1234459429 0.7397709775 0.0000000000 1.2102127089 0.3780854245 -284.0449711174 0.0000000000 0.0000000000
-0.1539115068 0.7340376340 0.0000000000 1.1979855951 0.3968114401 -270.0171538569 0.0000000000 0.0000000000
-0.1841141155 0.7270501994 0.0000000000 1.1829144668 0.4145559853 -254.2692768882 0.0000000000 0.0000000000
-0.2140021684 0.7188206118 0.0000000000 1.1652722162 0.4312119479 -236.8072079415 0.0000000000 0.0000000000
-0.2435246021 0.7093629312 0.0000000000 1.1452948027 0.4466601082 -217.6539468331 0.0000000000 0.0000000000
-0.2726309781 0.6986933160 0.0000000000 1.1231915590 0.4607716431 -196.8506374649 0.0000000000 0.0000000000
-0.3012715687 0.6868299949 0.0000000000 1.0991542548 0.4734112050 -174.4572550976 0.0000000000 0.0000000000
-0.3293974418 0.6737932363 0.0000000000 1.0733646421 0.4844402698 -150.5529165735 0.0000000000 0.0000000000
-0.3569605450 0.6596053133 0.0000000000 1.0460004320 0.4937205327 -125.2357980152 0.0000000000 0.0000000000
-0.3839137870 0.6442904657 0.0000000000 1.0172397880 0.5011171960 -98.6226710774 0.0000000000 0.0000000000
-0.4102111188 0.6278748586 0.0000000000 0.9872644911 0.5065020450 -70.8480862695 0.0000000000 0.0000000000
-0.4358076117 0.6103865378 0.0000000000 0.9562619649 0.5097562500 -42.0632420570 0.0000000000 0.0000000000
-0.4606595347 0.5918553819 0.0000000000 0.9244263481 0.5107728562 -12.4345832880 0.0000000000 0.0000000000
-0.4847244286 0.5723130510 0.0000000000 0.8919587931 0.5094589476 17.8578263552 0.0000000000 0.0000000000
-0.5079611789 0.5517929329 0.0000000000 0.8590671466 0.5057374796 48.6221144021 0.0000000000 0.0000000000
-0.5517929332 0.5079611785 0.0000000000 0.7928712794 0.4908517707 110.7516058835 0.0000000000 0.0000000000
-0.5723130513 0.4847244282 0.0000000000 0.7600072990 0.4796247965 141.6920712516 0.0000000000 0.0000000000
-0.5918553822 0.4606595343 0.0000000000 0.7275966441 0.4658662873 172.2592286419 0.0000000000 0.0000000000
-0.6103865381 0.4358076114 0.0000000000 0.6958626592 0.4495950586 202.2330225853 0.0000000000 0.0000000000
-0.6278748588 0.4102111184 0.0000000000 0.6650267673 0.4308503942 231.3942208152 0.0000000000 0.0000000000
-0.6442904659 0.3839137866 0.0000000000 0.6353066055 0.4096918854 259.5265357684 0.0000000000 0.0000000000
-0.6596053135 0.3569605446 0.0000000000 0.6069141658 0.3861990518 286.4186863957 0.0000000000 0.0000000000
-0.6737932365 0.3293974414 0.0000000000 0.5800539704 0.3604707585 311.8663814273 0.0000000000 0.0000000000
-0.6868299951 0.3012715682 0.0000000000 0.5549213103 0.3326244492 335.6742078902 0.0000000000 0.0000000000
-0.6986933161 0.2726309777 0.0000000000 0.5317005683 0.3027952082 357.6574113728 0.0000000000 0.0000000000
-0.7093629314 0.2435246016 0.0000000000 0.5105636456 0.2711346670 377.6435569861 0.0000000000 0.0000000000
-0.7188206119 0.2140021679 0.0000000000 0.4916685069 0.2378097684 395.4740617330 0.0000000000 0.0000000000
-0.7270501995 0.1841141151 0.0000000000 0.4751578541 0.2030014007 411.0055901159 0.0000000000 0.0000000000
-0.7340376341 0.1539115064 0.0000000000 0.4611579362 0.1669029140 424.1113051533 0.0000000000 0.0000000000
-0.7397709776 0.1234459424 0.0000000000 0.4497774990 0.1297185333 434.6819671905 0.0000000000 0.0000000000
-0.7442404348 0.0927694732 0.0000000000 0.4411068762 0.0916616810 442.6268732188 0.0000000000 0.0000000000
-0.7474383698 0.0619345088 0.0000000000 0.4352172213 0.0529532291 447.8746297260 0.0000000000 0.0000000000
-0.7493593188 0.0309937304 0.0000000000 0.4321598855 0.0138196982 450.3737540430 0.0000000000 0.0000000000
-0.7500000000 -0.0000000003 0.0000000000 0.4319659478 -0.0255085724 450.0931024955 0.0000000000 0.0000000000
-0.7493593188 -0.0309937310 0.0000000000 0.4346459196 -0.0647992685 447.0221302761 0.0000000000 0.0000000000
-0.7474383697 -0.0619345094 0.0000000000 0.4401896387 -0.1038199478 441.1709888619 0.0000000000 0.0000000000
-0.7442404348 -0.0927694738 0.0000000000 0.4485663616 -0.1423398868 432.5704636491 0.0000000000 0.0000000000
-0.7397709775 -0.1234459430 0.0000000000 0.4597250525 -0.1801319257 421.2717496658 0.0000000000 0.0000000000
-0.7340376339 -0.1539115070 0.0000000000 0.4735948489 -0.2169743034 407.3460575333 0.0000000000 0.0000000000
-0.7270501994 -0.1841141157 0.0000000000 0.4900856854 -0.2526524684 390.8840434828 0.0000000000 0.0000000000
-0.7188206117 -0.2140021685 0.0000000000 0.5090890562 -0.2869608446 371.9950621131 0.0000000000 0.0000000000