 TITLE = "Tecplot data"
 VARIABLES = "X", "Y", "Z" "U", "V", "p", "dispX", "dispY"
 ZONE SOLUTIONTIME=169.900000, NODES=26114 , ELEMENTS=25916, DATAPACKING=POINT, ZONETYPE=FEQUADRILATERAL
0.4083709137 0.4083709138 0.0000000000 0.0012211849 0.0012211849 -485.0710120234 0.0548175232 0.0548175232
0.4083709140 -0.2987358672 0.0000000000 0.0012211849 0.0012211849 -404.2604926563 0.0548175232 0.0548175232
-0.2987358676 0.4083709136 0.0000000000 0.0012211849 0.0012211849 -253.0313387686 0.0548175232 0.0548175232
-0.2987358673 -0.2987358676 0.0000000000 0.0012211849 0.0012211849 -108.2034433583 0.0548175232 0.0548175232
0.5805756015 0.5806314461 0.0000000000 0.3689820167 0.0051331955 -458.8860696292 0.0502455156 0.0503013602
0.5757778038 -0.4847913705 0.0000000000 0.2467221200 0.0480841264 -407.3483440686 0.0454477175 0.0455387150
-0.4851788129 0.5756439211 0.0000000000 0.9096400194 0.5238867972 9.5535726716 0.0451512731 0.0453138354
-0.4804777590 -0.4799944231 0.0000000000 0.8484007051 -0.4579988471 73.5193276052 0.0498523267 0.0503356631
1.1005236538 1.1005978415 0.0000000000 1.2533316870 -0.2071303699 -272.2838731030 0.0398634821 0.0399376696
1.0927719185 -1.0282119676 0.0000000000 1.1568763464 -0.0462887166 -98.2746602697 0.0321117459 0.0324482034
-1.0293338987 1.0924519363 0.0000000000 0.9724442498 0.1681914288 65.4216123998 0.0313262734 0.0317917649
-1.0219935311 -1.0207688985 0.0000000000 0.9420953389 -0.1509645728 90.5888610557 0.0386666401 0.0398912738
4.2205740746 3.3180603197 0.0000000000 1.0437282660 -0.0065224416 24.8046265043 0.0205740746 0.0180603197
4.2123568235 -3.2890374535 0.0000000000 1.0000768851 0.0158184051 26.7955631889 0.0123568235 0.0109625465
20.0000000000 4.7000000000 0.0000000000 1.0412721296 0.0361923896 0.1911452580 0.0000000000 0.0000000000
20.0000000000 -4.7000000000 0.0000000000 1.0417040076 -0.0306384432 0.0769232298 0.0000000000 0.0000000000
-10.0000000000 15.0000000000 0.0000000000 1.0000000000 0.0000000000 29.3981137764 0.0000000000 0.0000000000
20.0000000000 15.0000000000 0.0000000000 1.0317164212 0.0000000000 0.0232078204 0.0000000000 0.0000000000
20.0000000000 -15.0000000000 0.0000000000 1.0317835157 0.0000000000 0.0247318244 0.0000000000 0.0000000000
-10.0000000000 -15.0000000000 0.0000000000 1.0000000000 0.0000000000 37.0971449393 0.0000000000 0.0000000000
0.4213434593 -0.2852688455 0.0000000000 0.0012211849 0.0012211849 -400.5636944919 0.0548175232 0.0548175232
0.4338033849 -0.2713261822 0.0000000000 0.0012211849 0.0012211849 -396.2614206728 0.0548175232 0.0548175232
0.4457332646 -0.2569273775 0.0000000000 0.0012211849 0.0012211849 -392.2920683436 0.0548175232 0.0548175232
0.4571164132 -0.2420925694 0.0000000000 0.0012211849 0.0012211849 -388.5503476527 0.0548175232 0.0548175232
0.4679369105 -0.2268425056 0.0000000000 0.0012211849 0.0012211849 -385.5122243619 0.0548175232 0.0548175232
0.4781796229 -0.2111985148 0.0000000000 0.0012211849 0.0012211849 -383.3777808742 0.0548175232 0.0548175232
0.4878302252 -0.1951824766 0.0000000000 0.0012211849 0.0012211849 -382.4467439937 0.0548175232 0.0548175232
0.4968752200 -0.1788167907 0.0000000000 0.0012211849 0.0012211849 -382.9056732175 0.0548175232 0.0548175232
0.5053019572 -0.1621243461 0.0000000000 0.0012211849 0.0012211849 -384.9045923870 0.0548175232 0.0548175232
0.5130986512 -0.1451284887 0.0000000000 0.0012211849 0.0012211849 -388.5081395396 0.0548175232 0.0548175232
0.5202543976 -0.1278529888 0.0000000000 0.0012211849 0.0012211849 -393.7148985039 0.0548175232 0.0548175232
0.5267591884 -0.1103220076 0.0000000000 0.0012211849 0.0012211849 -400.4504012405 0.0548175232 0.0548175232
0.5326039261 -0.0925600638 0.0000000000 0.0012211849 0.0012211849 -408.5756914187 0.0548175232 0.0548175232
0.5377804364 -0.0745919992 0.0000000000 0.0012211849 0.0012211849 -417.8897932862 0.0548175232 0.0548175232
0.5422814793 -0.0564429436 0.0000000000 0.0012211849 0.0012211849 -428.1363828506 0.0548175232 0.0548175232
0.5461007598 -0.0381382802 0.0000000000 0.0012211849 0.0012211849 -439.0108192541 0.0548175232 0.0548175232
0.5492329363 -0.0197036097 0.0000000000 0.0012211849 0.0012211849 -450.1711480060 0.0548175232 0.0548175232
0.5516736281 -0.0011647147 0.0000000000 0.0012211849 0.0012211849 -461.2527385367 0.0548175232 0.0548175232
0.5534194218 0.0174524766 0.0000000000 0.0012211849 0.0012211849 -471.8871480429 0.0548175232 0.0548175232
0.5544678756 0.0361219262 0.0000000000 0.0012211849 0.0012211849 -481.7238554426 0.0548175232 0.0548175232
0.5548175232 0.0548175234 0.0000000000 0.0012211849 0.0012211849 -490.4529771583 0.0548175232 0.0548175232
0.5544678755 0.0735131205 0.0000000000 0.0012211849 0.0012211849 -497.8262049642 0.0548175232 0.0548175232
0.5534194217 0.0921825701 0.0000000000 0.0012211849 0.0012211849 -503.6732192554 0.0548175232 0.0548175232
0.5516736281 0.1107997614 0.0000000000 0.0012211849 0.0012211849 -507.9112363147 0.0548175232 0.0548175232
0.5492329362 0.1293386564 0.0000000000 0.0012211849 0.0012211849 -510.5463637096 0.0548175232 0.0548175232
0.5461007597 0.1477733269 0.0000000000 0.0012211849 0.0012211849 -511.6666562510 0.0548175232 0.0548175232
0.5422814792 0.1660779903 0.0000000000 0.0012211849 0.0012211849 -511.4280952037 0.0548175232 0.0548175232
0.5377804363 0.1842270458 0.0000000000 0.0012211849 0.0012211849 -510.0356526685 0.0548175232 0.0548175232
0.5326039260 0.2021951105 0.0000000000 0.0012211849 0.0012211849 -507.7223501695 0.0548175232 0.0548175232
0.5267591883 0.2199570543 0.0000000000 0.0012211849 0.0012211849 -504.7290342512 0.0548175232 0.0548175232
0.5202543974 0.2374880355 0.0000000000 0.0012211849 0.0012211849 -501.2877920306 0.0548175232 0.0548175232
0.5130986510 0.2547635354 0.0000000000 0.0012211849 0.0012211849 -497.6104362947 0.0548175232 0.0548175232
0.5053019571 0.2717593928 0.0000000000 0.0012211849 0.0012211849 -493.8844939627 0.0548175232 0.0548175232
0.4968752199 0.2884518374 0.0000000000 0.0012211849 0.0012211849 -490.2753425727 0.0548175232 0.0548175232
0.4878302250 0.3048175232 0.0000000000 0.0012211849 0.0012211849 -486.9371886402 0.0548175232 0.0548175232
0.4781796227 0.3208335615 0.0000000000 0.0012211849 0.0012211849 -484.0245528578 0.0548175232 0.0548175232
0.4679369103 0.3364775523 0.0000000000 0.0012211849 0.0012211849 -481.7082520304 0.0548175232 0.0548175232
0.4571164130 0.3517276160 0.0000000000 0.0012211849 0.0012211849 -480.1731984245 0.0548175232 0.0548175232
0.4457332643 0.3665624241 0.0000000000 0.0012211849 0.0012211849 -479.6105093948 0.0548175232 0.0548175232
0.4338033847 0.3809612288 0.0000000000 0.0012211849 0.0012211849 -480.1872353460 0.0548175232 0.0548175232
0.4213434590 0.3949038921 0.0000000000 0.0012211849 0.0012211849 -481.9769416278 0.0548175232 0.0548175232
0.3934583089 0.4226794785 0.0000000000 0.0012211849 0.0012211849 -489.7381583763 0.0548175232 0.0548175232
0.3779671420 0.4363595573 0.0000000000 0.0012211849 0.0012211849 -495.7972421732 0.0548175232 0.0548175232
0.3619238794 0.4493877779 0.0000000000 0.0012211849 0.0012211849 -502.8303080375 0.0548175232 0.0548175232
0.3453559308 0.4617418818 0.0000000000 0.0012211849 0.0012211849 -510.8255858205 0.0548175232 0.0548175232
0.3282916022 0.4734007623 0.0000000000 0.0012211849 0.0012211849 -519.7049859192 0.0548175232 0.0548175232
0.3107600476 0.4843445004 0.0000000000 0.0012211849 0.0012211849 -529.5610965178 0.0548175232 0.0548175232
0.2927912196 0.4945543988 0.0000000000 0.0012211849 0.0012211849 -540.4844791680 0.0548175232 0.0548175232
0.2744158175 0.5040130141 0.0000000000 0.0012211849 0.0012211849 -552.5851618977 0.0548175232 0.0548175232
0.2556652354 0.5127041865 0.0000000000 0.0012211849 0.0012211849 -565.9200986225 0.0548175232 0.0548175232
0.2365715084 0.5206130672 0.0000000000 0.0012211849 0.0012211849 -580.4959407945 0.0548175232 0.0548175232
0.2171672577 0.5277261440 0.0000000000 0.0012211849 0.0012211849 -596.2498389826 0.0548175232 0.0548175232
0.1974856352 0.5340312644 0.0000000000 0.0012211849 0.0012211849 -613.0519091483 0.0548175232 0.0548175232
0.1775602666 0.5395176561 0.0000000000 0.0012211849 0.0012211849 -630.6981168743 0.0548175232 0.0548175232
0.1574251942 0.5441759458 0.0000000000 0.0012211849 0.0012211849 -648.9098168556 0.0548175232 0.0548175232
0.1371148182 0.5479981749 0.0000000000 0.0012211849 0.0012211849 -667.3331898423 0.0548175232 0.0548175232
0.1166638387 0.5509778130 0.0000000000 0.0012211849 0.0012211849 -685.5448436103 0.0548175232 0.0548175232
0.0961071958 0.5531097697 0.0000000000 0.0012211849 0.0012211849 -703.0614371015 0.0548175232 0.0548175232
0.0754800102 0.5543904023 0.0000000000 0.0012211849 0.0012211849 -719.3543654278 0.0548175232 0.0548175232
0.0548175230 0.5548175232 0.0000000000 0.0012211849 0.0012211849 -733.8677371894 0.0548175232 0.0548175232
0.0341550359 0.5543904023 0.0000000000 0.0012211849 0.0012211849 -746.0386772713 0.0548175232 0.0548175232
0.0135278503 0.5531097696 0.0000000000 0.0012211849 0.0012211849 -755.3181888630 0.0548175232 0.0548175232
-0.0070287926 0.5509778130 0.0000000000 0.0012211849 0.0012211849 -761.1911778702 0.0548175232 0.0548175232
-0.0274797721 0.5479981748 0.0000000000 0.0012211849 0.0012211849 -763.1942908656 0.0548175232 0.0548175232
-0.0477901481 0.5441759458 0.0000000000 0.0012211849 0.0012211849 -760.9306528156 0.0548175232 0.0548175232
-0.0679252205 0.5395176561 0.0000000000 0.0012211849 0.0012211849 -754.0809466393 0.0548175232 0.0548175232
-0.0878505891 0.5340312643 0.0000000000 0.0012211849 0.0012211849 -742.4106868860 0.0548175232 0.0548175232
-0.1075322116 0.5277261440 0.0000000000 0.0012211849 0.0012211849 -725.7738535869 0.0548175232 0.0548175232
-0.1269364622 0.5206130671 0.0000000000 0.0012211849 0.0012211849 -704.1132924182 0.0548175232 0.0548175232
-0.1460301893 0.5127041864 0.0000000000 0.0012211849 0.0012211849 -677.4584232282 0.0548175232 0.0548175232
-0.1647807714 0.5040130140 0.0000000000 0.0012211849 0.0012211849 -645.9208519015 0.0548175232 0.0548175232
-0.1831561735 0.4945543987 0.0000000000 0.0012211849 0.0012211849 -609.6884629152 0.0548175232 0.0548175232
-0.2011250015 0.4843445003 0.0000000000 0.0012211849 0.0012211849 -569.0185052721 0.0548175232 0.0548175232
-0.2186565560 0.4734007622 0.0000000000 0.0012211849 0.0012211849 -524.2300914273 0.0548175232 0.0548175232
-0.2357208847 0.4617418817 0.0000000000 0.0012211849 0.0012211849 -475.6964255341 0.0548175232 0.0548175232
-0.2522888333 0.4493877778 0.0000000000 0.0012211849 0.0012211849 -423.8369787388 0.0548175232 0.0548175232
-0.2683320959 0.4363595572 0.0000000000 0.0012211849 0.0012211849 -369.1097483788 0.0548175232 0.0548175232
-0.2838232628 0.4226794784 0.0000000000 0.0012211849 0.0012211849 -312.0036839857 0.0548175232 0.0548175232
-0.3130444323 0.3934583088 0.0000000000 0.0012211849 0.0012211849 -192.7218047043 0.0548175232 0.0548175232
-0.3267245111 0.3779671420 0.0000000000 0.0012211849 0.0012211849 -131.6139982884 0.0548175232 0.0548175232
-0.3397527316 0.3619238794 0.0000000000 0.0012211849 0.0012211849 -70.2503659789 0.0548175232 0.0548175232
-0.3521068356 0.3453559307 0.0000000000 0.0012211849 0.0012211849 -9.1710629955 0.0548175232 0.0548175232
-0.3637657161 0.3282916021 0.0000000000 0.0012211849 0.0012211849 51.0913725929 0.0548175232 0.0548175232
-0.3747094541 0.3107600475 0.0000000000 0.0012211849 0.0012211849 110.0168656982 0.0548175232 0.0548175232
-0.3849193525 0.2927912195 0.0000000000 0.0012211849 0.0012211849 167.1022143609 0.0548175232 0.0548175232
-0.3943779679 0.2744158174 0.0000000000 0.0012211849 0.0012211849 221.8651214489 0.0548175232 0.0548175232
-0.4030691402 0.2556652353 0.0000000000 0.0012211849 0.0012211849 273.8479013201 0.0548175232 0.0548175232
-0.4109780209 0.2365715083 0.0000000000 0.0012211849 0.0012211849 322.6209001048 0.0548175232 0.0548175232
-0.4180910978 0.2171672576 0.0000000000 0.0012211849 0.0012211849 367.7856499968 0.0548175232 0.0548175232
-0.4243962181 0.1974856351 0.0000000000 0.0012211849 0.0012211849 408.9777619087 0.0548175232 0.0548175232
-0.4298826099 0.1775602665 0.0000000000 0.0012211849 0.0012211849 445.8695498522 0.0548175232 0.0548175232
-0.4345408996 0.1574251941 0.0000000000 0.0012211849 0.0012211849 478.1723747296 0.0548175232 0.0548175232
-0.4383631286 0.1371148181 0.0000000000 0.0012211849 0.0012211849 505.6386938024 0.0548175232 0.0548175232
-0.4413427667 0.1166638386 0.0000000000 0.0012211849 0.0012211849 528.0638034046 0.0548175232 0.0548175232
-0.4434747234 0.0961071957 0.0000000000 0.0012211849 0.0012211849 545.2872651447 0.0548175232 0.0548175232
-0.4447553561 0.0754800101 0.0000000000 0.0012211849 0.0012211849 557.1940088518 0.0548175232 0.0548175232
-0.4451824768 0.0548175229 0.0000000000 0.0012211849 0.0012211849 563.7151081958 0.0548175232 0.0548175232
-0.4447553560 0.0341550358 0.0000000000 0.0012211849 0.0012211849 564.8282268917 0.0548175232 0.0548175232
-0.4434747233 0.0135278502 0.0000000000 0.0012211849 0.0012211849 560.5577345674 0.0548175232 0.0548175232
-0.4413427667 -0.0070287927 0.0000000000 0.0012211849 0.0012211849 550.9744918442 0.0548175232 0.0548175232
-0.4383631285 -0.0274797722 0.0000000000 0.0012211849 0.0012211849 536.1953041933 0.0548175232 0.0548175232
-0.4345408995 -0.0477901482 0.0000000000 0.0012211849 0.0012211849 516.3820439671 0.0548175232 0.0548175232
-0.4298826098 -0.0679252206 0.0000000000 0.0012211849 0.0012211849 491.7404399725 0.0548175232 0.0548175232
-0.4243962180 -0.0878505892 0.0000000000 0.0012211849 0.0012211849 462.5185342066 0.0548175232 0.0548175232
-0.4180910976 -0.1075322117 0.0000000000 0.0012211849 0.0012211849 429.0048059098 0.0548175232 0.0548175232
-0.4109780208 -0.1269364623 0.0000000000 0.0012211849 0.0012211849 391.5259637744 0.0548175232 0.0548175232
-0.4030691401 -0.1460301894 0.0000000000 0.0012211849 0.0012211849 350.4444077101 0.0548175232 0.0548175232
-0.3943779677 -0.1647807715 0.0000000000 0.0012211849 0.0012211849 306.1553617515 0.0548175232 0.0548175232
-0.3849193523 -0.1831561736 0.0000000000 0.0012211849 0.0012211849 259.0836792706 0.0548175232 0.0548175232
-0.3747094539 -0.2011250016 0.0000000000 0.0012211849 0.0012211849 209.6803205303 0.0548175232 0.0548175232
-0.3637657158 -0.2186565561 0.0000000000 0.0012211849 0.0012211849 158.4185007905 0.0548175232 0.0548175232
-0.3521068353 -0.2357208848 0.0000000000 0.0012211849 0.0012211849 105.7895048087 0.0548175232 0.0548175232
-0.3397527314 -0.2522888334 0.0000000000 0.0012211849 0.0012211849 52.2981609526 0.0548175232 0.0548175232
-0.3267245108 -0.2683320960 0.0000000000 0.0012211849 0.0012211849 -1.5420343595 0.0548175232 0.0548175232
-0.3130444320 -0.2838232628 0.0000000000 0.0012211849 0.0012211849 -55.2141529531 0.0548175232 0.0548175232
-0.2838232625 -0.3130444324 0.0000000000 0.0012211849 0.0012211849 -160.0033207935 0.0548175232 0.0548175232
-0.2683320956 -0.3267245111 0.0000000000 0.0012211849 0.0012211849 -210.1217423198 0.0548175232 0.0548175232
-0.2522888330 -0.3397527317 0.0000000000 0.0012211849 0.0012211849 -258.0879598737 0.0548175232 0.0548175232
-0.2357208843 -0.3521068356 0.0000000000 0.0012211849 0.0012211849 -303.4596259139 0.0548175232 0.0548175232
-0.2186565557 -0.3637657161 0.0000000000 0.0012211849 0.0012211849 -345.8301994136 0.0548175232 0.0548175232
-0.2011250012 -0.3747094542 0.0000000000 0.0012211849 0.0012211849 -384.8365619654 0.0548175232 0.0548175232
-0.1831561731 -0.3849193526 0.0000000000 0.0012211849 0.0012211849 -420.1667034063 0.0548175232 0.0548175232
-0.1647807710 -0.3943779679 0.0000000000 0.0012211849 0.0012211849 -451.5672732649 0.0548175232 0.0548175232
-0.1460301889 -0.4030691403 0.0000000000 0.0012211849 0.0012211849 -478.8507200635 0.0548175232 0.0548175232
-0.1269364619 -0.4109780210 0.0000000000 0.0012211849 0.0012211849 -501.9016595439 0.0548175232 0.0548175232
-0.1075322112 -0.4180910978 0.0000000000 0.0012211849 0.0012211849 -520.6820336349 0.0548175232 0.0548175232
-0.0878505887 -0.4243962182 0.0000000000 0.0012211849 0.0012211849 -535.2345571743 0.0548175232 0.0548175232
-0.0679252201 -0.4298826099 0.0000000000 0.0012211849 0.0012211849 -545.6839164908 0.0548175232 0.0548175232
-0.0477901477 -0.4345408996 0.0000000000 0.0012211849 0.0012211849 -552.2352025110 0.0548175232 0.0548175232
-0.0274797717 -0.4383631286 0.0000000000 0.0012211849 0.0012211849 -555.1691516052 0.0548175232 0.0548175232
-0.0070287922 -0.4413427668 0.0000000000 0.0012211849 0.0012211849 -554.8339420627 0.0548175232 0.0548175232
0.0135278507 -0.4434747234 0.0000000000 0.0012211849 0.0012211849 -551.6335582533 0.0548175232 0.0548175232
0.0341550363 -0.4447553561 0.0000000000 0.0012211849 0.0012211849 -546.0130647365 0.0548175232 0.0548175232
0.0548175235 -0.4451824768 0.0000000000 0.0012211849 0.0012211849 -538.4415047281 0.0548175232 0.0548175232
0.0754800106 -0.4447553560 0.0000000000 0.0012211849 0.0012211849 -529.3934663947 0.0548175232 0.0548175232
0.0961071962 -0.4434747233 0.0000000000 0.0012211849 0.0012211849 -519.3306342665 0.0548175232 0.0548175232
0.1166638391 -0.4413427667 0.0000000000 0.0012211849 0.0012211849 -508.6846927545 0.0548175232 0.0548175232
0.1371148186 -0.4383631285 0.0000000000 0.0012211849 0.0012211849 -497.8429666781 0.0548175232 0.0548175232
0.1574251946 -0.4345408994 0.0000000000 0.0012211849 0.0012211849 -487.1377519441 0.0548175232 0.0548175232
0.1775602670 -0.4298826097 0.0000000000 0.0012211849 0.0012211849 -476.8403583529 0.0548175232 0.0548175232
0.1974856356 -0.4243962180 0.0000000000 0.0012211849 0.0012211849 -467.1596582766 0.0548175232 0.0548175232
0.2171672581 -0.4180910976 0.0000000000 0.0012211849 0.0012211849 -458.2459355481 0.0548175232 0.0548175232
0.2365715087 -0.4109780208 0.0000000000 0.0012211849 0.0012211849 -450.1962185376 0.0548175232 0.0548175232
0.2556652358 -0.4030691400 0.0000000000 0.0012211849 0.0012211849 -443.0626976282 0.0548175232 0.0548175232
0.2744158179 -0.3943779676 0.0000000000 0.0012211849 0.0012211849 -436.8500214820 0.0548175232 0.0548175232
0.2927912200 -0.3849193523 0.0000000000 0.0012211849 0.0012211849 -431.5197834846 0.0548175232 0.0548175232
0.3107600480 -0.3747094539 0.0000000000 0.0012211849 0.0012211849 -426.9604319431 0.0548175232 0.0548175232
0.3282916025 -0.3637657158 0.0000000000 0.0012211849 0.0012211849 -423.0247016481 0.0548175232 0.0548175232
0.3453559311 -0.3521068353 0.0000000000 0.0012211849 0.0012211849 -419.4458919219 0.0548175232 0.0548175232
0.3619238798 -0.3397527313 0.0000000000 0.0012211849 0.0012211849 -416.0597001994 0.0548175232 0.0548175232
0.3779671424 -0.3267245107 0.0000000000 0.0012211849 0.0012211849 -412.4392030073 0.0548175232 0.0548175232
0.3934583092 -0.3130444319 0.0000000000 0.0012211849 0.0012211849 -408.7759608304 0.0548175232 0.0548175232
0.5954305400 -0.4647576992 0.0000000000 0.1733581020 0.0594553147 -407.8391464460 0.0456416358 0.0453718537
0.6143260413 -0.4439962558 0.0000000000 0.1064997781 0.0732445439 -407.3832277921 0.0458472486 0.0452193023
0.6324370584 -0.4225354572 0.0000000000 0.0463712860 0.0896139211 -406.0528473694 0.0460634463 0.0450818938
0.6497373966 -0.4004047611 0.0000000000 -0.0063727650 0.1082723060 -404.0694757625 0.0462890615 0.0449603776
0.6662019566 -0.3776346276 0.0000000000 -0.0509238175 0.1286345722 -401.8125757218 0.0465228756 0.0448554155
0.6818067745 -0.3542564791 0.0000000000 -0.0867652624 0.1500427371 -399.7647874570 0.0467636248 0.0447675779
0.6965290607 -0.3303026587 0.0000000000 -0.1140501446 0.1719891837 -398.4254820548 0.0470100076 0.0446973409
0.7103472366 -0.3058063867 0.0000000000 -0.1337200204 0.1942713146 -398.2265130449 0.0472606913 0.0446450842
0.7232409703 -0.2808017155 0.0000000000 -0.1473010924 0.2170204339 -399.4824058279 0.0475143192 0.0446110884
0.7351912102 -0.2553234834 0.0000000000 -0.1564761543 0.2405936872 -402.3874400541 0.0477695181 0.0445955344
0.7461802173 -0.2294072661 0.0000000000 -0.1626346304 0.2653767256 -407.0439852246 0.0480249057 0.0445985018
0.7561915953 -0.2030893275 0.0000000000 -0.1665848748 0.2915797303 -413.4925496542 0.0482790975 0.0446199686
0.7652103193 -0.1764065688 0.0000000000 -0.1685029525 0.3191010364 -421.7215425857 0.0485307149 0.0446598116
0.7732227620 -0.1493964764 0.0000000000 -0.1680773770 0.3474933707 -431.6527330053 0.0487783922 0.0447178070
0.7802167183 -0.1220970687 0.0000000000 -0.1647509146 0.3760244915 -443.1132079377 0.0490207840 0.0447936314
0.7861814277 -0.0945468413 0.0000000000 -0.1579626809 0.4037961362 -455.8103904403 0.0492565727 0.0448868637
0.7911075948 -0.0667847120 0.0000000000 -0.1473286363 0.4298778955 -469.3240499777 0.0494844751 0.0449969873
0.7949874071 -0.0388499637 0.0000000000 -0.1327384355 0.4534212176 -483.1217397589 0.0497032496 0.0451233931
0.7978145509 -0.0107821876 0.0000000000 -0.1143760962 0.4737347433 -496.5958045176 0.0499117030 0.0452653822
0.7995842251 0.0173787750 0.0000000000 -0.0926869922 0.4903178096 -509.1141878799 0.0501086965 0.0454221704
0.8002931525 0.0455928920 0.0000000000 -0.0683165538 0.5028594785 -520.0750625254 0.0502931525 0.0455928917
0.7999395884 0.0738199992 0.0000000000 -0.0420415807 0.5112144923 -528.9563404302 0.0504640598 0.0457766032
0.7985233274 0.1020198607 0.0000000000 -0.0147080098 0.5153663885 -535.3539887254 0.0506204795 0.0459722903
0.7960457074 0.1301522291 0.0000000000 0.0128173831 0.5153840801 -539.0064107758 0.0507615500 0.0461788717
0.7925096113 0.1581769057 0.0000000000 0.0396782404 0.5113742511 -539.8051244245 0.0508864916 0.0463952058
0.7879194660 0.1860538018 0.0000000000 0.0650426967 0.5034302926 -537.7942236310 0.0509946111 0.0466200962
0.7822812392 0.2137429990 0.0000000000 0.0881034354 0.4915808738 -533.1623991591 0.0510853051 0.0468522983
0.7756024337 0.2412048104 0.0000000000 0.1080722301 0.4757478270 -526.2312260252 0.0511580640 0.0470905263
0.7678920787 0.2683998407 0.0000000000 0.1241846575 0.4557313963 -517.4416058446 0.0512124744 0.0473334596
0.7591607194 0.2952890471 0.0000000000 0.1357359095 0.4312452658 -507.3368437716 0.0512482218 0.0475797504
0.7494204034 0.3218337991 0.0000000000 0.1421646650 0.4020164801 -496.5371446821 0.0512650920 0.0478280306
0.7386846649 0.3479959378 0.0000000000 0.1431844533 0.3679420785 -485.6988739080 0.0512629731 0.0480769194
0.7269685064 0.3737378352 0.0000000000 0.1389488115 0.3292620276 -475.4563088119 0.0512418555 0.0483250307
0.7142883780 0.3990224520 0.0000000000 0.1302793415 0.2866917921 -466.3569451998 0.0512018330 0.0485709806
0.7006621544 0.4238133953 0.0000000000 0.1190775651 0.2414846543 -458.8181371925 0.0511431016 0.0488133952
0.6861091087 0.4480749752 0.0000000000 0.1089488195 0.1954317946 -453.1288160605 0.0510659593 0.0490509177
0.6706498851 0.4717722596 0.0000000000 0.1055666568 0.1507615236 -449.4773680987 0.0509708044 0.0492822159
0.6543064684 0.4948711293 0.0000000000 0.1159079994 0.1098059020 -447.9479468496 0.0508581336 0.0495059900
0.6371021513 0.5173383305 0.0000000000 0.1461484488 0.0744135491 -448.4653678390 0.0507285395 0.0497209791
0.6190614999 0.5391415269 0.0000000000 0.1994047885 0.0454210697 -450.7544568146 0.0505827077 0.0499259684
0.6002103167 0.5602493496 0.0000000000 0.2749115016 0.0226023798 -454.3825636675 0.0504214129 0.0501197962
0.5579963940 0.6022794861 0.0000000000 0.4885473330 -0.0088950101 -464.3905102614 0.0500352154 0.0504865530
0.5345340331 0.6229672505 0.0000000000 0.6178690833 -0.0177019927 -469.9414016114 0.0498096048 0.0506541993
0.5102297017 0.6426584991 0.0000000000 0.7503165064 -0.0214894439 -475.2632243187 0.0495701672 0.0508031170
0.4851260924 0.6613187861 0.0000000000 0.8797458058 -0.0202317213 -480.1556543720 0.0493184809 0.0509322481
0.4592673273 0.6789155251 0.0000000000 1.0006049092 -0.0141287991 -484.4488950972 0.0490562088 0.0510406663
0.4326988745 0.6954180497 0.0000000000 1.1084332698 -0.0037119153 -488.0048844106 0.0487850877 0.0511275838
0.4054674614 0.7107976704 0.0000000000 1.2003412964 0.0102333645 -490.7348640183 0.0485069168 0.0511923569
0.3776209869 0.7250277273 0.0000000000 1.2751838455 0.0268271046 -492.6085266568 0.0482235454 0.0512344908
0.3492084297 0.7380836388 0.0000000000 1.3333789963 0.0452480018 -493.6435366630 0.0479368613 0.0512536438
0.3202797554 0.7499429457 0.0000000000 1.3764904975 0.0648349509 -493.8831678566 0.0476487776 0.0512496296
0.2908858219 0.7605853510 0.0000000000 1.4067320763 0.0851276424 -493.3725057959 0.0473612201 0.0512224197
0.2610782823 0.7699927555 0.0000000000 1.4265179090 0.1058566174 -492.1389914231 0.0470761143 0.0511721436
0.2309094873 0.7781492885 0.0000000000 1.4381284443 0.1269018061 -490.1794227348 0.0467953721 0.0510990890
0.2004323857 0.7850413339 0.0000000000 1.4435106583 0.1482391483 -487.4538643124 0.0465208792 0.0510036999
0.1697004242 0.7906575521 0.0000000000 1.4441969441 0.1698901885 -483.8859431550 0.0462544816 0.0508865745
0.1387674468 0.7949888965 0.0000000000 1.4413095652 0.1918828534 -479.3682068627 0.0459979735 0.0507484617
0.1076875933 0.7980286258 0.0000000000 1.4356149937 0.2142257286 -473.7707237933 0.0457530843 0.0505902561
0.0765151978 0.7997723118 0.0000000000 1.4275988221 0.2368943723 -466.9510671367 0.0455214672 0.0504129930
0.0453046869 0.8002178415 0.0000000000 1.4175416001 0.2598265864 -458.7641753066 0.0453046871 0.0502178415
0.0141104788 0.7993654156 0.0000000000 1.4055850034 0.2829234342 -449.0711110982 0.0451042097 0.0500060968
-0.0170131180 0.7972175419 0.0000000000 1.3917843972 0.3060534236 -437.7462519619 0.0449213913 0.0497791721
-0.0480120046 0.7937790238 0.0000000000 1.3761478632 0.3290580908 -424.6828204789 0.0447574690 0.0495385890
-0.0788323909 0.7890569448 0.0000000000 1.3586636754 0.3517579344 -409.7968833709 0.0446135519 0.0492859673
-0.1094208939 0.7830606483 0.0000000000 1.3393187654 0.3739581554 -393.0300389205 0.0444906129 0.0490230143
-0.1397246340 0.7758017126 0.0000000000 1.3181105678 0.3954539722 -374.3510238817 0.0443894815 0.0487515132
-0.1696913303 0.7672939228 0.0000000000 1.2950541937 0.4160354441 -353.7564435675 0.0443108381 0.0484733110
-0.1992693938 0.7575532369 0.0000000000 1.2701863943 0.4354918119 -331.2707905365 0.0442552083 0.0481903057
-0.2284080189 0.7465977492 0.0000000000 1.2435673550 0.4536153879 -306.9458823697 0.0442229592 0.0479044332
-0.2570572723 0.7344476491 0.0000000000 1.2152810325 0.4702050283 -280.8598223639 0.0442142964 0.0476176542
-0.2851681800 0.7211251763 0.0000000000 1.1854345156 0.4850692164 -253.1155685097 0.0442292619 0.0473319399
-0.3126928112 0.7066545724 0.0000000000 1.1541567274 0.4980287727 -223.8391838072 0.0442677337 0.0470492591
-0.3395843606 0.6910620290 0.0000000000 1.1215966851 0.5089192086 -193.1778325259 0.0443294264 0.0467715634
-0.3657972263 0.6743756326 0.0000000000 1.0879214639 0.5175927337 -161.2975805927 0.0444138924 0.0465007740
-0.3912870866 0.6566253059 0.0000000000 1.0533139647 0.5239199275 -128.3810527115 0.0445205251 0.0462387680
-0.4160109721 0.6378427469 0.0000000000 1.0179705644 0.5277910864 -94.6249934593 0.0446485626 0.0459873649
-0.4399273356 0.6180613647 0.0000000000 0.9820986997 0.5291172614 -60.2377742662 0.0447970930 0.0457483137
-0.4629961182 0.5973162131 0.0000000000 0.9459144315 0.5278309980 -25.4368829283 0.0449650606 0.0455232802
-0.5064385234 0.5530826221 0.0000000000 0.8735015376 0.5172613138 44.5053194378 0.0453544097 0.0451214435
-0.5267400206 0.5296718804 0.0000000000 0.8377265496 0.5079533121 79.1883091663 0.0455730307 0.0449474522
-0.5460497950 0.5054526163 0.0000000000 0.8025418654 0.4959833984 113.3730237468 0.0458055872 0.0447930819
-0.5643361059 0.4804670291 0.0000000000 0.7681713924 0.4813935511 146.8326781595 0.0460504322 0.0446594178
-0.5815690264 0.4547585193 0.0000000000 0.7348340986 0.4642464705 179.3453067314 0.0463058324 0.0445474009
-0.5977204856 0.4283716089 0.0000000000 0.7027420972 0.4446247657 210.6957211108 0.0465699803 0.0444578223
-0.6127643066 0.4013518609 0.0000000000 0.6720988648 0.4226299999 240.6773316553 0.0468410069 0.0443913163
-0.6266762411 0.3737457979 0.0000000000 0.6430975999 0.3983816081 269.0938270760 0.0471169954 0.0443483565
-0.6394340004 0.3456008199 0.0000000000 0.6159197264 0.3720157029 295.7607096857 0.0473959946 0.0443292516
-0.6510172830 0.3169651216 0.0000000000 0.5907335481 0.3436837834 320.5066851442 0.0476760332 0.0443341439
-0.6614077981 0.2878876091 0.0000000000 0.5676930591 0.3135513597 343.1749064671 0.0479551333 0.0443630075
-0.6705892867 0.2584178166 0.0000000000 0.5469369151 0.2817965049 363.6240729300 0.0482313252 0.0444156487
-0.6785475381 0.2286058224 0.0000000000 0.5285875692 0.2486083429 381.7293854584 0.0485026614 0.0444917073
-0.6852704039 0.1985021659 0.0000000000 0.5127505616 0.2141854702 397.3833597107 0.0487672302 0.0445906595
-0.6907478078 0.1681577634 0.0000000000 0.4995139327 0.1787343136 410.4964943595 0.0490231698 0.0447118210
-0.6949717535 0.1376238256 0.0000000000 0.4889477210 0.1424674336 420.9977855229 0.0492686813 0.0448543524
-0.6979363278 0.1069517741 0.0000000000 0.4811035119 0.1056018026 428.8350751288 0.0495020420 0.0450172653
-0.6996377018 0.0761931596 0.0000000000 0.4760140493 0.0683571034 433.9752293031 0.0497216170 0.0451994292
-0.7000741284 0.0453995796 0.0000000000 0.4736929620 0.0309540847 436.4041607757 0.0499258716 0.0453995799
-0.6992459373 0.0146225974 0.0000000000 0.4741346737 -0.0063870186 436.1267253655 0.0501133814 0.0456163284
-0.6971555267 -0.0160863383 0.0000000000 0.4773145180 -0.0434480094 433.1665100115 0.0502828430 0.0458481711
-0.6938073522 -0.0466759729 0.0000000000 0.4831890801 -0.0800142134 427.5655248879 0.0504330826 0.0460935008
-0.6892079130 -0.0770953251 0.0000000000 0.4916967737 -0.1158759520 419.3838050618 0.0505630645 0.0463506179
-0.6833657357 -0.1072937642 0.0000000000 0.5027585924 -0.1508300260 408.6989000160 0.0506718982 0.0466177427
-0.6762913550 -0.1372210871 0.0000000000 0.5162789653 -0.1846812005 395.6052310952 0.0507588443 0.0468930285
-0.6679972920 -0.1668275941 0.0000000000 0.5321466630 -0.2172436640 380.2133064179 0.0508233198 0.0471745744