 TITLE = "Tecplot data"
 VARIABLES = "X", "Y", "Z" "U", "V", "p", "dispX", "dispY"
 ZONE SOLUTIONTIME=147.900000, NODES=26114 , ELEMENTS=25916, DATAPACKING=POINT, ZONETYPE=FEQUADRILATERAL
3.1226440088 9.7802554211 0.0000000000 0.0000000000 0.0000000000 -1268.4163400861 2.7690906182 9.4267020305
3.1226440091 9.0731486401 0.0000000000 0.0000000000 0.0000000000 366.1274637305 2.7690906182 9.4267020305
2.4155372275 9.7802554209 0.0000000000 0.0000000000 0.0000000000 -2267.2004499526 2.7690906182 9.4267020305
2.4155372278 9.0731486397 0.0000000000 0.0000000000 0.0000000000 420.9299867370 2.7690906182 9.4267020305
3.3255681835 9.9196549877 0.0000000000 1.3093376802 -1.0018521259 -415.2105725535 2.7952380976 9.3893249018
3.2322197181 8.8421759906 0.0000000000 0.4580090317 0.3302420064 529.4703811063 2.7018896318 9.3725060761
2.2468036999 9.9532033191 0.0000000000 1.8582116375 1.4794299621 -1534.0157121270 2.7771337860 9.4228732333
2.2172464516 8.9085287687 0.0000000000 0.1750232493 -0.1070685246 421.1701123437 2.7475765372 9.4388588548
3.9968515286 10.1951987644 0.0000000000 1.3679121807 -0.1898291167 272.4995890943 2.9361913569 9.1345385926
3.4282021799 8.0244290948 0.0000000000 0.6547956789 0.4807148978 465.0818570540 2.3675420074 9.0850892658
1.7518583480 10.4479384722 0.0000000000 1.5719206653 0.7227745082 -136.2175176601 2.8125185201 9.3872783008
1.5423623889 8.4156039947 0.0000000000 0.6770546102 0.5454285811 507.0350195975 2.6030225601 9.4762641670
7.8804845245 10.8867421299 0.0000000000 1.7563154284 0.1411073653 225.0406929392 3.6804845245 7.5867421299
5.0375440992 3.9888945173 0.0000000000 0.6174539806 0.0248419973 436.9099346418 0.8375440992 7.2888945173
20.0000000000 4.7000000000 0.0000000000 0.7981835147 0.1972768553 -0.9760864834 0.0000000000 0.0000000000
20.0000000000 -4.7000000000 0.0000000000 0.6753074483 0.0687026441 -3.0724987919 0.0000000000 0.0000000000
-10.0000000000 15.0000000000 0.0000000000 1.0000000000 0.0000000000 357.6883582714 0.0000000000 0.0000000000
20.0000000000 15.0000000000 0.0000000000 1.7132707482 0.0000000000 -0.4081469074 0.0000000000 0.0000000000
20.0000000000 -15.0000000000 0.0000000000 1.7045225114 0.0000000000 -0.0777527601 0.0000000000 0.0000000000
-10.0000000000 -15.0000000000 0.0000000000 1.0000000000 0.0000000000 586.7570189956 0.0000000000 0.0000000000
3.1356165544 9.0866156618 0.0000000000 0.0000000000 0.0000000000 318.8870032699 2.7690906182 9.4267020305
3.1480764800 9.1005583251 0.0000000000 0.0000000000 0.0000000000 282.7816828075 2.7690906182 9.4267020305
3.1600063597 9.1149571298 0.0000000000 0.0000000000 0.0000000000 250.2514726965 2.7690906182 9.4267020305
3.1713895083 9.1297919379 0.0000000000 0.0000000000 0.0000000000 225.6114934297 2.7690906182 9.4267020305
3.1822100056 9.1450420017 0.0000000000 0.0000000000 0.0000000000 206.7147250479 2.7690906182 9.4267020305
3.1924527180 9.1606859925 0.0000000000 0.0000000000 0.0000000000 194.1401476733 2.7690906182 9.4267020305
3.2021033203 9.1767020307 0.0000000000 0.0000000000 0.0000000000 186.9920521238 2.7690906182 9.4267020305
3.2111483151 9.1930677166 0.0000000000 0.0000000000 0.0000000000 184.9961735391 2.7690906182 9.4267020305
3.2195750523 9.2097601612 0.0000000000 0.0000000000 0.0000000000 187.4896893626 2.7690906182 9.4267020305
3.2273717463 9.2267560186 0.0000000000 0.0000000000 0.0000000000 193.9376440131 2.7690906182 9.4267020305
3.2345274926 9.2440315185 0.0000000000 0.0000000000 0.0000000000 203.6684900893 2.7690906182 9.4267020305
3.2410322835 9.2615624997 0.0000000000 0.0000000000 0.0000000000 216.0064494893 2.7690906182 9.4267020305
3.2468770212 9.2793244435 0.0000000000 0.0000000000 0.0000000000 230.2025929545 2.7690906182 9.4267020305
3.2520535314 9.2972925082 0.0000000000 0.0000000000 0.0000000000 245.4745514316 2.7690906182 9.4267020305
3.2565545744 9.3154415637 0.0000000000 0.0000000000 0.0000000000 260.9935060816 2.7690906182 9.4267020305
3.2603738549 9.3337462271 0.0000000000 0.0000000000 0.0000000000 275.9021458533 2.7690906182 9.4267020305
3.2635060314 9.3521808976 0.0000000000 0.0000000000 0.0000000000 289.3189023081 2.7690906182 9.4267020305
3.2659467232 9.3707197926 0.0000000000 0.0000000000 0.0000000000 300.3518754189 2.7690906182 9.4267020305
3.2676925168 9.3893369839 0.0000000000 0.0000000000 0.0000000000 308.1098826550 2.7690906182 9.4267020305
3.2687409706 9.4080064335 0.0000000000 0.0000000000 0.0000000000 311.7173784229 2.7690906182 9.4267020305
3.2690906182 9.4267020307 0.0000000000 0.0000000000 0.0000000000 310.3296459999 2.7690906182 9.4267020305
3.2687409706 9.4453976278 0.0000000000 0.0000000000 0.0000000000 303.1500980513 2.7690906182 9.4267020305
3.2676925168 9.4640670774 0.0000000000 0.0000000000 0.0000000000 289.4485314055 2.7690906182 9.4267020305
3.2659467232 9.4826842687 0.0000000000 0.0000000000 0.0000000000 268.5805215406 2.7690906182 9.4267020305
3.2635060313 9.5012231637 0.0000000000 0.0000000000 0.0000000000 240.0070662465 2.7690906182 9.4267020305
3.2603738548 9.5196578342 0.0000000000 0.0000000000 0.0000000000 203.3143945160 2.7690906182 9.4267020305
3.2565545743 9.5379624976 0.0000000000 0.0000000000 0.0000000000 158.2312243628 2.7690906182 9.4267020305
3.2520535313 9.5561115532 0.0000000000 0.0000000000 0.0000000000 104.6463628416 2.7690906182 9.4267020305
3.2468770211 9.5740796178 0.0000000000 0.0000000000 0.0000000000 42.6151956277 2.7690906182 9.4267020305
3.2410322833 9.5918415616 0.0000000000 0.0000000000 0.0000000000 -27.6253855385 2.7690906182 9.4267020305
3.2345274925 9.6093725428 0.0000000000 0.0000000000 0.0000000000 -105.6807273599 2.7690906182 9.4267020305
3.2273717461 9.6266480427 0.0000000000 0.0000000000 0.0000000000 -190.9707278824 2.7690906182 9.4267020305
3.2195750521 9.6436439001 0.0000000000 0.0000000000 0.0000000000 -282.8342104917 2.7690906182 9.4267020305
3.2111483149 9.6603363447 0.0000000000 0.0000000000 0.0000000000 -380.4081550551 2.7690906182 9.4267020305
3.2021033201 9.6767020306 0.0000000000 0.0000000000 0.0000000000 -482.9646214161 2.7690906182 9.4267020305
3.1924527178 9.6927180688 0.0000000000 0.0000000000 0.0000000000 -589.3974166131 2.7690906182 9.4267020305
3.1822100053 9.7083620596 0.0000000000 0.0000000000 0.0000000000 -699.3039787726 2.7690906182 9.4267020305
3.1713895081 9.7236121233 0.0000000000 0.0000000000 0.0000000000 -811.0839808868 2.7690906182 9.4267020305
3.1600063594 9.7384469315 0.0000000000 0.0000000000 0.0000000000 -925.5107892920 2.7690906182 9.4267020305
3.1480764798 9.7528457362 0.0000000000 0.0000000000 0.0000000000 -1039.2650109822 2.7690906182 9.4267020305
3.1356165541 9.7667883994 0.0000000000 0.0000000000 0.0000000000 -1156.5504677633 2.7690906182 9.4267020305
3.1077314040 9.7945639858 0.0000000000 0.0000000000 0.0000000000 -1398.5288062614 2.7690906182 9.4267020305
3.0922402371 9.8082440646 0.0000000000 0.0000000000 0.0000000000 -1522.1718274054 2.7690906182 9.4267020305
3.0761969745 9.8212722852 0.0000000000 0.0000000000 0.0000000000 -1647.3754009267 2.7690906182 9.4267020305
3.0596290259 9.8336263891 0.0000000000 0.0000000000 0.0000000000 -1768.5709549527 2.7690906182 9.4267020305
3.0425646972 9.8452852696 0.0000000000 0.0000000000 0.0000000000 -1888.2221294371 2.7690906182 9.4267020305
3.0250331427 9.8562290077 0.0000000000 0.0000000000 0.0000000000 -2004.1679777363 2.7690906182 9.4267020305
3.0070643147 9.8664389061 0.0000000000 0.0000000000 0.0000000000 -2116.9594076898 2.7690906182 9.4267020305
2.9886889126 9.8758975214 0.0000000000 0.0000000000 0.0000000000 -2225.6076788807 2.7690906182 9.4267020305
2.9699383305 9.8845886938 0.0000000000 0.0000000000 0.0000000000 -2330.0312357027 2.7690906182 9.4267020305
2.9508446034 9.8924975745 0.0000000000 0.0000000000 0.0000000000 -2429.6498055697 2.7690906182 9.4267020305
2.9314403528 9.8996106513 0.0000000000 0.0000000000 0.0000000000 -2524.1881459339 2.7690906182 9.4267020305
2.9117587303 9.9059157717 0.0000000000 0.0000000000 0.0000000000 -2613.2171325004 2.7690906182 9.4267020305
2.8918333617 9.9114021635 0.0000000000 0.0000000000 0.0000000000 -2696.4142533219 2.7690906182 9.4267020305
2.8716982892 9.9160604531 0.0000000000 0.0000000000 0.0000000000 -2773.4160894661 2.7690906182 9.4267020305
2.8513879133 9.9198826822 0.0000000000 0.0000000000 0.0000000000 -2843.9016236687 2.7690906182 9.4267020305
2.8309369338 9.9228623203 0.0000000000 0.0000000000 0.0000000000 -2907.5462532734 2.7690906182 9.4267020305
2.8103802909 9.9249942770 0.0000000000 0.0000000000 0.0000000000 -2964.0487271639 2.7690906182 9.4267020305
2.7897531053 9.9262749097 0.0000000000 0.0000000000 0.0000000000 -3013.1183693499 2.7690906182 9.4267020305
2.7690906181 9.9267020305 0.0000000000 0.0000000000 0.0000000000 -3054.4850830215 2.7690906182 9.4267020305
2.7484281310 9.9262749097 0.0000000000 0.0000000000 0.0000000000 -3087.8977823900 2.7690906182 9.4267020305
2.7278009454 9.9249942770 0.0000000000 0.0000000000 0.0000000000 -3113.1299822076 2.7690906182 9.4267020305
2.7072443025 9.9228623203 0.0000000000 0.0000000000 0.0000000000 -3129.9823636794 2.7690906182 9.4267020305
2.6867933230 9.9198826821 0.0000000000 0.0000000000 0.0000000000 -3138.2876917342 2.7690906182 9.4267020305
2.6664829470 9.9160604531 0.0000000000 0.0000000000 0.0000000000 -3137.9150770128 2.7690906182 9.4267020305
2.6463478745 9.9114021634 0.0000000000 0.0000000000 0.0000000000 -3128.7749158201 2.7690906182 9.4267020305
2.6264225060 9.9059157717 0.0000000000 0.0000000000 0.0000000000 -3110.8234734984 2.7690906182 9.4267020305
2.6067408835 9.8996106513 0.0000000000 0.0000000000 0.0000000000 -3084.0672414982 2.7690906182 9.4267020305
2.5873366328 9.8924975744 0.0000000000 0.0000000000 0.0000000000 -3048.5666027418 2.7690906182 9.4267020305
2.5682429058 9.8845886937 0.0000000000 0.0000000000 0.0000000000 -3004.4387000120 2.7690906182 9.4267020305
2.5494923237 9.8758975214 0.0000000000 0.0000000000 0.0000000000 -2951.8593013523 2.7690906182 9.4267020305
2.5311169216 9.8664389060 0.0000000000 0.0000000000 0.0000000000 -2891.0636083683 2.7690906182 9.4267020305
2.5131480936 9.8562290076 0.0000000000 0.0000000000 0.0000000000 -2822.3460161435 2.7690906182 9.4267020305
2.4956165390 9.8452852695 0.0000000000 0.0000000000 0.0000000000 -2746.0589480609 2.7690906182 9.4267020305
2.4785522104 9.8336263890 0.0000000000 0.0000000000 0.0000000000 -2662.6109479310 2.7690906182 9.4267020305
2.4619842618 9.8212722851 0.0000000000 0.0000000000 0.0000000000 -2572.4642515462 2.7690906182 9.4267020305
2.4459409992 9.8082440645 0.0000000000 0.0000000000 0.0000000000 -2476.1320329286 2.7690906182 9.4267020305
2.4304498323 9.7945639857 0.0000000000 0.0000000000 0.0000000000 -2374.1754442469 2.7690906182 9.4267020305
2.4012286628 9.7653428162 0.0000000000 0.0000000000 0.0000000000 -2155.8543314600 2.7690906182 9.4267020305
2.3875485840 9.7498516493 0.0000000000 0.0000000000 0.0000000000 -2040.8216478506 2.7690906182 9.4267020305
2.3745203634 9.7338083867 0.0000000000 0.0000000000 0.0000000000 -1922.8194149329 2.7690906182 9.4267020305
2.3621662595 9.7172404380 0.0000000000 0.0000000000 0.0000000000 -1802.5913225657 2.7690906182 9.4267020305
2.3505073790 9.7001761094 0.0000000000 0.0000000000 0.0000000000 -1680.9009347557 2.7690906182 9.4267020305
2.3395636410 9.6826445549 0.0000000000 0.0000000000 0.0000000000 -1558.5239672316 2.7690906182 9.4267020305
2.3293537425 9.6646757268 0.0000000000 0.0000000000 0.0000000000 -1436.2398540219 2.7690906182 9.4267020305
2.3198951272 9.6463003247 0.0000000000 0.0000000000 0.0000000000 -1314.8228342441 2.7690906182 9.4267020305
2.3112039548 9.6275497426 0.0000000000 0.0000000000 0.0000000000 -1195.0326685879 2.7690906182 9.4267020305
2.3032950741 9.6084560156 0.0000000000 0.0000000000 0.0000000000 -1077.6048392728 2.7690906182 9.4267020305
2.2961819973 9.5890517649 0.0000000000 0.0000000000 0.0000000000 -963.2397822921 2.7690906182 9.4267020305
2.2898768769 9.5693701424 0.0000000000 0.0000000000 0.0000000000 -852.5905121490 2.7690906182 9.4267020305
2.2843904852 9.5494447739 0.0000000000 0.0000000000 0.0000000000 -746.2481292992 2.7690906182 9.4267020305
2.2797321955 9.5293097014 0.0000000000 0.0000000000 0.0000000000 -644.7253099201 2.7690906182 9.4267020305
2.2759099665 9.5089993254 0.0000000000 0.0000000000 0.0000000000 -548.4389749596 2.7690906182 9.4267020305
2.2729303283 9.4885483459 0.0000000000 0.0000000000 0.0000000000 -457.6946639463 2.7690906182 9.4267020305
2.2707983717 9.4679917030 0.0000000000 0.0000000000 0.0000000000 -372.6761233290 2.7690906182 9.4267020305
2.2695177390 9.4473645174 0.0000000000 0.0000000000 0.0000000000 -293.4435203879 2.7690906182 9.4267020305
2.2690906182 9.4267020303 0.0000000000 0.0000000000 0.0000000000 -219.9420648459 2.7690906182 9.4267020305
2.2695177390 9.4060395431 0.0000000000 0.0000000000 0.0000000000 -152.0200411571 2.7690906182 9.4267020305
2.2707983717 9.3854123575 0.0000000000 0.0000000000 0.0000000000 -89.4525915700 2.7690906182 9.4267020305
2.2729303284 9.3648557146 0.0000000000 0.0000000000 0.0000000000 -31.9664470228 2.7690906182 9.4267020305
2.2759099666 9.3444047351 0.0000000000 0.0000000000 0.0000000000 20.7383396912 2.7690906182 9.4267020305
2.2797321956 9.3240943592 0.0000000000 0.0000000000 0.0000000000 68.9715442780 2.7690906182 9.4267020305
2.2843904853 9.3039592867 0.0000000000 0.0000000000 0.0000000000 113.0407829800 2.7690906182 9.4267020305
2.2898768771 9.2840339181 0.0000000000 0.0000000000 0.0000000000 153.2434544425 2.7690906182 9.4267020305
2.2961819974 9.2643522956 0.0000000000 0.0000000000 0.0000000000 189.8616991675 2.7690906182 9.4267020305
2.3032950743 9.2449480450 0.0000000000 0.0000000000 0.0000000000 223.1598211287 2.7690906182 9.4267020305
2.3112039550 9.2258543179 0.0000000000 0.0000000000 0.0000000000 253.3838159643 2.7690906182 9.4267020305
2.3198951274 9.2071037358 0.0000000000 0.0000000000 0.0000000000 280.7625710118 2.7690906182 9.4267020305
2.3293537427 9.1887283337 0.0000000000 0.0000000000 0.0000000000 305.5101122757 2.7690906182 9.4267020305
2.3395636412 9.1707595057 0.0000000000 0.0000000000 0.0000000000 327.8281719916 2.7690906182 9.4267020305
2.3505073792 9.1532279512 0.0000000000 0.0000000000 0.0000000000 347.9084842043 2.7690906182 9.4267020305
2.3621662597 9.1361636226 0.0000000000 0.0000000000 0.0000000000 365.9344829421 2.7690906182 9.4267020305
2.3745203637 9.1195956739 0.0000000000 0.0000000000 0.0000000000 382.0824470171 2.7690906182 9.4267020305
2.3875485843 9.1035524113 0.0000000000 0.0000000000 0.0000000000 396.5222882294 2.7690906182 9.4267020305
2.4012286631 9.0880612445 0.0000000000 0.0000000000 0.0000000000 409.4183106398 2.7690906182 9.4267020305
2.4304498326 9.0588400750 0.0000000000 0.0000000000 0.0000000000 431.2129438444 2.7690906182 9.4267020305
2.4459409995 9.0451599962 0.0000000000 0.0000000000 0.0000000000 440.4198933411 2.7690906182 9.4267020305
2.4619842621 9.0321317756 0.0000000000 0.0000000000 0.0000000000 448.7017627003 2.7690906182 9.4267020305
2.4785522107 9.0197776717 0.0000000000 0.0000000000 0.0000000000 456.2088589051 2.7690906182 9.4267020305
2.4956165394 9.0081187912 0.0000000000 0.0000000000 0.0000000000 463.0923070752 2.7690906182 9.4267020305
2.5131480939 8.9971750531 0.0000000000 0.0000000000 0.0000000000 469.5057950627 2.7690906182 9.4267020305
2.5311169219 8.9869651547 0.0000000000 0.0000000000 0.0000000000 475.6077343818 2.7690906182 9.4267020305
2.5494923241 8.9775065394 0.0000000000 0.0000000000 0.0000000000 481.5639199028 2.7690906182 9.4267020305
2.5682429062 8.9688153670 0.0000000000 0.0000000000 0.0000000000 487.5507747376 2.7690906182 9.4267020305
2.5873366332 8.9609064863 0.0000000000 0.0000000000 0.0000000000 493.7592347333 2.7690906182 9.4267020305
2.6067408839 8.9537934095 0.0000000000 0.0000000000 0.0000000000 500.3992061443 2.7690906182 9.4267020305
2.6264225064 8.9474882892 0.0000000000 0.0000000000 0.0000000000 507.7042940095 2.7690906182 9.4267020305
2.6463478749 8.9420018974 0.0000000000 0.0000000000 0.0000000000 515.9361106771 2.7690906182 9.4267020305
2.6664829474 8.9373436077 0.0000000000 0.0000000000 0.0000000000 525.3869155473 2.7690906182 9.4267020305
2.6867933234 8.9335213787 0.0000000000 0.0000000000 0.0000000000 536.3785885351 2.7690906182 9.4267020305
2.7072443029 8.9305417406 0.0000000000 0.0000000000 0.0000000000 549.2550502608 2.7690906182 9.4267020305
2.7278009458 8.9284097839 0.0000000000 0.0000000000 0.0000000000 564.3643563770 2.7690906182 9.4267020305
2.7484281314 8.9271291513 0.0000000000 0.0000000000 0.0000000000 582.0261570284 2.7690906182 9.4267020305
2.7690906185 8.9267020305 0.0000000000 0.0000000000 0.0000000000 602.4805089099 2.7690906182 9.4267020305
2.7897531057 8.9271291513 0.0000000000 0.0000000000 0.0000000000 625.8158773518 2.7690906182 9.4267020305
2.8103802913 8.9284097840 0.0000000000 0.0000000000 0.0000000000 651.8781160119 2.7690906182 9.4267020305
2.8309369342 8.9305417406 0.0000000000 0.0000000000 0.0000000000 680.1687878672 2.7690906182 9.4267020305
2.8513879137 8.9335213788 0.0000000000 0.0000000000 0.0000000000 709.7495818509 2.7690906182 9.4267020305
2.8716982896 8.9373436079 0.0000000000 0.0000000000 0.0000000000 739.1787029127 2.7690906182 9.4267020305
2.8918333621 8.9420018976 0.0000000000 0.0000000000 0.0000000000 766.5103830676 2.7690906182 9.4267020305
2.9117587307 8.9474882893 0.0000000000 0.0000000000 0.0000000000 789.3880991073 2.7690906182 9.4267020305
2.9314403531 8.9537934097 0.0000000000 0.0000000000 0.0000000000 805.2469457740 2.7690906182 9.4267020305
2.9508446038 8.9609064866 0.0000000000 0.0000000000 0.0000000000 811.6194897868 2.7690906182 9.4267020305
2.9699383309 8.9688153673 0.0000000000 0.0000000000 0.0000000000 806.4978562206 2.7690906182 9.4267020305
2.9886889130 8.9775065397 0.0000000000 0.0000000000 0.0000000000 788.6927301449 2.7690906182 9.4267020305
3.0070643150 8.9869651550 0.0000000000 0.0000000000 0.0000000000 758.0784316698 2.7690906182 9.4267020305
3.0250331431 8.9971750535 0.0000000000 0.0000000000 0.0000000000 715.7098486325 2.7690906182 9.4267020305
3.0425646976 9.0081187915 0.0000000000 0.0000000000 0.0000000000 663.6527231146 2.7690906182 9.4267020305
3.0596290262 9.0197776720 0.0000000000 0.0000000000 0.0000000000 604.8479387341 2.7690906182 9.4267020305
3.0761969748 9.0321317760 0.0000000000 0.0000000000 0.0000000000 542.3594366766 2.7690906182 9.4267020305
3.0922402374 9.0451599966 0.0000000000 0.0000000000 0.0000000000 479.9786268801 2.7690906182 9.4267020305
3.1077314043 9.0588400754 0.0000000000 0.0000000000 0.0000000000 419.0542411513 2.7690906182 9.4267020305
3.2553919341 8.8586533030 0.0000000000 0.4591948155 0.3187887828 523.8458680089 2.7056030298 9.3687828559
3.2778170119 8.8759726259 0.0000000000 0.4598774706 0.3066299976 518.6013019386 2.7093382192 9.3651881840
3.2994503806 8.8941126371 0.0000000000 0.4601280596 0.2936427622 513.9118253556 2.7130767685 9.3617299881
3.3202461416 8.9130577088 0.0000000000 0.4600205821 0.2797079211 509.9148804884 2.7167978064 9.3584228476
3.3401600570 8.9327931659 0.0000000000 0.4596340794 0.2647230343 506.6992202643 2.7204809760 9.3552832090
3.3591509596 8.9533039040 0.0000000000 0.4590499372 0.2486006485 504.3104713566 2.7241078099 9.3523279609
3.3771815651 8.9745737303 0.0000000000 0.4583505617 0.2312646650 502.7563508652 2.7276625120 9.3495737299
3.3942188995 8.9965849788 0.0000000000 0.4576190743 0.2126472045 502.0121805974 2.7311323542 9.3470364496
3.4102344046 9.0193182659 0.0000000000 0.4569399960 0.1926860823 502.0258250565 2.7345077535 9.3447310699
3.4252037720 9.0427523235 0.0000000000 0.4564006676 0.1713229814 502.7215088294 2.7377820800 9.3426713413
3.4391065821 9.0668638650 0.0000000000 0.4560931119 0.1485024722 504.0022302014 2.7409512705 9.3408696329
3.4519258370 9.0916274662 0.0000000000 0.4561160633 0.1241719321 505.7507520074 2.7440133391 9.3393367622
3.4636474738 9.1170154482 0.0000000000 0.4565769309 0.0982823164 507.8293384495 2.7469678694 9.3380818287
3.4742599178 9.1429977668 0.0000000000 0.4575935048 0.0707896708 510.0785200925 2.7498155480 9.3371120503
3.4837537050 9.1695419095 0.0000000000 0.4592952472 0.0416572609 512.3152308268 2.7525577708 9.3364326096
3.4921211832 9.1966128076 0.0000000000 0.4618240313 0.0108581757 514.3306944922 2.7551963282 9.3360465126
3.4993562864 9.2241727675 0.0000000000 0.4653342116 -0.0216217486 515.8884603310 2.7577331667 9.3359544668
3.5054543757 9.2521814247 0.0000000000 0.4699919348 -0.0557808620 516.7229999065 2.7601702183 9.3361547815
3.5104121378 9.2805957233 0.0000000000 0.4759736314 -0.0915986937 516.5392796771 2.7625092898 9.3366432931
3.5142275347 9.3093699252 0.0000000000 0.4834636779 -0.1290332296 515.0137043838 2.7647520061 9.3374133206
3.5168998021 9.3384556504 0.0000000000 0.4926512731 -0.1680187117 511.7967767012 2.7668998021 9.3384556501
3.5184294889 9.3678019506 0.0000000000 0.5037266417 -0.2084641924 506.5177294264 2.7689539603 9.3397585546
3.5188185344 9.3973554189 0.0000000000 0.5168767506 -0.2502530439 498.7912527268 2.7709156865 9.3413078484
3.5180703745 9.4270603390 0.0000000000 0.5322807959 -0.2932435650 488.2262615744 2.7727862171 9.3430869817
3.5161900659 9.4568588777 0.0000000000 0.5501057885 -0.3372707298 474.4364372451 2.7745669463 9.3450771778
3.5131844157 9.4866913264 0.0000000000 0.5705026019 -0.3821490123 457.0520527207 2.7762595608 9.3472576208
3.5090621042 9.5164963993 0.0000000000 0.5936028315 -0.4276761250 435.7323860422 2.7778661701 9.3496056986
3.5038337897 9.5462115950 0.0000000000 0.6195167009 -0.4736374832 410.1778707430 2.7793894201 9.3520973110
3.4975121890 9.5757736292 0.0000000000 0.6483320886 -0.5198112485 380.1410470860 2.7808325847 9.3547072482
3.4901121319 9.6051189403 0.0000000000 0.6801147266 -0.5659736940 345.4353649364 2.7821996342 9.3574096436
3.4816505947 9.6341842673 0.0000000000 0.7149100609 -0.6119038636 305.9409651191 2.7834952832 9.3601784988
3.4721467205 9.6629072898 0.0000000000 0.7527483137 -0.6573845072 261.6068318617 2.7847250287 9.3629882714
3.4616218367 9.6912273141 0.0000000000 0.7936552412 -0.7021934587 212.4493213350 2.7858951859 9.3658145096
3.4500994761 9.7190859823 0.0000000000 0.8376700009 -0.7460785046 158.5480644951 2.7870129311 9.3686345110
3.4376054015 9.7464279796 0.0000000000 0.8848658451 -0.7887139941 100.0411643392 2.7880863488 9.3714279795
3.4241676147 9.7732017189 0.0000000000 0.9353596270 -0.8296515120 37.1218050664 2.7891244654 9.3741776614
3.4098163166 9.7993599897 0.0000000000 0.9892905121 -0.8682930013 -29.9625273817 2.7901372360 9.3768699460
3.3945837902 9.8248605718 0.0000000000 1.0467604762 -0.9039149084 -100.9083619467 2.7911354555 9.3794954325
3.3785042592 9.8496668449 0.0000000000 1.1077583337 -0.9357449713 -175.3537569641 2.7921306474 9.3820494934
3.3616139832 9.8737484795 0.0000000000 1.1721080276 -0.9630572946 -252.8766381468 2.7931351909 9.3845329210
3.3439524909 9.8970822230 0.0000000000 1.2394670873 -0.9852419211 -332.9943617266 2.7941635871 9.3869526696
3.3038055725 9.9432067264 0.0000000000 1.3884124515 -1.0149582320 -510.1977011781 2.7958443938 9.3914137934
3.2812017845 9.9657518496 0.0000000000 1.4695412685 -1.0205351023 -607.1029114709 2.7964773562 9.3934387984
3.2577798269 9.9872420052 0.0000000000 1.5518621577 -1.0185455451 -705.2614785195 2.7971202925 9.3953866231
3.2335683432 10.0076403761 0.0000000000 1.6346304610 -1.0090030906 -804.0838130655 2.7977607317 9.3972538381
3.2085986680 10.0269151076 0.0000000000 1.7171601280 -0.9919939677 -903.0173713758 2.7983875495 9.3990402488
3.1829039094 10.0450374916 0.0000000000 1.7988179862 -0.9676631450 -1001.5428950317 2.7989901227 9.4007470258
3.1565183275 10.0619814938 0.0000000000 1.8790237426 -0.9361955374 -1099.1736116171 2.7995577828 9.4023761803
3.1294770744 10.0777235497 0.0000000000 1.9572460612 -0.8978020841 -1195.4506813112 2.8000796328 9.4039303132
3.1018161714 10.0922423730 0.0000000000 2.0329963610 -0.8527105858 -1289.9363305763 2.8005446030 9.4054123780
3.0735726494 10.1055187573 0.0000000000 2.1058219232 -0.8011604335 -1382.2056619704 2.8009416716 9.4068254412
3.0447847807 10.1175354106 0.0000000000 2.1752989483 -0.7434007508 -1471.8383028256 2.8012601789 9.4081724793
3.0154923404 10.1282768398 0.0000000000 2.2410263584 -0.6796912063 -1558.4106447804 2.8014901723 9.4094562279
2.9857368512 10.1377292787 0.0000000000 2.3026206303 -0.6103050190 -1641.4894387693 2.8016227360 9.4106790792
2.9555617761 10.1458806428 0.0000000000 2.3597119012 -0.5355334692 -1720.6272833441 2.8016502696 9.4118430087
2.9250126424 10.1527205012 0.0000000000 2.4119414144 -0.4556912301 -1795.3603848454 2.8015666999 9.4129495236
2.8941370914 10.1582400652 0.0000000000 2.4589603483 -0.3711219768 -1865.2087587727 2.8013676181 9.4139996304
2.8629848559 10.1624321966 0.0000000000 2.5004300528 -0.2822041396 -1929.6789244080 2.8010503469 9.4149938268
2.8316076788 10.1652914454 0.0000000000 2.5360237031 -0.1893568709 -1988.2690545299 2.8006139483 9.4159321266
2.8000591855 10.1668141190 0.0000000000 2.5654292999 -0.0930459895 -2040.4764482019 2.8000591856 9.4168141190
2.7683947245 10.1669983801 0.0000000000 2.5883538382 0.0062109055 -2085.8070860162 2.7993884553 9.4176390614
2.7366711907 10.1658443668 0.0000000000 2.6045284649 0.1078410926 -2123.7869827585 2.7986057000 9.4184059971
2.7049468374 10.1633543195 0.0000000000 2.6137145894 0.2112154582 -2153.9750905991 2.7977163110 9.4191138847
2.6732810842 10.1595327050 0.0000000000 2.6157110667 0.3156488299 -2175.9775194036 2.7967270271 9.4197617275
2.6417343210 10.1543863285 0.0000000000 2.6103625116 0.4204015411 -2189.4626858093 2.7956458278 9.4203486946
2.6103677070 10.1479244284 0.0000000000 2.5975685302 0.5246829245 -2194.1766827217 2.7944818225 9.4208742290
2.5792429637 10.1401587569 0.0000000000 2.5772934781 0.6276582897 -2189.9578837855 2.7932451321 9.4213381451
2.5484221585 10.1311036490 0.0000000000 2.5495764687 0.7284605410 -2176.7497358542 2.7919467606 9.4217407178
2.5179674770 10.1207760840 0.0000000000 2.5145414160 0.8262066699 -2154.6106599889 2.7905984551 9.4220827680
2.4879409836 10.1091957416 0.0000000000 2.4724065282 0.9200190918 -2123.7199543892 2.7892125522 9.4223657467
2.4584043677 10.0963850490 0.0000000000 2.4234921239 1.0090514682 -2084.3788454290 2.7878018096 9.4225918127
2.4294186774 10.0823692142 0.0000000000 2.3682252146 1.0925176396 -2037.0062575506 2.7863792224 9.4227639009
2.4010440384 10.0671762353 0.0000000000 2.3071389360 1.1697214670 -1982.1291407724 2.7849578254 9.4228857696
2.3733393612 10.0508368778 0.0000000000 2.2408650307 1.2400848924 -1920.3678163427 2.7835504799 9.4229620192
2.3463620370 10.0333846118 0.0000000000 2.1701184756 1.3031708753 -1852.4172697247 2.7821696487 9.4229980740
2.3201676267 10.0148555062 0.0000000000 2.0956746951 1.3586978279 -1779.0257159141 2.7808271614 9.4230001243
2.2948095498 9.9952880794 0.0000000000 2.0183412259 1.4065430234 -1700.9719537076 2.7795339784 9.4229750284
2.2703387901 9.9747231049 0.0000000000 1.9389268610 1.4467341489 -1619.0433345419 2.7782999690 9.4229301721
2.2242478820 9.9307735279 0.0000000000 1.7769203189 1.5048937794 -1446.6256568378 2.7760408152 9.4228123493
2.2027145965 9.9074798953 0.0000000000 1.6957069624 1.5234616212 -1357.5831530909 2.7750276478 9.4227554671
2.1822418893 9.8833699597 0.0000000000 1.6151386498 1.5355121036 -1267.5359419568 2.7740972715 9.4227104253
2.1628642726 9.8584922621 0.0000000000 1.5356928623 1.5414381494 -1177.0739950678 2.7732508106 9.4226846507
2.1446125626 9.8328961627 0.0000000000 1.4577587357 1.5416235022 -1086.7270842897 2.7724874215 9.4226850443
2.1275138732 9.8066316187 0.0000000000 1.3816420999 1.5364244133 -996.9657094601 2.7718043392 9.4227178321
2.1115917055 9.7797489865 0.0000000000 1.3075724738 1.5261554730 -908.2043290250 2.7711970191 9.4227884419
2.0968661173 9.7522988533 0.0000000000 1.2357103384 1.5110780528 -820.8060394937 2.7706593539 9.4229014119
2.0833539526 9.7243319005 0.0000000000 1.1661535387 1.4913895604 -735.0879733420 2.7701839477 9.4230603323
2.0710691087 9.6958987986 0.0000000000 1.0989421751 1.4672118066 -651.3268415391 2.7697624248 9.4232678209
2.0600228167 9.6670501302 0.0000000000 1.0340617833 1.4385771252 -569.7642406236 2.7693857481 9.4235255286
2.0502239127 9.6378363363 0.0000000000 0.9714449334 1.4054113620 -490.6115585451 2.7690445247 9.4238341683
2.0416790790 9.6083076782 0.0000000000 0.9109716434 1.3675134796 -414.0545253278 2.7687292785 9.4241935631
2.0343930424 9.5785142103 0.0000000000 0.8524692480 1.3245324009 -340.2576368325 2.7684306764 9.4246027040
2.0283687210 9.5485057566 0.0000000000 0.7957127076 1.2759431015 -269.3687878265 2.7681396986 9.4250598142
2.0236073180 9.5183318878 0.0000000000 0.7404269060 1.2210262471 -201.5244056861 2.7678477529 9.4255624147
2.0201083654 9.4880418987 0.0000000000 0.6862934857 1.1588594551 -136.8550729040 2.7675467351 9.4261073899
2.0178697259 9.4576847843 0.0000000000 0.6329663930 1.0883342017 -75.4909989047 2.7672290447 9.4266910539
2.0168875645 9.4273092174 0.0000000000 0.5801025738 1.0082208542 -17.5658510545 2.7668875645 9.4273092177
2.0171562985 9.3969635288 0.0000000000 0.5274165479 0.9173143105 36.7832204451 2.7665156173 9.4279572598
2.0186685383 9.3666956912 0.0000000000 0.4747680369 0.8147000324 87.4213130606 2.7661069080 9.4286302007
2.0214150228 9.3365533063 0.0000000000 0.4222865648 0.7001747407 134.2273198828 2.7656554575 9.4293227801
2.0253845525 9.3065835960 0.0000000000 0.3705202738 0.5748200615 177.1079037909 2.7651555300 9.4300295391
2.0305639194 9.2768333954 0.0000000000 0.3205642529 0.4416402771 216.0078699738 2.7646015534 9.4307449023
2.0369378285 9.2473491469 0.0000000000 0.2740851047 0.3060335058 250.9113064773 2.7639880279 9.4314632625
2.0444888103 9.2181768938 0.0000000000 0.2331439330 0.1757241230 281.8275723021 2.7633094221 9.4321790623
2.0531971241 9.1893622716 0.0000000000 0.1997697993 0.0597853608 308.7587297132 2.7625600552 9.4328868738
2.0630406553 9.1609504936 0.0000000000 0.1753629517 -0.0333149194 331.6745381341 2.7617339712 9.4335814718