 TITLE = "Tecplot data"
 VARIABLES = "X", "Y", "Z" "U", "V", "p", "dispX", "dispY"
 ZONE SOLUTIONTIME=2.900000, NODES=26114 , ELEMENTS=25916, DATAPACKING=POINT, ZONETYPE=FEQUADRILATERAL
0.3971063883 0.3535990858 0.0000000000 0.0000000000 0.0000000000 -427.7385420754 0.0435529978 0.0000456952
0.3971063886 -0.3535076952 0.0000000000 0.0000000000 0.0000000000 -427.2457384933 0.0435529978 0.0000456952
-0.3100003929 0.3535990857 0.0000000000 0.0000000000 0.0000000000 -184.5797783590 0.0435529978 0.0000456952
-0.3100003926 -0.3535076956 0.0000000000 0.0000000000 0.0000000000 -184.2067857192 0.0435529978 0.0000456952
0.5738048605 0.5303681866 0.0000000000 0.3102454100 0.0224461467 -405.2639203395 0.0434747746 0.0000381006
0.5735586479 -0.5303611775 0.0000000000 0.3085333924 -0.0224638589 -405.1398835971 0.0432285617 -0.0000310920
-0.4868634502 0.5303356640 0.0000000000 0.9001878031 0.4850413131 46.8996037548 0.0434666359 0.0000055783
-0.4869091323 -0.5301947199 0.0000000000 0.8999844098 -0.4849562764 47.2370461840 0.0434209533 0.0001353663
1.1036692889 1.0605493244 0.0000000000 1.2532397704 -0.1545499823 -248.0524842847 0.0430091173 -0.0001108475
1.1022219373 -1.0609259208 0.0000000000 1.2536739346 0.1538016312 -248.1297275074 0.0415617647 -0.0002657498
-1.0176499127 1.0604667629 0.0000000000 0.9668913992 0.1540430006 74.9667294535 0.0430102594 -0.0001934085
-1.0180936792 -1.0601511017 0.0000000000 0.9667904936 -0.1539083261 75.0445695190 0.0425664920 0.0005090706
4.2413952583 3.2987855041 0.0000000000 1.0007777623 -0.0228446147 -6.8158062749 0.0413952583 -0.0012144959
4.2342378205 -3.3032086231 0.0000000000 1.0008753362 0.0228695028 -6.8385453744 0.0342378205 -0.0032086231
20.0000000000 4.7000000000 0.0000000000 0.9996979092 -0.0002390622 0.0001448495 0.0000000000 0.0000000000
20.0000000000 -4.7000000000 0.0000000000 0.9996984277 0.0002391813 0.0001849126 0.0000000000 0.0000000000
-10.0000000000 15.0000000000 0.0000000000 1.0000000000 0.0000000000 15.6774635953 0.0000000000 0.0000000000
20.0000000000 15.0000000000 0.0000000000 1.0005452302 0.0000000000 0.0013342478 0.0000000000 0.0000000000
20.0000000000 -15.0000000000 0.0000000000 1.0005466228 0.0000000000 0.0015012435 0.0000000000 0.0000000000
-10.0000000000 -15.0000000000 0.0000000000 1.0000000000 0.0000000000 15.6967542538 0.0000000000 0.0000000000
0.4100789339 -0.3400406735 0.0000000000 0.0000000000 0.0000000000 -424.9153912014 0.0435529978 0.0000456952
0.4225388596 -0.3260980102 0.0000000000 0.0000000000 0.0000000000 -423.5697377653 0.0435529978 0.0000456952
0.4344687392 -0.3116992055 0.0000000000 0.0000000000 0.0000000000 -422.8699384073 0.0435529978 0.0000456952
0.4458518878 -0.2968643973 0.0000000000 0.0000000000 0.0000000000 -422.6453715753 0.0435529978 0.0000456952
0.4566723851 -0.2816143336 0.0000000000 0.0000000000 0.0000000000 -422.6071973939 0.0435529978 0.0000456952
0.4669150976 -0.2659703428 0.0000000000 0.0000000000 0.0000000000 -422.5241560823 0.0435529978 0.0000456952
0.4765656998 -0.2499543046 0.0000000000 0.0000000000 0.0000000000 -422.1804903336 0.0435529978 0.0000456952
0.4856106947 -0.2335886187 0.0000000000 0.0000000000 0.0000000000 -421.3910589008 0.0435529978 0.0000456952
0.4940374318 -0.2168961741 0.0000000000 0.0000000000 0.0000000000 -419.9767980992 0.0435529978 0.0000456952
0.5018341258 -0.1999003167 0.0000000000 0.0000000000 0.0000000000 -417.7670649001 0.0435529978 0.0000456952
0.5089898722 -0.1826248167 0.0000000000 0.0000000000 0.0000000000 -414.6128474745 0.0435529978 0.0000456952
0.5154946630 -0.1650938355 0.0000000000 0.0000000000 0.0000000000 -410.4178908758 0.0435529978 0.0000456952
0.5213394007 -0.1473318918 0.0000000000 0.0000000000 0.0000000000 -405.1744505823 0.0435529978 0.0000456952
0.5265159110 -0.1293638271 0.0000000000 0.0000000000 0.0000000000 -398.9957378874 0.0435529978 0.0000456952
0.5310169539 -0.1112147716 0.0000000000 0.0000000000 0.0000000000 -392.1344152284 0.0435529978 0.0000456952
0.5348362344 -0.0929101082 0.0000000000 0.0000000000 0.0000000000 -384.9800399153 0.0435529978 0.0000456952
0.5379684109 -0.0744754377 0.0000000000 0.0000000000 0.0000000000 -378.0312831586 0.0435529978 0.0000456952
0.5404091027 -0.0559365427 0.0000000000 0.0000000000 0.0000000000 -371.8442196028 0.0435529978 0.0000456952
0.5421548964 -0.0373193514 0.0000000000 0.0000000000 0.0000000000 -366.9634076761 0.0435529978 0.0000456952
0.5432033502 -0.0186499018 0.0000000000 0.0000000000 0.0000000000 -363.8471665047 0.0435529978 0.0000456952
0.5435529978 0.0000456954 0.0000000000 0.0000000000 0.0000000000 -362.8006806341 0.0435529978 0.0000456952
0.5432033502 0.0187412925 0.0000000000 0.0000000000 0.0000000000 -363.9298136236 0.0435529978 0.0000456952
0.5421548963 0.0374107422 0.0000000000 0.0000000000 0.0000000000 -367.1247523527 0.0435529978 0.0000456952
0.5404091027 0.0560279334 0.0000000000 0.0000000000 0.0000000000 -372.0767962376 0.0435529978 0.0000456952
0.5379684109 0.0745668284 0.0000000000 0.0000000000 0.0000000000 -378.3249338975 0.0435529978 0.0000456952
0.5348362344 0.0930014989 0.0000000000 0.0000000000 0.0000000000 -385.3231019832 0.0435529978 0.0000456952
0.5310169538 0.1113061623 0.0000000000 0.0000000000 0.0000000000 -392.5150650415 0.0435529978 0.0000456952
0.5265159109 0.1294552179 0.0000000000 0.0000000000 0.0000000000 -399.4034305668 0.0435529978 0.0000456952
0.5213394006 0.1474232825 0.0000000000 0.0000000000 0.0000000000 -405.6009105972 0.0435529978 0.0000456952
0.5154946629 0.1651852263 0.0000000000 0.0000000000 0.0000000000 -410.8578422599 0.0435529978 0.0000456952
0.5089898720 0.1827162075 0.0000000000 0.0000000000 0.0000000000 -415.0633981211 0.0435529978 0.0000456952
0.5018341257 0.1999917074 0.0000000000 0.0000000000 0.0000000000 -418.2273080458 0.0435529978 0.0000456952
0.4940374317 0.2169875648 0.0000000000 0.0000000000 0.0000000000 -420.4452118660 0.0435529978 0.0000456952
0.4856106945 0.2336800094 0.0000000000 0.0000000000 0.0000000000 -421.8662854821 0.0435529978 0.0000456952
0.4765656996 0.2500456953 0.0000000000 0.0000000000 0.0000000000 -422.6577628167 0.0435529978 0.0000456952
0.4669150973 0.2660617335 0.0000000000 0.0000000000 0.0000000000 -423.0023532973 0.0435529978 0.0000456952
0.4566723849 0.2817057243 0.0000000000 0.0000000000 0.0000000000 -423.0806509081 0.0435529978 0.0000456952
0.4458518876 0.2969557880 0.0000000000 0.0000000000 0.0000000000 -423.1212894022 0.0435529978 0.0000456952
0.4344687390 0.3117905962 0.0000000000 0.0000000000 0.0000000000 -423.3410462359 0.0435529978 0.0000456952
0.4225388593 0.3261894009 0.0000000000 0.0000000000 0.0000000000 -424.0533462873 0.0435529978 0.0000456952
0.4100789336 0.3401320641 0.0000000000 0.0000000000 0.0000000000 -425.3986327024 0.0435529978 0.0000456952
0.3821937835 0.3679076505 0.0000000000 0.0000000000 0.0000000000 -431.2238683003 0.0435529978 0.0000456952
0.3667026167 0.3815877293 0.0000000000 0.0000000000 0.0000000000 -436.0426712628 0.0435529978 0.0000456952
0.3506593541 0.3946159499 0.0000000000 0.0000000000 0.0000000000 -441.7878928819 0.0435529978 0.0000456952
0.3340914054 0.4069700538 0.0000000000 0.0000000000 0.0000000000 -448.5711498791 0.0435529978 0.0000456952
0.3170270768 0.4186289343 0.0000000000 0.0000000000 0.0000000000 -456.3123666748 0.0435529978 0.0000456952
0.2994955223 0.4295726724 0.0000000000 0.0000000000 0.0000000000 -465.1638801398 0.0435529978 0.0000456952
0.2815266942 0.4397825708 0.0000000000 0.0000000000 0.0000000000 -475.2407818605 0.0435529978 0.0000456952
0.2631512921 0.4492411862 0.0000000000 0.0000000000 0.0000000000 -486.7097846801 0.0435529978 0.0000456952
0.2444007100 0.4579323585 0.0000000000 0.0000000000 0.0000000000 -499.6806207368 0.0435529978 0.0000456952
0.2253069830 0.4658412392 0.0000000000 0.0000000000 0.0000000000 -514.2264280976 0.0435529978 0.0000456952
0.2059027323 0.4729543161 0.0000000000 0.0000000000 0.0000000000 -530.3468329114 0.0435529978 0.0000456952
0.1862211098 0.4792594364 0.0000000000 0.0000000000 0.0000000000 -547.9689986013 0.0435529978 0.0000456952
0.1662957413 0.4847458282 0.0000000000 0.0000000000 0.0000000000 -566.9285017353 0.0435529978 0.0000456952
0.1461606688 0.4894041179 0.0000000000 0.0000000000 0.0000000000 -586.9631569205 0.0435529978 0.0000456952
0.1258502928 0.4932263469 0.0000000000 0.0000000000 0.0000000000 -607.7055456572 0.0435529978 0.0000456952
0.1053993133 0.4962059851 0.0000000000 0.0000000000 0.0000000000 -628.6860418608 0.0435529978 0.0000456952
0.0848426704 0.4983379417 0.0000000000 0.0000000000 0.0000000000 -649.3422524062 0.0435529978 0.0000456952
0.0642154848 0.4996185744 0.0000000000 0.0000000000 0.0000000000 -669.0374110523 0.0435529978 0.0000456952
0.0435529977 0.5000456952 0.0000000000 0.0000000000 0.0000000000 -687.0848763589 0.0435529978 0.0000456952
0.0228905105 0.4996185744 0.0000000000 0.0000000000 0.0000000000 -702.7772666815 0.0435529978 0.0000456952
0.0022633249 0.4983379417 0.0000000000 0.0000000000 0.0000000000 -715.4170955065 0.0435529978 0.0000456952
-0.0182933180 0.4962059850 0.0000000000 0.0000000000 0.0000000000 -724.3463673714 0.0435529978 0.0000456952
-0.0387442975 0.4932263469 0.0000000000 0.0000000000 0.0000000000 -728.9726819246 0.0435529978 0.0000456952
-0.0590546734 0.4894041178 0.0000000000 0.0000000000 0.0000000000 -728.7902423281 0.0435529978 0.0000456952
-0.0791897459 0.4847458281 0.0000000000 0.0000000000 0.0000000000 -723.3948868517 0.0435529978 0.0000456952
-0.0991151145 0.4792594364 0.0000000000 0.0000000000 0.0000000000 -712.4930536171 0.0435529978 0.0000456952
-0.1187967370 0.4729543160 0.0000000000 0.0000000000 0.0000000000 -695.9051630996 0.0435529978 0.0000456952
-0.1382009876 0.4658412392 0.0000000000 0.0000000000 0.0000000000 -673.5642957824 0.0435529978 0.0000456952
-0.1572947147 0.4579323585 0.0000000000 0.0000000000 0.0000000000 -645.5112170670 0.0435529978 0.0000456952
-0.1760452968 0.4492411861 0.0000000000 0.0000000000 0.0000000000 -611.8868138961 0.0435529978 0.0000456952
-0.1944206989 0.4397825707 0.0000000000 0.0000000000 0.0000000000 -572.9229003137 0.0435529978 0.0000456952
-0.2123895269 0.4295726723 0.0000000000 0.0000000000 0.0000000000 -528.9321762441 0.0435529978 0.0000456952
-0.2299210814 0.4186289342 0.0000000000 0.0000000000 0.0000000000 -480.2979244772 0.0435529978 0.0000456952
-0.2469854100 0.4069700537 0.0000000000 0.0000000000 0.0000000000 -427.4638363900 0.0435529978 0.0000456952
-0.2635533587 0.3946159498 0.0000000000 0.0000000000 0.0000000000 -370.9241886400 0.0435529978 0.0000456952
-0.2795966213 0.3815877292 0.0000000000 0.0000000000 0.0000000000 -311.2144664190 0.0435529978 0.0000456952
-0.2950877882 0.3679076504 0.0000000000 0.0000000000 0.0000000000 -248.9024528148 0.0435529978 0.0000456952
-0.3243089577 0.3386864809 0.0000000000 0.0000000000 0.0000000000 -118.8539378584 0.0435529978 0.0000456952
-0.3379890364 0.3231953140 0.0000000000 0.0000000000 0.0000000000 -52.3408101764 0.0435529978 0.0000456952
-0.3510172570 0.3071520514 0.0000000000 0.0000000000 0.0000000000 14.3422649105 0.0435529978 0.0000456952
-0.3633713610 0.2905841027 0.0000000000 0.0000000000 0.0000000000 80.5828068170 0.0435529978 0.0000456952
-0.3750302415 0.2735197741 0.0000000000 0.0000000000 0.0000000000 145.7788997280 0.0435529978 0.0000456952
-0.3859739795 0.2559882196 0.0000000000 0.0000000000 0.0000000000 209.3443176626 0.0435529978 0.0000456952
-0.3961838779 0.2380193915 0.0000000000 0.0000000000 0.0000000000 270.7131400464 0.0435529978 0.0000456952
-0.4056424933 0.2196439894 0.0000000000 0.0000000000 0.0000000000 329.3439444524 0.0435529978 0.0000456952
-0.4143336656 0.2008934073 0.0000000000 0.0000000000 0.0000000000 384.7236560827 0.0435529978 0.0000456952
-0.4222425463 0.1817996803 0.0000000000 0.0000000000 0.0000000000 436.3711112621 0.0435529978 0.0000456952
-0.4293556231 0.1623954296 0.0000000000 0.0000000000 0.0000000000 483.8403650372 0.0435529978 0.0000456952
-0.4356607435 0.1427138071 0.0000000000 0.0000000000 0.0000000000 526.7237491489 0.0435529978 0.0000456952
-0.4411471352 0.1227884386 0.0000000000 0.0000000000 0.0000000000 564.6546702793 0.0435529978 0.0000456952
-0.4458054249 0.1026533661 0.0000000000 0.0000000000 0.0000000000 597.3101300983 0.0435529978 0.0000456952
-0.4496276540 0.0823429901 0.0000000000 0.0000000000 0.0000000000 624.4129467313 0.0435529978 0.0000456952
-0.4526072921 0.0618920106 0.0000000000 0.0000000000 0.0000000000 645.7336595793 0.0435529978 0.0000456952
-0.4547392488 0.0413353677 0.0000000000 0.0000000000 0.0000000000 661.0921038623 0.0435529978 0.0000456952
-0.4560198814 0.0207081821 0.0000000000 0.0000000000 0.0000000000 670.3586461450 0.0435529978 0.0000456952
-0.4564470022 0.0000456950 0.0000000000 0.0000000000 0.0000000000 673.4550763204 0.0435529978 0.0000456952
-0.4560198814 -0.0206167922 0.0000000000 0.0000000000 0.0000000000 670.3551544739 0.0435529978 0.0000456952
-0.4547392487 -0.0412439778 0.0000000000 0.0000000000 0.0000000000 661.0848125804 0.0435529978 0.0000456952
-0.4526072921 -0.0618006207 0.0000000000 0.0000000000 0.0000000000 645.7220113803 0.0435529978 0.0000456952
-0.4496276539 -0.0822516002 0.0000000000 0.0000000000 0.0000000000 624.3962524922 0.0435529978 0.0000456952
-0.4458054249 -0.1025619761 0.0000000000 0.0000000000 0.0000000000 597.2877453651 0.0435529978 0.0000456952
-0.4411471351 -0.1226970486 0.0000000000 0.0000000000 0.0000000000 564.6262287092 0.0435529978 0.0000456952
-0.4356607434 -0.1426224172 0.0000000000 0.0000000000 0.0000000000 526.6894468032 0.0435529978 0.0000456952
-0.4293556230 -0.1623040396 0.0000000000 0.0000000000 0.0000000000 483.8012825841 0.0435529978 0.0000456952
-0.4222425462 -0.1817082903 0.0000000000 0.0000000000 0.0000000000 436.3295512856 0.0435529978 0.0000456952
-0.4143336655 -0.2008020174 0.0000000000 0.0000000000 0.0000000000 384.6834601774 0.0435529978 0.0000456952
-0.4056424931 -0.2195525995 0.0000000000 0.0000000000 0.0000000000 329.3107409192 0.0435529978 0.0000456952
-0.3961838777 -0.2379280016 0.0000000000 0.0000000000 0.0000000000 270.6944611285 0.0435529978 0.0000456952
-0.3859739793 -0.2558968296 0.0000000000 0.0000000000 0.0000000000 209.3495199392 0.0435529978 0.0000456952
-0.3750302412 -0.2734283841 0.0000000000 0.0000000000 0.0000000000 145.8188299837 0.0435529978 0.0000456952
-0.3633713607 -0.2904927127 0.0000000000 0.0000000000 0.0000000000 80.6691825645 0.0435529978 0.0000456952
-0.3510172568 -0.3070606614 0.0000000000 0.0000000000 0.0000000000 14.4867894318 0.0435529978 0.0000456952
-0.3379890362 -0.3231039239 0.0000000000 0.0000000000 0.0000000000 -52.1275169581 0.0435529978 0.0000456952
-0.3243089574 -0.3385950908 0.0000000000 0.0000000000 0.0000000000 -118.5634416159 0.0435529978 0.0000456952
-0.2950877879 -0.3678162603 0.0000000000 0.0000000000 0.0000000000 -248.4454261129 0.0435529978 0.0000456952
-0.2795966210 -0.3814963391 0.0000000000 0.0000000000 0.0000000000 -310.6757911919 0.0435529978 0.0000456952
-0.2635533584 -0.3945245597 0.0000000000 0.0000000000 0.0000000000 -370.3098471579 0.0435529978 0.0000456952
-0.2469854097 -0.4068786636 0.0000000000 0.0000000000 0.0000000000 -426.7826831967 0.0435529978 0.0000456952
-0.2299210811 -0.4185375441 0.0000000000 0.0000000000 0.0000000000 -479.5607078613 0.0435529978 0.0000456952
-0.2123895265 -0.4294812821 0.0000000000 0.0000000000 0.0000000000 -528.1505002820 0.0435529978 0.0000456952
-0.1944206985 -0.4396911806 0.0000000000 0.0000000000 0.0000000000 -572.1082891659 0.0435529978 0.0000456952
-0.1760452964 -0.4491497959 0.0000000000 0.0000000000 0.0000000000 -611.0499943054 0.0435529978 0.0000456952
-0.1572947143 -0.4578409683 0.0000000000 0.0000000000 0.0000000000 -644.6616652302 0.0435529978 0.0000456952
-0.1382009872 -0.4657498490 0.0000000000 0.0000000000 0.0000000000 -672.7100410755 0.0435529978 0.0000456952
-0.1187967366 -0.4728629258 0.0000000000 0.0000000000 0.0000000000 -695.0528007289 0.0435529978 0.0000456952
-0.0991151141 -0.4791680461 0.0000000000 0.0000000000 0.0000000000 -711.6479002064 0.0435529978 0.0000456952
-0.0791897455 -0.4846544379 0.0000000000 0.0000000000 0.0000000000 -722.5612086325 0.0435529978 0.0000456952
-0.0590546730 -0.4893127275 0.0000000000 0.0000000000 0.0000000000 -727.9714918438 0.0435529978 0.0000456952
-0.0387442971 -0.4931349566 0.0000000000 0.0000000000 0.0000000000 -728.1716908477 0.0435529978 0.0000456952
-0.0182933176 -0.4961145947 0.0000000000 0.0000000000 0.0000000000 -723.5654566815 0.0435529978 0.0000456952
0.0022633253 -0.4982465514 0.0000000000 0.0000000000 0.0000000000 -714.6580842014 0.0435529978 0.0000456952
0.0228905109 -0.4995271840 0.0000000000 0.0000000000 0.0000000000 -702.0413759776 0.0435529978 0.0000456952
0.0435529981 -0.4999543048 0.0000000000 0.0000000000 0.0000000000 -686.3725621692 0.0435529978 0.0000456952
0.0642154852 -0.4995271840 0.0000000000 0.0000000000 0.0000000000 -668.3481592986 0.0435529978 0.0000456952
0.0848426708 -0.4982465513 0.0000000000 0.0000000000 0.0000000000 -648.6744404008 0.0435529978 0.0000456952
0.1053993137 -0.4961145947 0.0000000000 0.0000000000 0.0000000000 -628.0368803067 0.0435529978 0.0000456952
0.1258502932 -0.4931349565 0.0000000000 0.0000000000 0.0000000000 -607.0712910526 0.0435529978 0.0000456952
0.1461606692 -0.4893127274 0.0000000000 0.0000000000 0.0000000000 -586.3393817752 0.0435529978 0.0000456952
0.1662957417 -0.4846544377 0.0000000000 0.0000000000 0.0000000000 -566.3108449654 0.0435529978 0.0000456952
0.1862211102 -0.4791680460 0.0000000000 0.0000000000 0.0000000000 -547.3534624157 0.0435529978 0.0000456952
0.2059027327 -0.4728629256 0.0000000000 0.0000000000 0.0000000000 -529.7310419325 0.0435529978 0.0000456952
0.2253069834 -0.4657498487 0.0000000000 0.0000000000 0.0000000000 -513.6089551183 0.0435529978 0.0000456952
0.2444007104 -0.4578409680 0.0000000000 0.0000000000 0.0000000000 -499.0633368607 0.0435529978 0.0000456952
0.2631512925 -0.4491497956 0.0000000000 0.0000000000 0.0000000000 -486.0946009287 0.0435529978 0.0000456952
0.2815266946 -0.4396911803 0.0000000000 0.0000000000 0.0000000000 -474.6356310870 0.0435529978 0.0000456952
0.2994955226 -0.4294812818 0.0000000000 0.0000000000 0.0000000000 -464.5722386389 0.0435529978 0.0000456952
0.3170270771 -0.4185375438 0.0000000000 0.0000000000 0.0000000000 -455.7464975622 0.0435529978 0.0000456952
0.3340914058 -0.4068786633 0.0000000000 0.0000000000 0.0000000000 -448.0248411051 0.0435529978 0.0000456952
0.3506593544 -0.3945245593 0.0000000000 0.0000000000 0.0000000000 -441.2661783666 0.0435529978 0.0000456952
0.3667026170 -0.3814963387 0.0000000000 0.0000000000 0.0000000000 -435.5254567461 0.0435529978 0.0000456952
0.3821937838 -0.3678162599 0.0000000000 0.0000000000 0.0000000000 -430.6975220154 0.0435529978 0.0000456952
0.5930344742 -0.5101643669 0.0000000000 0.2180868118 -0.0390526400 -403.2806779829 0.0432455700 -0.0000348139
0.6117412373 -0.4892534534 0.0000000000 0.1553012971 -0.0656051304 -403.1150086831 0.0432624446 -0.0000378953
0.6296526696 -0.4676577352 0.0000000000 0.1223611051 -0.1033736767 -405.3509507260 0.0432790575 -0.0000403842
0.6467436188 -0.4454074545 0.0000000000 0.1140703136 -0.1506392470 -410.4215948275 0.0432952836 -0.0000423157
0.6629900898 -0.4225337665 0.0000000000 0.1191859832 -0.2026132145 -418.3192232647 0.0433110088 -0.0000437233
0.6783692833 -0.3990686971 0.0000000000 0.1253722632 -0.2531823641 -428.6519555802 0.0433261336 -0.0000446401
0.6928596301 -0.3750450990 0.0000000000 0.1236212494 -0.2969749598 -440.7210272983 0.0433405771 -0.0000450994
0.7064408228 -0.3504966051 0.0000000000 0.1094626347 -0.3304655141 -453.5248766437 0.0433542775 -0.0000451343
0.7190938440 -0.3254575809 0.0000000000 0.0819661857 -0.3521099627 -465.8271951852 0.0433671929 -0.0000447770
0.7308009918 -0.2999630764 0.0000000000 0.0423985278 -0.3619511733 -476.3608534598 0.0433792997 -0.0000440586
0.7415459023 -0.2740487764 0.0000000000 -0.0067990941 -0.3609867486 -484.0700059534 0.0433905906 -0.0000430085
0.7513135700 -0.2477509504 0.0000000000 -0.0627161564 -0.3505487454 -488.2806992962 0.0434010721 -0.0000416543
0.7600903658 -0.2211064019 0.0000000000 -0.1223867556 -0.3319060873 -488.7715163318 0.0434107614 -0.0000400214
0.7678640536 -0.1941524171 0.0000000000 -0.1829631283 -0.3061346773 -485.7677934850 0.0434196838 -0.0000381336
0.7746238047 -0.1669267130 0.0000000000 -0.2417645861 -0.2741558214 -479.8876983565 0.0434278705 -0.0000360129
0.7803602111 -0.1394673852 0.0000000000 -0.2963033202 -0.2368205888 -472.0557354546 0.0434353561 -0.0000336802
0.7850652972 -0.1118128544 0.0000000000 -0.3443270424 -0.1949716562 -463.3907561834 0.0434421774 -0.0000311551
0.7887325293 -0.0840018138 0.0000000000 -0.3838753168 -0.1494702326 -455.0757316490 0.0434483719 -0.0000284570
0.7913568243 -0.0560731747 0.0000000000 -0.4133375813 -0.1012016252 -448.2204380795 0.0434539764 -0.0000256048
0.7929345552 -0.0280660129 0.0000000000 -0.4315081547 -0.0510735492 -443.7308362036 0.0434590266 -0.0000226175
0.7934635566 -0.0000195141 0.0000000000 -0.4376370984 -0.0000121255 -442.1995892727 0.0434635566 -0.0000195144
0.7929431263 0.0280270809 0.0000000000 -0.4314699181 0.0510457413 -443.8320615743 0.0434675978 -0.0000163151
0.7913740271 0.0560345306 0.0000000000 -0.4132631524 0.1011638215 -448.4200282248 0.0434711793 -0.0000130399
0.7887584849 0.0839636480 0.0000000000 -0.3837686459 0.1494180747 -455.3682734440 0.0434743275 -0.0000097093
0.7851001859 0.1117753554 0.0000000000 -0.3441933027 0.1949043391 -463.7689188795 0.0434770663 -0.0000063445
0.7804042721 0.1394307388 0.0000000000 -0.2961475604 0.2367420922 -472.5109878856 0.0434794172 -0.0000029668
0.7746773336 0.1668911031 0.0000000000 -0.2415903040 0.2740750563 -480.4106217223 0.0434813995 0.0000004024
0.7679274003 0.1941180259 0.0000000000 -0.1827718901 0.3060632507 -486.3477354136 0.0434830307 0.0000037419
0.7601639307 0.2210734120 0.0000000000 -0.1221799142 0.3318528390 -489.3960461613 0.0434843264 0.0000070310
0.7513977985 0.2477195463 0.0000000000 -0.0624984231 0.3505126879 -488.9359284126 0.0434853009 0.0000102497
0.7416412783 0.2740191474 0.0000000000 -0.0065809967 0.3609541346 -484.7424127277 0.0434859669 0.0000133789
0.7309080273 0.2999354196 0.0000000000 0.0426039180 0.3619039356 -477.0394204123 0.0434863355 0.0000164012
0.7192130671 0.3254321050 0.0000000000 0.0821515674 0.3520455819 -466.5026057876 0.0434864162 0.0000193005
0.7065727616 0.3504735341 0.0000000000 0.1096255681 0.3304130750 -454.1827843632 0.0434862166 0.0000220627
0.6930047948 0.3750246760 0.0000000000 0.1237404543 0.2969841152 -441.3318450026 0.0434857421 0.0000246759
0.6785281454 0.3990511874 0.0000000000 0.1253983409 0.2532837285 -429.1703853311 0.0434849961 0.0000271299
0.6631630606 0.4225194601 0.0000000000 0.1191243119 0.2027914329 -418.7088625812 0.0434839800 0.0000294165
0.6469310280 0.4453966680 0.0000000000 0.1141057012 0.1508544864 -410.6905726942 0.0434826932 0.0000315287
0.6298547457 0.4676508120 0.0000000000 0.1228076010 0.1035943185 -405.5516602638 0.0434811339 0.0000334605
0.6119580911 0.4892507641 0.0000000000 0.1563459080 0.0658004663 -403.2958061948 0.0434792988 0.0000352055
0.5932660866 0.5101663094 0.0000000000 0.2196186196 0.0391722047 -403.4456840700 0.0434771827 0.0000367560
0.5514334365 0.5518331784 0.0000000000 0.4339337362 0.0124856152 -408.4505498418 0.0434722579 0.0000402453
0.5281938055 0.5723551223 0.0000000000 0.5721149796 0.0091274772 -412.1306767413 0.0434693772 0.0000420711
0.5041257132 0.5918989969 0.0000000000 0.7149966983 0.0108769220 -415.9468079505 0.0434661787 0.0000436148
0.4792703124 0.6104314334 0.0000000000 0.8540269015 0.0171068432 -419.6467105567 0.0434627009 0.0000448954
0.4536701010 0.6279207844 0.0000000000 0.9818129579 0.0271767930 -422.9963147078 0.0434589824 0.0000459256
0.4273688507 0.6443371808 0.0000000000 1.0927282195 0.0401846751 -425.7929780146 0.0434550640 0.0000467150
0.4004115345 0.6596525836 0.0000000000 1.1835687755 0.0550806949 -427.9073205382 0.0434509898 0.0000472702
0.3728442494 0.6738408321 0.0000000000 1.2537056328 0.0708946809 -429.3024336512 0.0434468079 0.0000475956
0.3447141385 0.6868776891 0.0000000000 1.3046546349 0.0869099905 -430.0167645675 0.0434425701 0.0000476941
0.3160693091 0.6987408838 0.0000000000 1.3393052137 0.1027306789 -430.1283301975 0.0434383313 0.0000475678
0.2869587499 0.7094101501 0.0000000000 1.3611016943 0.1182535639 -429.7177817598 0.0434341482 0.0000472188
0.2574322465 0.7188672622 0.0000000000 1.3733846742 0.1335832824 -428.8387307143 0.0434300784 0.0000466503
0.2275402945 0.7270960660 0.0000000000 1.3789820704 0.1489315434 -427.4986505822 0.0434261793 0.0000458666
0.1973340132 0.7340825078 0.0000000000 1.3800421561 0.1645309837 -425.6513009343 0.0434225066 0.0000448738
0.1668650564 0.7398146578 0.0000000000 1.3780446957 0.1805778234 -423.1994656393 0.0434191138 0.0000436802
0.1361855244 0.7442827309 0.0000000000 1.3739112735 0.1972035965 -420.0049711864 0.0434160511 0.0000422961
0.1053478736 0.7474791032 0.0000000000 1.3681489513 0.2144685354 -415.9022477780 0.0434133646 0.0000407335
0.0744048270 0.7493983251 0.0000000000 1.3609855936 0.2323674353 -410.7122109451 0.0434110964 0.0000390063
0.0434092832 0.7500371300 0.0000000000 1.3524779076 0.2508406011 -404.2544290339 0.0434092834 0.0000371300
0.0124142263 0.7493944401 0.0000000000 1.3425887178 0.2697853474 -396.3567558226 0.0434079572 0.0000351214
-0.0185273655 0.7474713683 0.0000000000 1.3312378744 0.2890659841 -386.8624584588 0.0434071437 0.0000329985
-0.0493626104 0.7442712159 0.0000000000 1.3183336679 0.3085217926 -375.6352806361 0.0434068632 0.0000307811
-0.0800388133 0.7397994677 0.0000000000 1.3037911812 0.3279732562 -362.5629608987 0.0434071296 0.0000284902
-0.1105035563 0.7340637827 0.0000000000 1.2875424921 0.3472270370 -347.5596355153 0.0434079505 0.0000261487
-0.1407047883 0.7270739813 0.0000000000 1.2695420474 0.3660801567 -330.5674179969 0.0434093273 0.0000237819
-0.1705909137 0.7188420289 0.0000000000 1.2497692603 0.3843237048 -311.5573291493 0.0434112547 0.0000214171
-0.2001108811 0.7093820155 0.0000000000 1.2282295185 0.4017462692 -290.5296738069 0.0434137210 0.0000190843
-0.2292142702 0.6987101317 0.0000000000 1.2049542483 0.4181371784 -267.5139199368 0.0434167079 0.0000168158
-0.2578513784 0.6868446411 0.0000000000 1.1800003771 0.4332895802 -242.5681209711 0.0434201902 0.0000146462
-0.2859733052 0.6738058483 0.0000000000 1.1534493701 0.4470033468 -215.7779213215 0.0434241366 0.0000126120
-0.3135320361 0.6596160642 0.0000000000 1.1254059411 0.4590877783 -187.2551895657 0.0434285088 0.0000107509
-0.3404805245 0.6442995668 0.0000000000 1.0959964989 0.4693640784 -157.1363287000 0.0434332624 0.0000091011
-0.3667727717 0.6278825589 0.0000000000 1.0653673775 0.4776675773 -125.5803157750 0.0434383471 0.0000077003
-0.3923639050 0.6103931225 0.0000000000 1.0336828916 0.4838496856 -92.7665234449 0.0434437068 0.0000065847
-0.4172102539 0.5918611697 0.0000000000 1.0011232558 0.4877795710 -58.8923737774 0.0434492808 0.0000057877
-0.4412694238 0.5723183902 0.0000000000 0.9678824019 0.4893455541 -24.1708705089 0.0434550048 0.0000053392
-0.4645003671 0.5517981965 0.0000000000 0.9341657278 0.4884562286 11.1719482968 0.0434608118 0.0000052637
-0.5083205363 0.5079674985 0.0000000000 0.8661700748 0.4790522099 82.7677767065 0.0434723968 0.0000063199
-0.5288350100 0.4847319023 0.0000000000 0.8323385246 0.4704624336 118.5269007094 0.0434780413 0.0000074740
-0.5483718775 0.4606685807 0.0000000000 0.7989214236 0.4592676410 153.9247166892 0.0434835047 0.0000090464
-0.5668978080 0.4358186456 0.0000000000 0.7661470841 0.4454855683 188.7087602719 0.0434887301 0.0000110343
-0.5843811916 0.4102245469 0.0000000000 0.7342416872 0.4291557335 222.6287757082 0.0434936672 0.0000134285
-0.6007921921 0.3839300014 0.0000000000 0.7034271940 0.4103389600 255.4390334929 0.0434982738 0.0000162148
-0.6161027980 0.3569799185 0.0000000000 0.6739193537 0.3891167333 286.9005406707 0.0435025155 0.0000193740
-0.6302868703 0.3294203242 0.0000000000 0.6459258234 0.3655904017 316.7831350835 0.0435063662 0.0000228829
-0.6433201878 0.3012982829 0.0000000000 0.6196444039 0.3398802286 344.8674572905 0.0435098073 0.0000267147
-0.6551804891 0.2726618176 0.0000000000 0.5952613985 0.3121243085 370.9467943858 0.0435128271 0.0000308399
-0.6658475122 0.2435598281 0.0000000000 0.5729501045 0.2824773597 394.8287892953 0.0435154192 0.0000352265
-0.6753030302 0.2140420083 0.0000000000 0.5528694562 0.2511094084 416.3370094454 0.0435175818 0.0000398404
-0.6835308836 0.1841587612 0.0000000000 0.5351628394 0.2182043715 435.3123713028 0.0435193160 0.0000446462
-0.6905170090 0.1539611133 0.0000000000 0.5199570793 0.1839585342 451.6144196218 0.0435206250 0.0000496070
-0.6962494645 0.1235006277 0.0000000000 0.5073615664 0.1485789095 465.1224564584 0.0435215131 0.0000546853
-0.7007184499 0.0928293162 0.0000000000 0.4974674429 0.1122814819 475.7365027454 0.0435219849 0.0000598431
-0.7039163249 0.0619995509 0.0000000000 0.4903467868 0.0752893719 483.3780650764 0.0435220449 0.0000650421
-0.7058376220 0.0310639748 0.0000000000 0.4860518041 0.0378309885 487.9906907972 0.0435216968 0.0000702444
-0.7064790561 0.0000754123 0.0000000000 0.4846141377 0.0001382241 489.5403257987 0.0435209439 0.0000754126
-0.7058395307 -0.0309132206 0.0000000000 0.4860444201 -0.0375553068 488.0155190697 0.0435197881 0.0000805104
-0.7039201396 -0.0618490063 0.0000000000 0.4903320784 -0.0750159985 483.4274851123 0.0435182302 0.0000855032
-0.7007241652 -0.0926791157 0.0000000000 0.4974454292 -0.1120119652 475.8100355950 0.0435162696 0.0000903581
-0.6962570733 -0.1233508981 0.0000000000 0.5073321304 -0.1483147732 465.2193946567 0.0435139042 0.0000950449
-0.6905265035 -0.1538119704 0.0000000000 0.5199198896 -0.1837012327 451.7338550387 0.0435111305 0.0000995366
-0.6835422567 -0.1840103063 0.0000000000 0.5351173037 -0.2179552368 435.4532409012 0.0435079427 0.0001038093
-0.6753162785 -0.2138943252 0.0000000000 0.5528147410 -0.2508695981 416.4981590351 0.0435043332 0.0001078433