 TITLE = "Tecplot data"
 VARIABLES = "X", "Y", "Z" "U", "V", "p", "dispX", "dispY"
 ZONE SOLUTIONTIME=40.900000, NODES=26114 , ELEMENTS=25916, DATAPACKING=POINT, ZONETYPE=FEQUADRILATERAL
0.4061874814 0.3534914047 0.0000000000 0.0000000000 0.0000000000 -442.3820241419 0.0526340908 -0.0000619859
0.4061874817 -0.3536153762 0.0000000000 0.0000000000 0.0000000000 -332.5471531301 0.0526340908 -0.0000619859
-0.3009192999 0.3534914046 0.0000000000 0.0000000000 0.0000000000 -215.8384123017 0.0526340908 -0.0000619859
-0.3009192996 -0.3536153767 0.0000000000 0.0000000000 0.0000000000 -89.6254247176 0.0526340908 -0.0000619859
0.5828692564 0.5302593809 0.0000000000 0.3763610941 -0.0059687955 -427.5663479311 0.0525391705 -0.0000707051
0.5825726731 -0.5304842558 0.0000000000 0.0243649921 -0.0717614471 -324.2770473878 0.0522425869 -0.0001541703
-0.4778005325 0.5302196342 0.0000000000 0.8905566579 0.4933298763 -3.3092821333 0.0525295536 -0.0001104515
-0.4778554083 -0.5302837842 0.0000000000 0.8279148370 -0.4983286581 79.3477158770 0.0524746774 0.0000463019
1.1126344708 1.0604125131 0.0000000000 1.1966857859 -0.0290245969 -288.8829063288 0.0519742992 -0.0002476588
1.1108912645 -1.0610945378 0.0000000000 1.3063620660 -0.0012723785 -242.4453336466 0.0502310920 -0.0004343667
-1.0086829536 1.0603095284 0.0000000000 0.9514301870 0.1661227306 42.4665226784 0.0519772185 -0.0003506431
-1.0092169939 -1.0601624159 0.0000000000 0.9415428563 -0.1774432075 91.2770415517 0.0514431774 0.0004977564
4.2500134064 3.2984369527 0.0000000000 1.0377494764 -0.0264252429 -8.5720011053 0.0500134064 -0.0015630473
4.2413932938 -3.3039708358 0.0000000000 1.0061980442 -0.0091315404 7.2162736165 0.0413932938 -0.0039708358
20.0000000000 4.7000000000 0.0000000000 1.0060639206 -0.0260506940 -0.0342512071 0.0000000000 0.0000000000
20.0000000000 -4.7000000000 0.0000000000 1.0127708620 0.0149292677 -0.0005597405 0.0000000000 0.0000000000
-10.0000000000 15.0000000000 0.0000000000 1.0000000000 0.0000000000 8.5362661844 0.0000000000 0.0000000000
20.0000000000 15.0000000000 0.0000000000 1.0075630865 0.0000000000 -0.0128011475 0.0000000000 0.0000000000
20.0000000000 -15.0000000000 0.0000000000 1.0064883896 0.0000000000 -0.0062319810 0.0000000000 0.0000000000
-10.0000000000 -15.0000000000 0.0000000000 1.0000000000 0.0000000000 19.3137881126 0.0000000000 0.0000000000
0.4191600270 -0.3401483545 0.0000000000 0.0000000000 0.0000000000 -332.7958806889 0.0526340908 -0.0000619859
0.4316199526 -0.3262056913 0.0000000000 0.0000000000 0.0000000000 -333.5089149196 0.0526340908 -0.0000619859
0.4435498322 -0.3118068866 0.0000000000 0.0000000000 0.0000000000 -334.2676175737 0.0526340908 -0.0000619859
0.4549329809 -0.2969720784 0.0000000000 0.0000000000 0.0000000000 -335.2246262810 0.0526340908 -0.0000619859
0.4657534781 -0.2817220147 0.0000000000 0.0000000000 0.0000000000 -336.2677584172 0.0526340908 -0.0000619859
0.4759961906 -0.2660780239 0.0000000000 0.0000000000 0.0000000000 -337.4126689263 0.0526340908 -0.0000619859
0.4856467929 -0.2500619856 0.0000000000 0.0000000000 0.0000000000 -338.6232741701 0.0526340908 -0.0000619859
0.4946917877 -0.2336962998 0.0000000000 0.0000000000 0.0000000000 -339.8952299313 0.0526340908 -0.0000619859
0.5031185249 -0.2170038552 0.0000000000 0.0000000000 0.0000000000 -341.2176045178 0.0526340908 -0.0000619859
0.5109152189 -0.2000079978 0.0000000000 0.0000000000 0.0000000000 -342.5901813944 0.0526340908 -0.0000619859
0.5180709652 -0.1827324978 0.0000000000 0.0000000000 0.0000000000 -344.0149490431 0.0526340908 -0.0000619859
0.5245757560 -0.1652015166 0.0000000000 0.0000000000 0.0000000000 -345.4995514502 0.0526340908 -0.0000619859
0.5304204938 -0.1474395729 0.0000000000 0.0000000000 0.0000000000 -347.0551782110 0.0526340908 -0.0000619859
0.5355970040 -0.1294715082 0.0000000000 0.0000000000 0.0000000000 -348.6970000153 0.0526340908 -0.0000619859
0.5400980470 -0.1113224526 0.0000000000 0.0000000000 0.0000000000 -350.4432208447 0.0526340908 -0.0000619859
0.5439173275 -0.0930177893 0.0000000000 0.0000000000 0.0000000000 -352.3144978516 0.0526340908 -0.0000619859
0.5470495040 -0.0745831188 0.0000000000 0.0000000000 0.0000000000 -354.3328184743 0.0526340908 -0.0000619859
0.5494901958 -0.0560442237 0.0000000000 0.0000000000 0.0000000000 -356.5202572063 0.0526340908 -0.0000619859
0.5512359894 -0.0374270325 0.0000000000 0.0000000000 0.0000000000 -358.8974534514 0.0526340908 -0.0000619859
0.5522844432 -0.0187575828 0.0000000000 0.0000000000 0.0000000000 -361.4819973204 0.0526340908 -0.0000619859
0.5526340908 -0.0000619857 0.0000000000 0.0000000000 0.0000000000 -364.2867898112 0.0526340908 -0.0000619859
0.5522844432 0.0186336114 0.0000000000 0.0000000000 0.0000000000 -367.3185404437 0.0526340908 -0.0000619859
0.5512359894 0.0373030611 0.0000000000 0.0000000000 0.0000000000 -370.5765278217 0.0526340908 -0.0000619859
0.5494901957 0.0559202523 0.0000000000 0.0000000000 0.0000000000 -374.0517677277 0.0526340908 -0.0000619859
0.5470495039 0.0744591474 0.0000000000 0.0000000000 0.0000000000 -377.7266820769 0.0526340908 -0.0000619859
0.5439173274 0.0928938178 0.0000000000 0.0000000000 0.0000000000 -381.5753653177 0.0526340908 -0.0000619859
0.5400980469 0.1111984812 0.0000000000 0.0000000000 0.0000000000 -385.5644371803 0.0526340908 -0.0000619859
0.5355970039 0.1293475368 0.0000000000 0.0000000000 0.0000000000 -389.6545373753 0.0526340908 -0.0000619859
0.5304204937 0.1473156014 0.0000000000 0.0000000000 0.0000000000 -393.8022652370 0.0526340908 -0.0000619859
0.5245757559 0.1650775452 0.0000000000 0.0000000000 0.0000000000 -397.9627029173 0.0526340908 -0.0000619859
0.5180709651 0.1826085264 0.0000000000 0.0000000000 0.0000000000 -402.0919551537 0.0526340908 -0.0000619859
0.5109152187 0.1998840264 0.0000000000 0.0000000000 0.0000000000 -406.1503583500 0.0526340908 -0.0000619859
0.5031185247 0.2168798838 0.0000000000 0.0000000000 0.0000000000 -410.1047988313 0.0526340908 -0.0000619859
0.4946917875 0.2335723283 0.0000000000 0.0000000000 0.0000000000 -413.9326319084 0.0526340908 -0.0000619859
0.4856467926 0.2499380142 0.0000000000 0.0000000000 0.0000000000 -417.6224212926 0.0526340908 -0.0000619859
0.4759961904 0.2659540524 0.0000000000 0.0000000000 0.0000000000 -421.1801155530 0.0526340908 -0.0000619859
0.4657534779 0.2815980432 0.0000000000 0.0000000000 0.0000000000 -424.6245100611 0.0526340908 -0.0000619859
0.4549329806 0.2968481069 0.0000000000 0.0000000000 0.0000000000 -428.0025634750 0.0526340908 -0.0000619859
0.4435498320 0.3116829151 0.0000000000 0.0000000000 0.0000000000 -431.3637278363 0.0526340908 -0.0000619859
0.4316199523 0.3260817198 0.0000000000 0.0000000000 0.0000000000 -434.8177123658 0.0526340908 -0.0000619859
0.4191600267 0.3400243830 0.0000000000 0.0000000000 0.0000000000 -438.4006573941 0.0526340908 -0.0000619859
0.3912748766 0.3677999695 0.0000000000 0.0000000000 0.0000000000 -447.1575896826 0.0526340908 -0.0000619859
0.3757837097 0.3814800482 0.0000000000 0.0000000000 0.0000000000 -452.7598643069 0.0526340908 -0.0000619859
0.3597404471 0.3945082688 0.0000000000 0.0000000000 0.0000000000 -459.1840284481 0.0526340908 -0.0000619859
0.3431724985 0.4068623728 0.0000000000 0.0000000000 0.0000000000 -466.6783310661 0.0526340908 -0.0000619859
0.3261081698 0.4185212533 0.0000000000 0.0000000000 0.0000000000 -475.3483155513 0.0526340908 -0.0000619859
0.3085766153 0.4294649913 0.0000000000 0.0000000000 0.0000000000 -485.3352445955 0.0526340908 -0.0000619859
0.2906077873 0.4396748897 0.0000000000 0.0000000000 0.0000000000 -496.7295438262 0.0526340908 -0.0000619859
0.2722323852 0.4491335051 0.0000000000 0.0000000000 0.0000000000 -509.6093458737 0.0526340908 -0.0000619859
0.2534818031 0.4578246774 0.0000000000 0.0000000000 0.0000000000 -524.0081325385 0.0526340908 -0.0000619859
0.2343880760 0.4657335581 0.0000000000 0.0000000000 0.0000000000 -539.9121762690 0.0526340908 -0.0000619859
0.2149838253 0.4728466350 0.0000000000 0.0000000000 0.0000000000 -557.2371663904 0.0526340908 -0.0000619859
0.1953022029 0.4791517553 0.0000000000 0.0000000000 0.0000000000 -575.8167325109 0.0526340908 -0.0000619859
0.1753768343 0.4846381471 0.0000000000 0.0000000000 0.0000000000 -595.3906197642 0.0526340908 -0.0000619859
0.1552417618 0.4892964368 0.0000000000 0.0000000000 0.0000000000 -615.6031622131 0.0526340908 -0.0000619859
0.1349313859 0.4931186658 0.0000000000 0.0000000000 0.0000000000 -636.0079550797 0.0526340908 -0.0000619859
0.1144804063 0.4960983040 0.0000000000 0.0000000000 0.0000000000 -656.0809473077 0.0526340908 -0.0000619859
0.0939237634 0.4982302606 0.0000000000 0.0000000000 0.0000000000 -675.2394344456 0.0526340908 -0.0000619859
0.0732965778 0.4995108933 0.0000000000 0.0000000000 0.0000000000 -692.8659163002 0.0526340908 -0.0000619859
0.0526340907 0.4999380141 0.0000000000 0.0000000000 0.0000000000 -708.3341639255 0.0526340908 -0.0000619859
0.0319716036 0.4995108933 0.0000000000 0.0000000000 0.0000000000 -721.0353385917 0.0526340908 -0.0000619859
0.0113444180 0.4982302606 0.0000000000 0.0000000000 0.0000000000 -730.4019317264 0.0526340908 -0.0000619859
-0.0092122249 0.4960983039 0.0000000000 0.0000000000 0.0000000000 -735.9279879364 0.0526340908 -0.0000619859
-0.0296632044 0.4931186658 0.0000000000 0.0000000000 0.0000000000 -737.1846379522 0.0526340908 -0.0000619859
-0.0499735804 0.4892964367 0.0000000000 0.0000000000 0.0000000000 -733.8306508943 0.0526340908 -0.0000619859
-0.0701086529 0.4846381470 0.0000000000 0.0000000000 0.0000000000 -725.6182183802 0.0526340908 -0.0000619859
-0.0900340214 0.4791517553 0.0000000000 0.0000000000 0.0000000000 -712.3945564174 0.0526340908 -0.0000619859
-0.1097156439 0.4728466349 0.0000000000 0.0000000000 0.0000000000 -694.1001012831 0.0526340908 -0.0000619859
-0.1291198946 0.4657335581 0.0000000000 0.0000000000 0.0000000000 -670.7641323572 0.0526340908 -0.0000619859
-0.1482136216 0.4578246774 0.0000000000 0.0000000000 0.0000000000 -642.4986059632 0.0526340908 -0.0000619859
-0.1669642037 0.4491335050 0.0000000000 0.0000000000 0.0000000000 -609.4908753360 0.0526340908 -0.0000619859
-0.1853396058 0.4396748896 0.0000000000 0.0000000000 0.0000000000 -571.9958335037 0.0526340908 -0.0000619859
-0.2033084339 0.4294649912 0.0000000000 0.0000000000 0.0000000000 -530.3278731334 0.0526340908 -0.0000619859
-0.2208399884 0.4185212531 0.0000000000 0.0000000000 0.0000000000 -484.8529247943 0.0526340908 -0.0000619859
-0.2379043170 0.4068623726 0.0000000000 0.0000000000 0.0000000000 -435.9807223660 0.0526340908 -0.0000619859
-0.2544722657 0.3945082687 0.0000000000 0.0000000000 0.0000000000 -384.1573577901 0.0526340908 -0.0000619859
-0.2705155282 0.3814800481 0.0000000000 0.0000000000 0.0000000000 -329.8581320409 0.0526340908 -0.0000619859
-0.2860066951 0.3677999693 0.0000000000 0.0000000000 0.0000000000 -273.5806872040 0.0526340908 -0.0000619859
-0.3152278646 0.3385787998 0.0000000000 0.0000000000 0.0000000000 -157.1541415474 0.0526340908 -0.0000619859
-0.3289079434 0.3230876329 0.0000000000 0.0000000000 0.0000000000 -98.0541903449 0.0526340908 -0.0000619859
-0.3419361640 0.3070443703 0.0000000000 0.0000000000 0.0000000000 -39.0627847762 0.0526340908 -0.0000619859
-0.3542902679 0.2904764217 0.0000000000 0.0000000000 0.0000000000 19.3030731877 0.0526340908 -0.0000619859
-0.3659491484 0.2734120930 0.0000000000 0.0000000000 0.0000000000 76.5382946102 0.0526340908 -0.0000619859
-0.3768928865 0.2558805385 0.0000000000 0.0000000000 0.0000000000 132.1539725131 0.0526340908 -0.0000619859
-0.3871027849 0.2379117105 0.0000000000 0.0000000000 0.0000000000 185.6812818090 0.0526340908 -0.0000619859
-0.3965614002 0.2195363084 0.0000000000 0.0000000000 0.0000000000 236.6750680023 0.0526340908 -0.0000619859
-0.4052525726 0.2007857263 0.0000000000 0.0000000000 0.0000000000 284.7171725161 0.0526340908 -0.0000619859
-0.4131614533 0.1816919992 0.0000000000 0.0000000000 0.0000000000 329.4195233884 0.0526340908 -0.0000619859
-0.4202745301 0.1622877485 0.0000000000 0.0000000000 0.0000000000 370.4269998676 0.0526340908 -0.0000619859
-0.4265796505 0.1426061260 0.0000000000 0.0000000000 0.0000000000 407.4200635556 0.0526340908 -0.0000619859
-0.4320660422 0.1226807575 0.0000000000 0.0000000000 0.0000000000 440.1171391693 0.0526340908 -0.0000619859
-0.4367243319 0.1025456850 0.0000000000 0.0000000000 0.0000000000 468.2767241680 0.0526340908 -0.0000619859
-0.4405465609 0.0822353090 0.0000000000 0.0000000000 0.0000000000 491.6992067890 0.0526340908 -0.0000619859
-0.4435261991 0.0617843295 0.0000000000 0.0000000000 0.0000000000 510.2283746658 0.0526340908 -0.0000619859
-0.4456581557 0.0412276866 0.0000000000 0.0000000000 0.0000000000 523.7525998445 0.0526340908 -0.0000619859
-0.4469387884 0.0206005010 0.0000000000 0.0000000000 0.0000000000 532.2056897212 0.0526340908 -0.0000619859
-0.4473659092 -0.0000619861 0.0000000000 0.0000000000 0.0000000000 535.5673966544 0.0526340908 -0.0000619859
-0.4469387884 -0.0207244732 0.0000000000 0.0000000000 0.0000000000 533.8635814228 0.0526340908 -0.0000619859
-0.4456581557 -0.0413516589 0.0000000000 0.0000000000 0.0000000000 527.1660271489 0.0526340908 -0.0000619859
-0.4435261990 -0.0619083018 0.0000000000 0.0000000000 0.0000000000 515.5919008007 0.0526340908 -0.0000619859
-0.4405465609 -0.0823592813 0.0000000000 0.0000000000 0.0000000000 499.3028590680 0.0526340908 -0.0000619859
-0.4367243318 -0.1026696572 0.0000000000 0.0000000000 0.0000000000 478.5037944787 0.0526340908 -0.0000619859
-0.4320660421 -0.1228047297 0.0000000000 0.0000000000 0.0000000000 453.4412164118 0.0526340908 -0.0000619859
-0.4265796504 -0.1427300982 0.0000000000 0.0000000000 0.0000000000 424.4012604080 0.0526340908 -0.0000619859
-0.4202745300 -0.1624117207 0.0000000000 0.0000000000 0.0000000000 391.7073181380 0.0526340908 -0.0000619859
-0.4131614531 -0.1818159714 0.0000000000 0.0000000000 0.0000000000 355.7172795799 0.0526340908 -0.0000619859
-0.4052525724 -0.2009096984 0.0000000000 0.0000000000 0.0000000000 316.8203785784 0.0526340908 -0.0000619859
-0.3965614000 -0.2196602805 0.0000000000 0.0000000000 0.0000000000 275.4336326554 0.0526340908 -0.0000619859
-0.3871027847 -0.2380356826 0.0000000000 0.0000000000 0.0000000000 231.9978684365 0.0526340908 -0.0000619859
-0.3768928863 -0.2560045107 0.0000000000 0.0000000000 0.0000000000 186.9733242602 0.0526340908 -0.0000619859
-0.3659491482 -0.2735360652 0.0000000000 0.0000000000 0.0000000000 140.8348241748 0.0526340908 -0.0000619859
-0.3542902677 -0.2906003938 0.0000000000 0.0000000000 0.0000000000 94.0665187691 0.0526340908 -0.0000619859
-0.3419361637 -0.3071683424 0.0000000000 0.0000000000 0.0000000000 47.1561971305 0.0526340908 -0.0000619859
-0.3289079431 -0.3232116050 0.0000000000 0.0000000000 0.0000000000 0.5891764537 0.0526340908 -0.0000619859
-0.3152278644 -0.3387027719 0.0000000000 0.0000000000 0.0000000000 -45.1581996122 0.0526340908 -0.0000619859
-0.2860066948 -0.3679239414 0.0000000000 0.0000000000 0.0000000000 -132.3749677850 0.0526340908 -0.0000619859
-0.2705155279 -0.3816040202 0.0000000000 0.0000000000 0.0000000000 -172.9996159635 0.0526340908 -0.0000619859
-0.2544722653 -0.3946322408 0.0000000000 0.0000000000 0.0000000000 -211.1298481304 0.0526340908 -0.0000619859
-0.2379043167 -0.4069863447 0.0000000000 0.0000000000 0.0000000000 -246.4410899178 0.0526340908 -0.0000619859
-0.2208399880 -0.4186452252 0.0000000000 0.0000000000 0.0000000000 -278.6605888315 0.0526340908 -0.0000619859
-0.2033084335 -0.4295889632 0.0000000000 0.0000000000 0.0000000000 -307.5736450197 0.0526340908 -0.0000619859
-0.1853396055 -0.4397988616 0.0000000000 0.0000000000 0.0000000000 -333.0288590360 0.0526340908 -0.0000619859
-0.1669642034 -0.4492574770 0.0000000000 0.0000000000 0.0000000000 -354.9420478129 0.0526340908 -0.0000619859
-0.1482136213 -0.4579486493 0.0000000000 0.0000000000 0.0000000000 -373.2984620438 0.0526340908 -0.0000619859
-0.1291198942 -0.4658575300 0.0000000000 0.0000000000 0.0000000000 -388.1529722749 0.0526340908 -0.0000619859
-0.1097156435 -0.4729706069 0.0000000000 0.0000000000 0.0000000000 -399.6279543639 0.0526340908 -0.0000619859
-0.0900340210 -0.4792757272 0.0000000000 0.0000000000 0.0000000000 -407.9087203770 0.0526340908 -0.0000619859
-0.0701086525 -0.4847621189 0.0000000000 0.0000000000 0.0000000000 -413.2364949395 0.0526340908 -0.0000619859
-0.0499735800 -0.4894204086 0.0000000000 0.0000000000 0.0000000000 -415.8991261483 0.0526340908 -0.0000619859
-0.0296632040 -0.4932426377 0.0000000000 0.0000000000 0.0000000000 -416.2199207378 0.0526340908 -0.0000619859
-0.0092122245 -0.4962222758 0.0000000000 0.0000000000 0.0000000000 -414.5451828464 0.0526340908 -0.0000619859
0.0113444184 -0.4983542324 0.0000000000 0.0000000000 0.0000000000 -411.2311811400 0.0526340908 -0.0000619859
0.0319716040 -0.4996348651 0.0000000000 0.0000000000 0.0000000000 -406.6313493507 0.0526340908 -0.0000619859
0.0526340911 -0.5000619859 0.0000000000 0.0000000000 0.0000000000 -401.0845124124 0.0526340908 -0.0000619859
0.0732965782 -0.4996348651 0.0000000000 0.0000000000 0.0000000000 -394.9048401735 0.0526340908 -0.0000619859
0.0939237639 -0.4983542324 0.0000000000 0.0000000000 0.0000000000 -388.3740407141 0.0526340908 -0.0000619859
0.1144804068 -0.4962222757 0.0000000000 0.0000000000 0.0000000000 -381.7361173164 0.0526340908 -0.0000619859
0.1349313863 -0.4932426376 0.0000000000 0.0000000000 0.0000000000 -375.1947275050 0.0526340908 -0.0000619859
0.1552417622 -0.4894204085 0.0000000000 0.0000000000 0.0000000000 -368.9130913020 0.0526340908 -0.0000619859
0.1753768347 -0.4847621188 0.0000000000 0.0000000000 0.0000000000 -363.0159343816 0.0526340908 -0.0000619859
0.1953022032 -0.4792757270 0.0000000000 0.0000000000 0.0000000000 -357.5931322904 0.0526340908 -0.0000619859
0.2149838257 -0.4729706067 0.0000000000 0.0000000000 0.0000000000 -352.7035254761 0.0526340908 -0.0000619859
0.2343880764 -0.4658575298 0.0000000000 0.0000000000 0.0000000000 -348.3793802857 0.0526340908 -0.0000619859
0.2534818034 -0.4579486491 0.0000000000 0.0000000000 0.0000000000 -344.6287136520 0.0526340908 -0.0000619859
0.2722323855 -0.4492574767 0.0000000000 0.0000000000 0.0000000000 -341.4414537145 0.0526340908 -0.0000619859
0.2906077876 -0.4397988613 0.0000000000 0.0000000000 0.0000000000 -338.7891166780 0.0526340908 -0.0000619859
0.3085766156 -0.4295889629 0.0000000000 0.0000000000 0.0000000000 -336.6415038996 0.0526340908 -0.0000619859
0.3261081702 -0.4186452249 0.0000000000 0.0000000000 0.0000000000 -334.9507095731 0.0526340908 -0.0000619859
0.3431724988 -0.4069863443 0.0000000000 0.0000000000 0.0000000000 -333.7040250738 0.0526340908 -0.0000619859
0.3597404474 -0.3946322404 0.0000000000 0.0000000000 0.0000000000 -332.8253596744 0.0526340908 -0.0000619859
0.3757837100 -0.3816040198 0.0000000000 0.0000000000 0.0000000000 -332.3883575035 0.0526340908 -0.0000619859
0.3912748769 -0.3679239410 0.0000000000 0.0000000000 0.0000000000 -332.1605334532 0.0526340908 -0.0000619859
0.6020520130 -0.5102881779 0.0000000000 -0.0039374208 -0.0782018986 -324.7077793903 0.0522631087 -0.0001586250
0.6207622614 -0.4893778647 0.0000000000 -0.0239580492 -0.0851965348 -325.3169965681 0.0522834687 -0.0001623066
0.6386771243 -0.4677826243 0.0000000000 -0.0372140503 -0.0924027148 -326.1038549525 0.0523035122 -0.0001652733
0.6557714233 -0.4455327068 0.0000000000 -0.0453484538 -0.0994597827 -327.0520666288 0.0523230882 -0.0001675681
0.6720211397 -0.4226592744 0.0000000000 -0.0499311097 -0.1060274284 -328.1459541861 0.0523420587 -0.0001692312
0.6874034537 -0.3991943601 0.0000000000 -0.0523111106 -0.1118159433 -329.3751990610 0.0523603040 -0.0001703031
0.7018967793 -0.3751708239 0.0000000000 -0.0535390033 -0.1166019011 -330.7359954648 0.0523777262 -0.0001708243
0.7154807963 -0.3506223057 0.0000000000 -0.0543580572 -0.1202295388 -332.2305616737 0.0523942510 -0.0001708349
0.7281364787 -0.3255831781 0.0000000000 -0.0552430483 -0.1226032523 -333.8658107699 0.0524098276 -0.0001703741
0.7398461196 -0.3000884976 0.0000000000 -0.0564596830 -0.1236767273 -335.6520572558 0.0524244276 -0.0001694798
0.7505933539 -0.2741739554 0.0000000000 -0.0581239662 -0.1234422219 -337.6021281057 0.0524380422 -0.0001681875
0.7603631772 -0.2478758269 0.0000000000 -0.0602508714 -0.1219214791 -339.7308205714 0.0524506794 -0.0001665308
0.7691419643 -0.2212309210 0.0000000000 -0.0627898724 -0.1191585796 -342.0544533002 0.0524623598 -0.0001645406
0.7769174841 -0.1942765290 0.0000000000 -0.0656492839 -0.1152146256 -344.5902573475 0.0524731143 -0.0001622456
0.7836789145 -0.1670503727 0.0000000000 -0.0687125830 -0.1101640603 -347.3554515763 0.0524829803 -0.0001596726
0.7894168548 -0.1395905518 0.0000000000 -0.0718494457 -0.1040923915 -350.3659624988 0.0524919998 -0.0001568468
0.7941233370 -0.1119354914 0.0000000000 -0.0749233268 -0.0970950322 -353.6348408738 0.0525002173 -0.0001537921
0.7977918354 -0.0841238885 0.0000000000 -0.0777966261 -0.0892769300 -357.1704861089 0.0525076779 -0.0001505318
0.8004172742 -0.0561946586 0.0000000000 -0.0803339923 -0.0807526678 -360.9748191888 0.0525144263 -0.0001470887
0.8019960343 -0.0281868812 0.0000000000 -0.0824040798 -0.0716467799 -365.0415533616 0.0525205057 -0.0001434858
0.8025259570 -0.0001397458 0.0000000000 -0.0838800188 -0.0620941062 -369.3547062217 0.0525259570 -0.0001397461
0.8020063471 0.0279075026 0.0000000000 -0.0846389032 -0.0522400754 -373.8874833692 0.0525308185 -0.0001358934
0.8004379730 0.0559156185 0.0000000000 -0.0845606762 -0.0422408207 -378.6016482844 0.0525351252 -0.0001319519
0.7978230664 0.0838454109 0.0000000000 -0.0835268298 -0.0322629968 -383.4474796935 0.0525389091 -0.0001279465
0.7941653186 0.1116577977 0.0000000000 -0.0814192699 -0.0224830928 -388.3644071570 0.0525421990 -0.0001239022
0.7894698758 0.1393138609 0.0000000000 -0.0781194894 -0.0130859559 -393.2824031720 0.0525450209 -0.0001198447
0.7837433322 0.1667749012 0.0000000000 -0.0735078169 -0.0042622077 -398.1241857554 0.0525473981 -0.0001157995
0.7769937213 0.1940024920 0.0000000000 -0.0674620018 0.0037957265 -402.8082369837 0.0525493517 -0.0001117920
0.7692305049 0.2209585341 0.0000000000 -0.0598538113 0.0108991125 -407.2525613081 0.0525509006 -0.0001078470
0.7604645598 0.2476053084 0.0000000000 -0.0505417759 0.0168698574 -411.3789945651 0.0525520621 -0.0001039882
0.7507081628 0.2739055300 0.0000000000 -0.0393578160 0.0215486248 -415.1177494793 0.0525528514 -0.0001002385
0.7399749737 0.2998223998 0.0000000000 -0.0260853377 0.0248037250 -418.4117833815 0.0525532819 -0.0000966186
0.7282800158 0.3253196568 0.0000000000 -0.0104266301 0.0265405271 -421.2205442619 0.0525533649 -0.0000931477
0.7156396546 0.3503616290 0.0000000000 0.0080416258 0.0267116589 -423.5227236527 0.0525531096 -0.0000898423
0.7020715752 0.3749132831 0.0000000000 0.0299233880 0.0253291053 -425.3178061157 0.0525525224 -0.0000867170
0.6875947567 0.3989402739 0.0000000000 0.0560618614 0.0224801032 -426.6263793812 0.0525516074 -0.0000837836
0.6722294467 0.4224089917 0.0000000000 0.0875843707 0.0183484309 -427.4892489015 0.0525503660 -0.0000810519
0.6559971323 0.4452866091 0.0000000000 0.1259014779 0.0132398790 -427.9653614558 0.0525487975 -0.0000785302
0.6389205112 0.4675411256 0.0000000000 0.1726152773 0.0076045238 -428.1285606884 0.0525468994 -0.0000762259
0.6210234601 0.4891414120 0.0000000000 0.2292943161 0.0020407295 -428.0637147367 0.0525446678 -0.0000741465
0.6023309998 0.5100572517 0.0000000000 0.2971055063 -0.0027374729 -427.8598614239 0.0525420960 -0.0000723017
0.5604972981 0.5517247956 0.0000000000 0.4760684156 -0.0070030111 -427.4597947554 0.0525361195 -0.0000681375
0.5372570564 0.5722470964 0.0000000000 0.5853111478 -0.0046925904 -427.4894474328 0.0525326281 -0.0000659548
0.5131882866 0.5917912699 0.0000000000 0.6989280038 0.0010363213 -427.8416588616 0.0525287521 -0.0000641122
0.4883321499 0.6103239511 0.0000000000 0.8109454765 0.0098676516 -428.6093693266 0.0525245385 -0.0000625869
0.4627311524 0.6278134955 0.0000000000 0.9156623350 0.0211482448 -429.8057627291 0.0525200339 -0.0000613632
0.4364290746 0.6442300360 0.0000000000 1.0086447138 0.0340810895 -431.3712410991 0.0525152879 -0.0000604298
0.4094708985 0.6595455348 0.0000000000 1.0872821884 0.0479105806 -433.1968797958 0.0525103538 -0.0000597787
0.3819027317 0.6737338320 0.0000000000 1.1508423091 0.0620584952 -435.1530482997 0.0525052902 -0.0000594045
0.3537717281 0.6867706912 0.0000000000 1.2001318435 0.0761874735 -437.1093578835 0.0525001597 -0.0000593038
0.3251260065 0.6986338419 0.0000000000 1.2369558369 0.0901947486 -438.9426838111 0.0524950287 -0.0000594742
0.2960145679 0.7093030184 0.0000000000 1.2635612651 0.1041577355 -440.5361661385 0.0524899662 -0.0000599129
0.2664872098 0.7187599955 0.0000000000 1.2821921415 0.1182600110 -441.7733971685 0.0524850418 -0.0000606164
0.2365944402 0.7269886201 0.0000000000 1.2948075552 0.1327214566 -442.5316184839 0.0524803249 -0.0000615794
0.2063873898 0.7339748396 0.0000000000 1.3029541179 0.1477459397 -442.6768148633 0.0524758833 -0.0000627944
0.1759177240 0.7397067261 0.0000000000 1.3077522098 0.1634898564 -442.0622182749 0.0524717814 -0.0000642515
0.1452375534 0.7441744964 0.0000000000 1.3099485353 0.1800484097 -440.5303130753 0.0524680801 -0.0000659384
0.1143993443 0.7473705293 0.0000000000 1.3099958853 0.1974540166 -437.9174508554 0.0524648353 -0.0000678405
0.0834558283 0.7492893780 0.0000000000 1.3081346658 0.2156814844 -434.0598267195 0.0524620978 -0.0000699408
0.0524599120 0.7499277792 0.0000000000 1.3044632234 0.2346560522 -428.7997013632 0.0524599122 -0.0000722208
0.0214645859 0.7492846587 0.0000000000 1.2989926864 0.2542619731 -421.9911118962 0.0524583167 -0.0000746601
-0.0094771665 0.7473611330 0.0000000000 1.2916868887 0.2743505222 -413.5046825882 0.0524573428 -0.0000772367
-0.0403124590 0.7441605077 0.0000000000 1.2824900002 0.2947470602 -403.2314173363 0.0524570146 -0.0000799271
-0.0709885939 0.7396882720 0.0000000000 1.2713448908 0.3152571593 -391.0855109314 0.0524573490 -0.0000827056
-0.1014531516 0.7339520896 0.0000000000 1.2582049014 0.3356719395 -377.0062831304 0.0524583552 -0.0000855444
-0.1316540809 0.7269617863 0.0000000000 1.2430410872 0.3557727830 -360.9593544663 0.0524600346 -0.0000884131
-0.1615397875 0.7187293332 0.0000000000 1.2258464186 0.3753355631 -342.9371741693 0.0524623808 -0.0000912786
-0.1910592226 0.7092688265 0.0000000000 1.2066379486 0.3941344840 -322.9589954150 0.0524653795 -0.0000941047
-0.2201619698 0.6985964637 0.0000000000 1.1854576188 0.4119455862 -301.0703790408 0.0524690082 -0.0000968522
-0.2487983319 0.6867305155 0.0000000000 1.1623721397 0.4285499503 -277.3422960620 0.0524732367 -0.0000994795
-0.2769194152 0.6736912941 0.0000000000 1.1374722285 0.4437366119 -251.8698914868 0.0524780266 -0.0001019422
-0.3044772134 0.6595011183 0.0000000000 1.1108713933 0.4573051936 -224.7709660027 0.0524833316 -0.0001041950
-0.3314246892 0.6441842741 0.0000000000 1.0827043895 0.4690682566 -196.1842271429 0.0524890978 -0.0001061916
-0.3577158546 0.6277669721 0.0000000000 1.0531254384 0.4788533740 -166.2673568937 0.0524952642 -0.0001078865
-0.3833058489 0.6102773018 0.0000000000 1.0223062732 0.4865049288 -135.1949380655 0.0525017628 -0.0001092361
-0.4081510145 0.5917451821 0.0000000000 0.9904340625 0.4918856433 -103.1562770821 0.0525085202 -0.0001101998
-0.4322089703 0.5722023091 0.0000000000 0.9577092497 0.4948778450 -70.3531560184 0.0525154582 -0.0001107419
-0.4554386829 0.5516821002 0.0000000000 0.9243433399 0.4953844789 -36.9975429252 0.0525224960 -0.0001108327
-0.4992563993 0.5078516246 0.0000000000 0.8565761178 0.4886602448 30.4862086682 0.0525365339 -0.0001095539
-0.5197696790 0.4846162707 0.0000000000 0.8226329424 0.4813440722 64.1602215989 0.0525433723 -0.0001081575
-0.5393053914 0.4605532788 0.0000000000 0.7889604866 0.4713721106 97.4830143119 0.0525499908 -0.0001062555
-0.5578302178 0.4357037601 0.0000000000 0.7557920461 0.4587573014 130.2259984189 0.0525563203 -0.0001038513
-0.5753125585 0.4101101625 0.0000000000 0.7233587311 0.4435344641 162.1638684943 0.0525623003 -0.0001009559
-0.5917225864 0.3838161997 0.0000000000 0.6918874060 0.4257598085 193.0766467126 0.0525678795 -0.0000975869
-0.6070322970 0.3568667772 0.0000000000 0.6615987117 0.4055102821 222.7516311027 0.0525730165 -0.0000937674
-0.6212155567 0.3293079159 0.0000000000 0.6327051840 0.3828827647 250.9852360271 0.0525776798 -0.0000895255
-0.6342481480 0.3011866746 0.0000000000 0.6054094825 0.3579931176 277.5847163561 0.0525818471 -0.0000848937
-0.6461078120 0.2725510701 0.0000000000 0.5799027353 0.3309750955 302.3697689797 0.0525855041 -0.0000799076
-0.6567742879 0.2434499955 0.0000000000 0.5563630072 0.3019791312 325.1740060083 0.0525886434 -0.0000746061
-0.6662293490 0.2139331375 0.0000000000 0.5349538980 0.2711710042 345.8462936784 0.0525912629 -0.0000690304
-0.6744568355 0.1840508918 0.0000000000 0.5158232871 0.2387304062 364.2519513998 0.0525933640 -0.0000632233
-0.6814426833 0.1538542771 0.0000000000 0.4991022439 0.2048494133 380.2738077222 0.0525949507 -0.0000572293
-0.6871749493 0.1233948487 0.0000000000 0.4849041136 0.1697308625 393.8131122823 0.0525960283 -0.0000510938
-0.6916438323 0.0927246104 0.0000000000 0.4733237614 0.1335866256 404.7902994838 0.0525966025 -0.0000448627
-0.6948416911 0.0618959265 0.0000000000 0.4644369269 0.0966357826 413.1455894082 0.0525966787 -0.0000385823
-0.6967630570 0.0309614319 0.0000000000 0.4582996408 0.0591027276 418.8394045446 0.0525962618 -0.0000322985
-0.6974046445 -0.0000260566 0.0000000000 0.4549477019 0.0212152583 421.8525876900 0.0525953555 -0.0000260563
-0.6967653563 -0.0310136305 0.0000000000 0.4543962869 -0.0167973104 422.1864384704 0.0525939624 -0.0000198995
-0.6948462862 -0.0619483796 0.0000000000 0.4566397425 -0.0547059980 419.8625857269 0.0525920835 -0.0000138702
-0.6916507165 -0.0927774816 0.0000000000 0.4616515862 -0.0922839691 414.9227089400 0.0525897182 -0.0000080078
-0.6871841135 -0.1234482918 0.0000000000 0.4693847720 -0.1293083124 407.4281274865 0.0525868640 -0.0000023488
-0.6814541173 -0.1539084329 0.0000000000 0.4797722236 -0.1655618129 397.4592537951 0.0525835166 0.0000030741