 TITLE = "Tecplot data"
 VARIABLES = "X", "Y", "Z" "U", "V", "p", "dispX", "dispY"
 ZONE SOLUTIONTIME=126.900000, NODES=26114 , ELEMENTS=25916, DATAPACKING=POINT, ZONETYPE=FEQUADRILATERAL
0.4086814663 0.4086814664 0.0000000000 0.0014158852 0.0014158852 -409.1193454111 0.0551280757 0.0551280757
0.4086814666 -0.2984253146 0.0000000000 0.0014158852 0.0014158852 -479.3675375564 0.0551280757 0.0551280757
-0.2984253150 0.4086814662 0.0000000000 0.0014158852 0.0014158852 -105.8636386027 0.0551280757 0.0551280757
-0.2984253147 -0.2984253150 0.0000000000 0.0014158852 0.0014158852 -254.9172654955 0.0551280757 0.0551280757
0.5808602527 0.5809164137 0.0000000000 0.2029050628 -0.0510708742 -413.2674363456 0.0505301669 0.0505863278
0.5760352745 -0.4845333843 0.0000000000 0.4398272843 0.0028396596 -454.6661255867 0.0457051882 0.0457967012
-0.4849230217 0.5759006333 0.0000000000 0.8324589386 0.4614727108 85.8224944821 0.0454070644 0.0455705476
-0.4801953352 -0.4797092612 0.0000000000 0.9266667568 -0.5181374479 -2.8387878987 0.0501347504 0.0506208250
1.1007494887 1.1008240966 0.0000000000 1.1514398006 0.0432542198 -98.0044786629 0.0400893170 0.0401639247
1.0929538381 -1.0280281419 0.0000000000 1.2452314095 0.1937531177 -258.6757790160 0.0322936656 0.0326320292
-1.0291564289 1.0926320432 0.0000000000 0.9354082489 0.1517971971 96.5002139923 0.0315037432 0.0319718718
-1.0217744766 -1.0205429062 0.0000000000 0.9793158743 -0.1656121820 59.4791439115 0.0388856946 0.0401172661
4.2206906310 3.3181626351 0.0000000000 0.9976971948 -0.0174608408 27.2245965996 0.0206906310 0.0181626351
4.2124268274 -3.2889753484 0.0000000000 1.0415454862 0.0058010797 24.6407750121 0.0124268274 0.0110246516
20.0000000000 4.7000000000 0.0000000000 1.0423579208 0.0313126400 0.0931213215 0.0000000000 0.0000000000
20.0000000000 -4.7000000000 0.0000000000 1.0414117318 -0.0355578637 0.2104767512 0.0000000000 0.0000000000
-10.0000000000 15.0000000000 0.0000000000 1.0000000000 0.0000000000 37.2969480511 0.0000000000 0.0000000000
20.0000000000 15.0000000000 0.0000000000 1.0322076765 0.0000000000 0.0255501486 0.0000000000 0.0000000000
20.0000000000 -15.0000000000 0.0000000000 1.0317985132 0.0000000000 0.0234168798 0.0000000000 0.0000000000
-10.0000000000 -15.0000000000 0.0000000000 1.0000000000 0.0000000000 29.4841012367 0.0000000000 0.0000000000
0.4216540119 -0.2849582929 0.0000000000 0.0014158852 0.0014158852 -476.4828064570 0.0551280757 0.0551280757
0.4341139375 -0.2710156296 0.0000000000 0.0014158852 0.0014158852 -474.8080699640 0.0551280757 0.0551280757
0.4460438172 -0.2566168249 0.0000000000 0.0014158852 0.0014158852 -474.4113832011 0.0551280757 0.0551280757
0.4574269658 -0.2417820168 0.0000000000 0.0014158852 0.0014158852 -475.1347962755 0.0551280757 0.0551280757
0.4682474631 -0.2265319530 0.0000000000 0.0014158852 0.0014158852 -476.8485293498 0.0551280757 0.0551280757
0.4784901755 -0.2108879623 0.0000000000 0.0014158852 0.0014158852 -479.3392160388 0.0551280757 0.0551280757
0.4881407778 -0.1948719240 0.0000000000 0.0014158852 0.0014158852 -482.4271710858 0.0551280757 0.0551280757
0.4971857726 -0.1785062381 0.0000000000 0.0014158852 0.0014158852 -485.9375461232 0.0551280757 0.0551280757
0.5056125098 -0.1618137936 0.0000000000 0.0014158852 0.0014158852 -489.7177295380 0.0551280757 0.0551280757
0.5134092038 -0.1448179362 0.0000000000 0.0014158852 0.0014158852 -493.6143071516 0.0551280757 0.0551280757
0.5205649502 -0.1275424362 0.0000000000 0.0014158852 0.0014158852 -497.4635613884 0.0551280757 0.0551280757
0.5270697410 -0.1100114550 0.0000000000 0.0014158852 0.0014158852 -501.0793884496 0.0551280757 0.0551280757
0.5329144787 -0.0922495112 0.0000000000 0.0014158852 0.0014158852 -504.2513734284 0.0551280757 0.0551280757
0.5380909889 -0.0742814466 0.0000000000 0.0014158852 0.0014158852 -506.7487543584 0.0551280757 0.0551280757
0.5425920319 -0.0561323910 0.0000000000 0.0014158852 0.0014158852 -508.3319662902 0.0551280757 0.0551280757
0.5464113124 -0.0378277276 0.0000000000 0.0014158852 0.0014158852 -508.7692743031 0.0551280757 0.0551280757
0.5495434889 -0.0193930571 0.0000000000 0.0014158852 0.0014158852 -507.8569730294 0.0551280757 0.0551280757
0.5519841807 -0.0008541621 0.0000000000 0.0014158852 0.0014158852 -505.4403098241 0.0551280757 0.0551280757
0.5537299743 0.0177630292 0.0000000000 0.0014158852 0.0014158852 -501.4323684393 0.0551280757 0.0551280757
0.5547784281 0.0364324788 0.0000000000 0.0014158852 0.0014158852 -495.8280495454 0.0551280757 0.0551280757
0.5551280757 0.0551280759 0.0000000000 0.0014158852 0.0014158852 -488.7109900579 0.0551280757 0.0551280757
0.5547784281 0.0738236731 0.0000000000 0.0014158852 0.0014158852 -480.2521847341 0.0551280757 0.0551280757
0.5537299743 0.0924931227 0.0000000000 0.0014158852 0.0014158852 -470.7004702584 0.0551280757 0.0551280757
0.5519841807 0.1111103140 0.0000000000 0.0014158852 0.0014158852 -460.3660856178 0.0551280757 0.0551280757
0.5495434888 0.1296492090 0.0000000000 0.0014158852 0.0014158852 -449.5998387456 0.0551280757 0.0551280757
0.5464113123 0.1480838795 0.0000000000 0.0014158852 0.0014158852 -438.7702422676 0.0551280757 0.0551280757
0.5425920318 0.1663885429 0.0000000000 0.0014158852 0.0014158852 -428.2420030109 0.0551280757 0.0551280757
0.5380909888 0.1845375984 0.0000000000 0.0014158852 0.0014158852 -418.3565578677 0.0551280757 0.0551280757
0.5329144786 0.2025056631 0.0000000000 0.0014158852 0.0014158852 -409.4180444163 0.0551280757 0.0551280757
0.5270697408 0.2202676068 0.0000000000 0.0014158852 0.0014158852 -401.6804968775 0.0551280757 0.0551280757
0.5205649500 0.2377985880 0.0000000000 0.0014158852 0.0014158852 -395.3429484782 0.0551280757 0.0551280757
0.5134092036 0.2550740880 0.0000000000 0.0014158852 0.0014158852 -390.5380079199 0.0551280757 0.0551280757
0.5056125096 0.2720699454 0.0000000000 0.0014158852 0.0014158852 -387.3365955148 0.0551280757 0.0551280757
0.4971857724 0.2887623900 0.0000000000 0.0014158852 0.0014158852 -385.7270296831 0.0551280757 0.0551280757
0.4881407776 0.3051280758 0.0000000000 0.0014158852 0.0014158852 -385.6430623410 0.0551280757 0.0551280757
0.4784901753 0.3211441141 0.0000000000 0.0014158852 0.0014158852 -386.9128657649 0.0551280757 0.0551280757
0.4682474628 0.3367881048 0.0000000000 0.0014158852 0.0014158852 -389.3594183943 0.0551280757 0.0551280757
0.4574269656 0.3520381686 0.0000000000 0.0014158852 0.0014158852 -392.6539213291 0.0551280757 0.0551280757
0.4460438169 0.3668729767 0.0000000000 0.0014158852 0.0014158852 -396.6184132911 0.0551280757 0.0551280757
0.4341139373 0.3812717814 0.0000000000 0.0014158852 0.0014158852 -400.7749384958 0.0551280757 0.0551280757
0.4216540116 0.3952144447 0.0000000000 0.0014158852 0.0014158852 -405.1714451003 0.0551280757 0.0551280757
0.3937688615 0.4229900311 0.0000000000 0.0014158852 0.0014158852 -413.6081332165 0.0551280757 0.0551280757
0.3782776946 0.4366701099 0.0000000000 0.0014158852 0.0014158852 -417.3894716686 0.0551280757 0.0551280757
0.3622344320 0.4496983305 0.0000000000 0.0014158852 0.0014158852 -421.0831578347 0.0551280757 0.0551280757
0.3456664834 0.4620524344 0.0000000000 0.0014158852 0.0014158852 -424.5284222223 0.0551280757 0.0551280757
0.3286021547 0.4737113149 0.0000000000 0.0014158852 0.0014158852 -428.1740006164 0.0551280757 0.0551280757
0.3110706002 0.4846550530 0.0000000000 0.0014158852 0.0014158852 -432.1452591232 0.0551280757 0.0551280757
0.2931017722 0.4948649514 0.0000000000 0.0014158852 0.0014158852 -436.7373652125 0.0551280757 0.0551280757
0.2747263701 0.5043235667 0.0000000000 0.0014158852 0.0014158852 -442.0751858222 0.0551280757 0.0551280757
0.2559757880 0.5130147391 0.0000000000 0.0014158852 0.0014158852 -448.2849553780 0.0551280757 0.0551280757
0.2368820609 0.5209236198 0.0000000000 0.0014158852 0.0014158852 -455.3957164994 0.0551280757 0.0551280757
0.2174778103 0.5280366966 0.0000000000 0.0014158852 0.0014158852 -463.4072191210 0.0551280757 0.0551280757
0.1977961878 0.5343418170 0.0000000000 0.0014158852 0.0014158852 -472.2623993843 0.0551280757 0.0551280757
0.1778708192 0.5398282087 0.0000000000 0.0014158852 0.0014158852 -481.8644192767 0.0551280757 0.0551280757
0.1577357467 0.5444864984 0.0000000000 0.0014158852 0.0014158852 -492.0602702471 0.0551280757 0.0551280757
0.1374253708 0.5483087275 0.0000000000 0.0014158852 0.0014158852 -502.6400444131 0.0551280757 0.0551280757
0.1169743913 0.5512883656 0.0000000000 0.0014158852 0.0014158852 -513.3304613027 0.0551280757 0.0551280757
0.0964177484 0.5534203222 0.0000000000 0.0014158852 0.0014158852 -523.7979092410 0.0551280757 0.0551280757
0.0757905628 0.5547009549 0.0000000000 0.0014158852 0.0014158852 -533.6538067102 0.0551280757 0.0551280757
0.0551280756 0.5551280757 0.0000000000 0.0014158852 0.0014158852 -542.4659329250 0.0551280757 0.0551280757
0.0344655885 0.5547009549 0.0000000000 0.0014158852 0.0014158852 -549.7727447849 0.0551280757 0.0551280757
0.0138384029 0.5534203222 0.0000000000 0.0014158852 0.0014158852 -555.1007224056 0.0551280757 0.0551280757
-0.0067182400 0.5512883656 0.0000000000 0.0014158852 0.0014158852 -557.9827918687 0.0551280757 0.0551280757
-0.0271692195 0.5483087274 0.0000000000 0.0014158852 0.0014158852 -557.9767393227 0.0551280757 0.0551280757
-0.0474795955 0.5444864984 0.0000000000 0.0014158852 0.0014158852 -554.6821619281 0.0551280757 0.0551280757
-0.0676146679 0.5398282087 0.0000000000 0.0014158852 0.0014158852 -547.7550096804 0.0551280757 0.0551280757
-0.0875400365 0.5343418169 0.0000000000 0.0014158852 0.0014158852 -536.9189948531 0.0551280757 0.0551280757
-0.1072216590 0.5280366965 0.0000000000 0.0014158852 0.0014158852 -521.9735752532 0.0551280757 0.0551280757
-0.1266259097 0.5209236197 0.0000000000 0.0014158852 0.0014158852 -502.7985175607 0.0551280757 0.0551280757
-0.1457196367 0.5130147390 0.0000000000 0.0014158852 0.0014158852 -479.3553193417 0.0551280757 0.0551280757
-0.1644702188 0.5043235666 0.0000000000 0.0014158852 0.0014158852 -451.6859301883 0.0551280757 0.0551280757
-0.1828456209 0.4948649513 0.0000000000 0.0014158852 0.0014158852 -419.9092976989 0.0551280757 0.0551280757
-0.2008144489 0.4846550528 0.0000000000 0.0014158852 0.0014158852 -384.2162710706 0.0551280757 0.0551280757
-0.2183460034 0.4737113148 0.0000000000 0.0014158852 0.0014158852 -344.8633501254 0.0551280757 0.0551280757
-0.2354103321 0.4620524343 0.0000000000 0.0014158852 0.0014158852 -302.1656886596 0.0551280757 0.0551280757
-0.2519782807 0.4496983303 0.0000000000 0.0014158852 0.0014158852 -256.4896699190 0.0551280757 0.0551280757
-0.2680215433 0.4366701097 0.0000000000 0.0014158852 0.0014158852 -208.2452863888 0.0551280757 0.0551280757
-0.2835127102 0.4229900310 0.0000000000 0.0014158852 0.0014158852 -157.8784899968 0.0551280757 0.0551280757
-0.3127338797 0.3937688614 0.0000000000 0.0014158852 0.0014158852 -52.6961472289 0.0551280757 0.0551280757
-0.3264139585 0.3782776945 0.0000000000 0.0014158852 0.0014158852 1.1145539269 0.0551280757 0.0551280757
-0.3394421791 0.3622344320 0.0000000000 0.0014158852 0.0014158852 55.0516627963 0.0551280757 0.0551280757
-0.3517962830 0.3456664833 0.0000000000 0.0014158852 0.0014158852 108.5971817349 0.0551280757 0.0551280757
-0.3634551635 0.3286021547 0.0000000000 0.0014158852 0.0014158852 161.2375949000 0.0551280757 0.0551280757
-0.3743989015 0.3110706001 0.0000000000 0.0014158852 0.0014158852 212.4690543671 0.0551280757 0.0551280757
-0.3846088000 0.2931017721 0.0000000000 0.0014158852 0.0014158852 261.8021133328 0.0551280757 0.0551280757
-0.3940674153 0.2747263700 0.0000000000 0.0014158852 0.0014158852 308.7660591027 0.0551280757 0.0551280757
-0.4027585877 0.2559757879 0.0000000000 0.0014158852 0.0014158852 352.9128965735 0.0551280757 0.0551280757
-0.4106674684 0.2368820608 0.0000000000 0.0014158852 0.0014158852 393.8210201126 0.0551280757 0.0551280757
-0.4177805452 0.2174778102 0.0000000000 0.0014158852 0.0014158852 431.0985951730 0.0551280757 0.0551280757
-0.4240856655 0.1977961877 0.0000000000 0.0014158852 0.0014158852 464.3866561247 0.0551280757 0.0551280757
-0.4295720573 0.1778708191 0.0000000000 0.0014158852 0.0014158852 493.3619163226 0.0551280757 0.0551280757
-0.4342303470 0.1577357466 0.0000000000 0.0014158852 0.0014158852 517.7392807306 0.0551280757 0.0551280757
-0.4380525760 0.1374253707 0.0000000000 0.0014158852 0.0014158852 537.2740495807 0.0551280757 0.0551280757
-0.4410322142 0.1169743912 0.0000000000 0.0014158852 0.0014158852 551.7638023016 0.0551280757 0.0551280757
-0.4431641708 0.0964177483 0.0000000000 0.0014158852 0.0014158852 561.0499531730 0.0551280757 0.0551280757
-0.4444448035 0.0757905627 0.0000000000 0.0014158852 0.0014158852 565.0189730220 0.0551280757 0.0551280757
-0.4448719243 0.0551280755 0.0000000000 0.0014158852 0.0014158852 563.6032741812 0.0551280757 0.0551280757
-0.4444448035 0.0344655884 0.0000000000 0.0014158852 0.0014158852 556.7817584712 0.0551280757 0.0551280757
-0.4431641708 0.0138384028 0.0000000000 0.0014158852 0.0014158852 544.5800298840 0.0551280757 0.0551280757
-0.4410322141 -0.0067182401 0.0000000000 0.0014158852 0.0014158852 527.0702748210 0.0551280757 0.0551280757
-0.4380525759 -0.0271692196 0.0000000000 0.0014158852 0.0014158852 504.3708132193 0.0551280757 0.0551280757
-0.4342303469 -0.0474795956 0.0000000000 0.0014158852 0.0014158852 476.6453238349 0.0551280757 0.0551280757
-0.4295720572 -0.0676146680 0.0000000000 0.0014158852 0.0014158852 444.1017465828 0.0551280757 0.0551280757
-0.4240856654 -0.0875400366 0.0000000000 0.0014158852 0.0014158852 406.9908644335 0.0551280757 0.0551280757
-0.4177805450 -0.1072216591 0.0000000000 0.0014158852 0.0014158852 365.6045670986 0.0551280757 0.0551280757
-0.4106674682 -0.1266259098 0.0000000000 0.0014158852 0.0014158852 320.2737987003 0.0551280757 0.0551280757
-0.4027585875 -0.1457196368 0.0000000000 0.0014158852 0.0014158852 271.3661916986 0.0551280757 0.0551280757
-0.3940674151 -0.1644702189 0.0000000000 0.0014158852 0.0014158852 219.2833893744 0.0551280757 0.0551280757
-0.3846087998 -0.1828456210 0.0000000000 0.0014158852 0.0014158852 164.4580588807 0.0551280757 0.0551280757
-0.3743989013 -0.2008144490 0.0000000000 0.0014158852 0.0014158852 107.3505960488 0.0551280757 0.0551280757
-0.3634551633 -0.2183460035 0.0000000000 0.0014158852 0.0014158852 48.4455216287 0.0551280757 0.0551280757
-0.3517962828 -0.2354103322 0.0000000000 0.0014158852 0.0014158852 -11.7524336006 0.0551280757 0.0551280757
-0.3394421788 -0.2519782808 0.0000000000 0.0014158852 0.0014158852 -72.7225602866 0.0551280757 0.0551280757
-0.3264139582 -0.2680215434 0.0000000000 0.0014158852 0.0014158852 -133.9327272615 0.0551280757 0.0551280757
-0.3127338794 -0.2835127103 0.0000000000 0.0014158852 0.0014158852 -194.8442756797 0.0551280757 0.0551280757
-0.2835127099 -0.3127338798 0.0000000000 0.0014158852 0.0014158852 -313.6160909118 0.0551280757 0.0551280757
-0.2680215430 -0.3264139585 0.0000000000 0.0014158852 0.0014158852 -370.4154809620 0.0551280757 0.0551280757
-0.2519782804 -0.3394421791 0.0000000000 0.0014158852 0.0014158852 -424.8068974922 0.0551280757 0.0551280757
-0.2354103317 -0.3517962831 0.0000000000 0.0014158852 0.0014158852 -476.3053339246 0.0551280757 0.0551280757
-0.2183460031 -0.3634551635 0.0000000000 0.0014158852 0.0014158852 -524.4565024108 0.0551280757 0.0551280757
-0.2008144486 -0.3743989016 0.0000000000 0.0014158852 0.0014158852 -568.8443721793 0.0551280757 0.0551280757
-0.1828456205 -0.3846088000 0.0000000000 0.0014158852 0.0014158852 -609.0989858821 0.0551280757 0.0551280757
-0.1644702184 -0.3940674153 0.0000000000 0.0014158852 0.0014158852 -644.9044316844 0.0551280757 0.0551280757
-0.1457196363 -0.4027585877 0.0000000000 0.0014158852 0.0014158852 -676.0067857299 0.0551280757 0.0551280757
-0.1266259093 -0.4106674684 0.0000000000 0.0014158852 0.0014158852 -702.2217631460 0.0551280757 0.0551280757
-0.1072216586 -0.4177805452 0.0000000000 0.0014158852 0.0014158852 -723.4417292552 0.0551280757 0.0551280757
-0.0875400361 -0.4240856656 0.0000000000 0.0014158852 0.0014158852 -739.6416331938 0.0551280757 0.0551280757
-0.0676146676 -0.4295720573 0.0000000000 0.0014158852 0.0014158852 -750.8833453330 0.0551280757 0.0551280757
-0.0474795951 -0.4342303470 0.0000000000 0.0014158852 0.0014158852 -757.3178243151 0.0551280757 0.0551280757
-0.0271692191 -0.4380525760 0.0000000000 0.0014158852 0.0014158852 -759.1845295869 0.0551280757 0.0551280757
-0.0067182396 -0.4410322142 0.0000000000 0.0014158852 0.0014158852 -756.8075531808 0.0551280757 0.0551280757
0.0138384033 -0.4431641708 0.0000000000 0.0014158852 0.0014158852 -750.5880886227 0.0551280757 0.0551280757
0.0344655889 -0.4444448035 0.0000000000 0.0014158852 0.0014158852 -740.9930951559 0.0551280757 0.0551280757
0.0551280760 -0.4448719243 0.0000000000 0.0014158852 0.0014158852 -728.5403435078 0.0551280757 0.0551280757
0.0757905632 -0.4444448034 0.0000000000 0.0014158852 0.0014158852 -713.7804185753 0.0551280757 0.0551280757
0.0964177488 -0.4431641707 0.0000000000 0.0014158852 0.0014158852 -697.2766479238 0.0551280757 0.0551280757
0.1169743917 -0.4410322141 0.0000000000 0.0014158852 0.0014158852 -679.5842644379 0.0551280757 0.0551280757
0.1374253712 -0.4380525759 0.0000000000 0.0014158852 0.0014158852 -661.2303060861 0.0551280757 0.0551280757
0.1577357471 -0.4342303469 0.0000000000 0.0014158852 0.0014158852 -642.6957927003 0.0551280757 0.0551280757
0.1778708196 -0.4295720572 0.0000000000 0.0014158852 0.0014158852 -624.4014926082 0.0551280757 0.0551280757
0.1977961882 -0.4240856654 0.0000000000 0.0014158852 0.0014158852 -606.6982713877 0.0551280757 0.0551280757
0.2174778106 -0.4177805450 0.0000000000 0.0014158852 0.0014158852 -589.8622436522 0.0551280757 0.0551280757
0.2368820613 -0.4106674682 0.0000000000 0.0014158852 0.0014158852 -574.0944440152 0.0551280757 0.0551280757
0.2559757884 -0.4027585875 0.0000000000 0.0014158852 0.0014158852 -559.5231562253 0.0551280757 0.0551280757
0.2747263705 -0.3940674151 0.0000000000 0.0014158852 0.0014158852 -546.2081371420 0.0551280757 0.0551280757
0.2931017726 -0.3846087997 0.0000000000 0.0014158852 0.0014158852 -534.1441428635 0.0551280757 0.0551280757
0.3110706006 -0.3743989013 0.0000000000 0.0014158852 0.0014158852 -523.2707824526 0.0551280757 0.0551280757
0.3286021551 -0.3634551632 0.0000000000 0.0014158852 0.0014158852 -513.4853734033 0.0551280757 0.0551280757
0.3456664837 -0.3517962827 0.0000000000 0.0014158852 0.0014158852 -504.6857387772 0.0551280757 0.0551280757
0.3622344324 -0.3394421787 0.0000000000 0.0014158852 0.0014158852 -496.7942532954 0.0551280757 0.0551280757
0.3782776949 -0.3264139581 0.0000000000 0.0014158852 0.0014158852 -489.8559420097 0.0551280757 0.0551280757
0.3937688618 -0.3127338794 0.0000000000 0.0014158852 0.0014158852 -483.9213482232 0.0551280757 0.0551280757
0.5956891093 -0.4645006583 0.0000000000 0.3357988217 -0.0121196809 -450.0168626047 0.0459002051 0.0456288947
0.6145857754 -0.4437400791 0.0000000000 0.2477390630 -0.0320851532 -446.0369351341 0.0461069827 0.0454754790
0.6326980174 -0.4222800590 0.0000000000 0.1804368770 -0.0578744548 -443.1717672390 0.0463244052 0.0453372920
0.6499996337 -0.4001500513 0.0000000000 0.1365419722 -0.0900470590 -441.8760176934 0.0465512986 0.0452150875
0.6664655183 -0.3773805124 0.0000000000 0.1150438673 -0.1283244845 -442.4927823261 0.0467864372 0.0451095307
0.6820717001 -0.3540028615 0.0000000000 0.1111197852 -0.1713440540 -445.1884937141 0.0470285504 0.0450211955
0.6967953821 -0.3300494390 0.0000000000 0.1178313610 -0.2169636929 -449.9603124393 0.0472763290 0.0449505606
0.7106149782 -0.3055534630 0.0000000000 0.1285529435 -0.2628590666 -456.6853984189 0.0475284328 0.0448980078
0.7235101487 -0.2805489845 0.0000000000 0.1385128026 -0.3070032127 -465.1411516924 0.0477834976 0.0448638194
0.7354618344 -0.2550708405 0.0000000000 0.1449374250 -0.3478788308 -474.9840082501 0.0480401423 0.0448481773
0.7464522883 -0.2291546064 0.0000000000 0.1464778941 -0.3845207572 -485.7341463281 0.0482969767 0.0448511615
0.7564651064 -0.2028365462 0.0000000000 0.1426637850 -0.4164792684 -496.8014398599 0.0485526085 0.0448727499
0.7654852558 -0.1761535618 0.0000000000 0.1335808625 -0.4437138177 -507.5432530244 0.0488056514 0.0449128187
0.7734991016 -0.1491431408 0.0000000000 0.1196694238 -0.4664297470 -517.3257280518 0.0490547318 0.0449711426
0.7804944311 -0.1218433035 0.0000000000 0.1015696351 -0.4849075377 -525.5706796125 0.0492984969 0.0450473966
0.7864604764 -0.0942925480 0.0000000000 0.0800129132 -0.4993755427 -531.7859422307 0.0495356214 0.0451411570
0.7913879346 -0.0665297948 0.0000000000 0.0557659549 -0.5099480620 -535.5849905558 0.0497648149 0.0452519045
0.7952689862 -0.0385943303 0.0000000000 0.0296154302 -0.5166213311 -536.7021251985 0.0499848288 0.0453790264
0.7980973110 -0.0105257499 0.0000000000 0.0023718292 -0.5193060092 -535.0062757366 0.0501944631 0.0455218200
0.7998681012 0.0176361010 0.0000000000 -0.0251263142 -0.5178754211 -530.5126998324 0.0503925726 0.0456794964
0.8005780736 0.0458511851 0.0000000000 -0.0520191917 -0.5122166024 -523.3893612781 0.0505780736 0.0458511848
0.8002254777 0.0740793331 0.0000000000 -0.0774484661 -0.5022790237 -513.9540183583 0.0507499491 0.0460359371
0.7988101029 0.1022803033 0.0000000000 -0.1005971190 -0.4881200235 -502.6587379341 0.0509072550 0.0462327328
0.7963332821 0.1304138419 0.0000000000 -0.1207449452 -0.4699458546 -490.0602433606 0.0510491247 0.0464404846
0.7927978938 0.1584397442 0.0000000000 -0.1373349194 -0.4481439992 -476.7769754683 0.0511747741 0.0466580443
0.7882083610 0.1863179143 0.0000000000 -0.1500402842 -0.4232980906 -463.4368399359 0.0512835061 0.0468842087
0.7825706480 0.2140084270 0.0000000000 -0.1588151042 -0.3961739170 -450.6228749087 0.0513747139 0.0471177263
0.7758922546 0.2414715879 0.0000000000 -0.1639045766 -0.3676662720 -438.8264460658 0.0514478850 0.0473573039
0.7681822079 0.2686679945 0.0000000000 -0.1657898575 -0.3387038557 -428.4175599566 0.0515026037 0.0476016135
0.7594510512 0.2955585962 0.0000000000 -0.1650507052 -0.3101230381 -419.6382746617 0.0515385535 0.0478492995
0.7497108307 0.3221047547 0.0000000000 -0.1621517088 -0.2825378550 -412.6180981148 0.0515555193 0.0480989863
0.7389750802 0.3482683035 0.0000000000 -0.1571936736 -0.2562465573 -407.4017324889 0.0515533884 0.0483492851
0.7272588021 0.3740116064 0.0000000000 -0.1497114514 -0.2312159932 -403.9731740298 0.0515321512 0.0485988019
0.7145784470 0.3992976166 0.0000000000 -0.1386211713 -0.2071673429 -402.2602741391 0.0514919019 0.0488461452
0.7009518906 0.4240899333 0.0000000000 -0.1223929945 -0.1837502394 -402.1137915205 0.0514328378 0.0490899332
0.6863984079 0.4483528587 0.0000000000 -0.0994340275 -0.1607491104 -403.2736141092 0.0513552585 0.0493288012
0.6709386452 0.4720514535 0.0000000000 -0.0685432130 -0.1382396989 -405.3516096574 0.0512595645 0.0495614099
0.6545945902 0.4951515910 0.0000000000 -0.0292305896 -0.1166274087 -407.8587439040 0.0511462554 0.0497864517
0.6373895390 0.5176200102 0.0000000000 0.0182556108 -0.0965495307 -410.2791668051 0.0510159272 0.0500026587
0.6193480614 0.5394243678 0.0000000000 0.0732043087 -0.0786783319 -412.1648124518 0.0508692691 0.0502088093
0.6004959644 0.5605332886 0.0000000000 0.1348793947 -0.0634906589 -413.2094548171 0.0507070606 0.0504037352
0.5582798539 0.6025655028 0.0000000000 0.2857279105 -0.0400194111 -412.3608057569 0.0503186752 0.0507725697
0.5348162148 0.6232542170 0.0000000000 0.3769863021 -0.0305799891 -410.4743058522 0.0500917865 0.0509411658
0.5105105269 0.6429463092 0.0000000000 0.4766278829 -0.0211410533 -407.9730987723 0.0498509924 0.0510909271
0.4854054917 0.6616073278 0.0000000000 0.5831990959 -0.0101710188 -405.1661021085 0.0495978803 0.0512207898
0.4595452409 0.6792046810 0.0000000000 0.6934566335 0.0033632986 -402.3011243999 0.0493341224 0.0513298222
0.4329752521 0.6957076980 0.0000000000 0.8027960181 0.0197965707 -399.5271032261 0.0490614653 0.0514172322
0.4057422631 0.7110876856 0.0000000000 0.9062301299 0.0388301630 -396.8817069543 0.0487817184 0.0514823722
0.3778941833 0.7253179813 0.0000000000 0.9994234671 0.0597602300 -394.3096843715 0.0484967417 0.0515247448
0.3494800019 0.7383740013 0.0000000000 1.0793961208 0.0817364189 -391.7014557434 0.0482084335 0.0515440062
0.3205496956 0.7502332854 0.0000000000 1.1447727957 0.1039700127 -388.9315360648 0.0479187177 0.0515399693
0.2911541330 0.7608755366 0.0000000000 1.1956474224 0.1258629095 -385.8829494410 0.0476295312 0.0515126053
0.2613449782 0.7702826563 0.0000000000 1.2332130000 0.1470579184 -382.4556126206 0.0473428102 0.0514620444
0.2311745928 0.7784387754 0.0000000000 1.2593088243 0.1674256030 -378.5634656953 0.0470604776 0.0513885759
0.2006959361 0.7853302804 0.0000000000 1.2760024806 0.1870108119 -374.1262535994 0.0467844295 0.0512926464
0.1699624653 0.7909458351 0.0000000000 1.2852749133 0.2059633662 -369.0606206489 0.0465165228 0.0511748575
0.1390280348 0.7952763970 0.0000000000 1.2888296175 0.2244724803 -363.2735600035 0.0462585615 0.0510359622
0.1079467940 0.7983152301 0.0000000000 1.2880126833 0.2427163265 -356.6597049638 0.0460122850 0.0508768603
0.0767730863 0.8000579118 0.0000000000 1.2838130951 0.2608302518 -349.1025701715 0.0457793557 0.0506985930
0.0455613473 0.8005023359 0.0000000000 1.2769098636 0.2788917314 -340.4788682463 0.0455613475 0.0505023359
0.0143660035 0.7996487105 0.0000000000 1.2677385301 0.2969176183 -330.6645884570 0.0453597343 0.0502893917
-0.0167586290 0.7974995512 0.0000000000 1.2565587151 0.3148689487 -319.5415688148 0.0451758802 0.0500611814
-0.0477584443 0.7940596701 0.0000000000 1.2435128919 0.3326594668 -307.0036200192 0.0450110293 0.0498192353
-0.0785796460 0.7893361600 0.0000000000 1.2286727775 0.3501652859 -292.9616592244 0.0448662969 0.0495651825
-0.1091688454 0.7833383738 0.0000000000 1.2120734419 0.3672342288 -277.3476469182 0.0447426614 0.0493007398
-0.1394731584 0.7760779000 0.0000000000 1.1937369823 0.3836941896 -260.1173401531 0.0446409571 0.0490277006
-0.1694403002 0.7675685341 0.0000000000 1.1736881098 0.3993603409 -241.2519874347 0.0445618681 0.0487479223
-0.1990186789 0.7578262449 0.0000000000 1.1519638345 0.4140412478 -220.7591273031 0.0445059232 0.0484633137
-0.2281574867 0.7468691377 0.0000000000 1.1286190249 0.4275440442 -198.6726480157 0.0444734914 0.0481758217
-0.2568067892 0.7347174129 0.0000000000 1.1037291644 0.4396788302 -175.0522445929 0.0444647795 0.0478874180
-0.2849176121 0.7213933215 0.0000000000 1.0773912385 0.4502624278 -149.9823859686 0.0444798298 0.0476000851
-0.3124420254 0.7069211162 0.0000000000 1.0497233929 0.4591215965 -123.5708851731 0.0445185196 0.0473158028
-0.3393332252 0.6913269996 0.0000000000 1.0208637848 0.4660957808 -95.9471506472 0.0445805618 0.0470365339
-0.3655456125 0.6746390691 0.0000000000 0.9909689113 0.4710394400 -67.2601861249 0.0446655063 0.0467642105
-0.3910348687 0.6568872580 0.0000000000 0.9602116000 0.4738239935 -37.6763985868 0.0447727431 0.0465007202
-0.4157580288 0.6381032748 0.0000000000 0.9287787912 0.4743394076 -7.3772673442 0.0449015059 0.0462478929
-0.4396735508 0.6183205384 0.0000000000 0.8968691963 0.4724954453 23.4430784479 0.0450508778 0.0460074874
-0.4627413819 0.5975741119 0.0000000000 0.8646908984 0.4682225970 54.5803320341 0.0452197970 0.0457811790
-0.5061815813 0.5533382444 0.0000000000 0.8003929242 0.4522193403 116.9523415796 0.0456113518 0.0453770658
-0.5264818400 0.5299265170 0.0000000000 0.7687146840 0.4404578304 147.7498447662 0.0458312113 0.0452020888
-0.5457902969 0.5057063783 0.0000000000 0.7376459932 0.4262051593 177.9945222155 0.0460650853 0.0450468440
-0.5640752207 0.4807200339 0.0000000000 0.7074063828 0.4094995611 207.4676991003 0.0463113174 0.0449124226
-0.5813066943 0.4550108896 0.0000000000 0.6782110521 0.3903999498 235.9546586892 0.0465681645 0.0447997712
-0.5974566571 0.4286234717 0.0000000000 0.6502688958 0.3689851678 263.2466687857 0.0468338088 0.0447096851
-0.6124989427 0.4016033469 0.0000000000 0.6237806625 0.3453530825 289.1428715673 0.0471063709 0.0446428023
-0.6264093136 0.3739970405 0.0000000000 0.5989372544 0.3196195482 313.4520290894 0.0473839229 0.0445995991
-0.6391654924 0.3458519542 0.0000000000 0.5759181775 0.2919172504 335.9941208775 0.0476645027 0.0445803860
-0.6507471884 0.3172162837 0.0000000000 0.5548901450 0.2623944446 356.6017929577 0.0479461277 0.0445853060
-0.6611361224 0.2881389347 0.0000000000 0.5360058340 0.2312136036 375.1216586171 0.0482268090 0.0446143331
-0.6703160463 0.2586694404 0.0000000000 0.5194027952 0.1985499860 391.4154507197 0.0485045656 0.0446672725
-0.6782727605 0.2288578771 0.0000000000 0.5052025231 0.1645901427 405.3610253493 0.0487774390 0.0447437621
-0.6849941274 0.1987547812 0.0000000000 0.4935096964 0.1295303699 416.8532180461 0.0490435066 0.0448432748
-0.6904700815 0.1684110651 0.0000000000 0.4844115899 0.0935751116 425.8045552532 0.0493008961 0.0449651227
-0.6946926363 0.1378779347 0.0000000000 0.4779776340 0.0569353059 432.1458204644 0.0495477986 0.0451084616
-0.6976558885 0.1072068062 0.0000000000 0.4742590715 0.0198266813 435.8264663292 0.0497824813 0.0452722974
-0.6993560185 0.0764492237 0.0000000000 0.4732886588 -0.0175319682 436.8148601063 0.0500033003 0.0454554933
-0.6997912880 0.0456567776 0.0000000000 0.4750804046 -0.0549204804 435.0983585260 0.0502087120 0.0456567779
-0.6989620347 0.0148810233 0.0000000000 0.4796294080 -0.0921189608 430.6832360900 0.0503972841 0.0458747543
-0.6968706641 -0.0158265989 0.0000000000 0.4869118430 -0.1289093505 423.5944899001 0.0505677057 0.0461079105
-0.6935216384 -0.0464148437 0.0000000000 0.4968851161 -0.1650769255 413.8755378391 0.0507187964 0.0463546300
-0.6889214628 -0.0768327393 0.0000000000 0.5094882472 -0.2004117451 401.5878292242 0.0508495147 0.0466132037
-0.6830786690 -0.1070296651 0.0000000000 0.5246424787 -0.2347100794 386.8103643222 0.0509589650 0.0468818419
-0.6760037957 -0.1369554285 0.0000000000 0.5422520783 -0.2677758345 369.6391058168 0.0510464037 0.0471586872
-0.6677093674 -0.1665603404 0.0000000000 0.5622052738 -0.2994219741 350.1862631546 0.0511112444 0.0474418281