 TITLE = "Tecplot data"
 VARIABLES = "X", "Y", "Z" "U", "V", "p", "dispX", "dispY"
 ZONE SOLUTIONTIME=10.900000, NODES=26114 , ELEMENTS=25916, DATAPACKING=POINT, ZONETYPE=FEQUADRILATERAL
0.4100504771 0.4100504772 0.0000000000 0.0618837595 0.0618837595 -398.4031032748 0.0564970865 0.0564970865
0.4100504774 -0.2970563038 0.0000000000 0.0618837595 0.0618837595 -382.8634425407 0.0564970865 0.0564970865
-0.2970563042 0.4100504770 0.0000000000 0.0618837595 0.0618837595 -16.9342956531 0.0564970865 0.0564970865
-0.2970563039 -0.2970563042 0.0000000000 0.0618837595 0.0618837595 -281.6848024002 0.0564970865 0.0564970865
0.5821150824 0.5821726380 0.0000000000 0.2767747523 -0.0534730703 -402.4079369898 0.0517849965 0.0518425521
0.5771702841 -0.4833961021 0.0000000000 0.1766637805 0.0211099451 -345.9961949007 0.0468401978 0.0469339834
-0.4837954154 0.5770322994 0.0000000000 0.7868447024 0.4220570731 105.0968685540 0.0465346706 0.0467022137
-0.4789503251 -0.4784521802 0.0000000000 0.9270311110 -0.4881819666 -44.9882420796 0.0513797605 0.0518779060
1.1017450378 1.1018214985 0.0000000000 1.0312426715 0.1437149320 -47.3357901982 0.0410848661 0.0411613266
1.0937557957 -1.0272177816 0.0000000000 1.2734832382 0.1384612770 -254.9212508030 0.0330956231 0.0334423894
-1.0283740877 1.0934260096 0.0000000000 0.9117475261 0.1481007060 84.9820590376 0.0322860844 0.0327658381
-1.0208088174 -1.0195466630 0.0000000000 0.9719076300 -0.1675562055 33.9875106943 0.0398513538 0.0411135093
4.2212044472 3.3186136729 0.0000000000 1.0456628103 -0.0681031842 -17.6897935128 0.0212044472 0.0186136729
4.2127354263 -3.2887015701 0.0000000000 1.0781793610 0.0073725440 -15.0060831838 0.0127354263 0.0112984299
20.0000000000 4.7000000000 0.0000000000 0.9996713081 -0.0016155883 0.0016964954 0.0000000000 0.0000000000
20.0000000000 -4.7000000000 0.0000000000 0.9988683699 0.0014275309 0.0033152355 0.0000000000 0.0000000000
-10.0000000000 15.0000000000 0.0000000000 1.0000000000 0.0000000000 16.2133201118 0.0000000000 0.0000000000
20.0000000000 15.0000000000 0.0000000000 1.0017842805 0.0000000000 0.0011115471 0.0000000000 0.0000000000
20.0000000000 -15.0000000000 0.0000000000 1.0008613722 0.0000000000 0.0016949667 0.0000000000 0.0000000000
-10.0000000000 -15.0000000000 0.0000000000 1.0000000000 0.0000000000 10.2181412335 0.0000000000 0.0000000000
0.4230230227 -0.2835892821 0.0000000000 0.0618837595 0.0618837595 -384.8488390083 0.0564970865 0.0564970865
0.4354829483 -0.2696466188 0.0000000000 0.0618837595 0.0618837595 -388.2893548692 0.0564970865 0.0564970865
0.4474128280 -0.2552478141 0.0000000000 0.0618837595 0.0618837595 -392.7349246832 0.0564970865 0.0564970865
0.4587959766 -0.2404130060 0.0000000000 0.0618837595 0.0618837595 -398.0503901282 0.0564970865 0.0564970865
0.4696164739 -0.2251629422 0.0000000000 0.0618837595 0.0618837595 -403.9666287997 0.0564970865 0.0564970865
0.4798591863 -0.2095189515 0.0000000000 0.0618837595 0.0618837595 -410.3436470576 0.0564970865 0.0564970865
0.4895097886 -0.1935029132 0.0000000000 0.0618837595 0.0618837595 -417.0670087760 0.0564970865 0.0564970865
0.4985547834 -0.1771372273 0.0000000000 0.0618837595 0.0618837595 -424.0806918186 0.0564970865 0.0564970865
0.5069815206 -0.1604447828 0.0000000000 0.0618837595 0.0618837595 -431.3370150300 0.0564970865 0.0564970865
0.5147782146 -0.1434489254 0.0000000000 0.0618837595 0.0618837595 -438.7794705767 0.0564970865 0.0564970865
0.5219339610 -0.1261734254 0.0000000000 0.0618837595 0.0618837595 -446.3158057615 0.0564970865 0.0564970865
0.5284387518 -0.1086424442 0.0000000000 0.0618837595 0.0618837595 -453.8072229222 0.0564970865 0.0564970865
0.5342834895 -0.0908805004 0.0000000000 0.0618837595 0.0618837595 -461.0631843645 0.0564970865 0.0564970865
0.5394599997 -0.0729124358 0.0000000000 0.0618837595 0.0618837595 -467.8457293272 0.0564970865 0.0564970865
0.5439610427 -0.0547633802 0.0000000000 0.0618837595 0.0618837595 -473.8796735764 0.0564970865 0.0564970865
0.5477803232 -0.0364587168 0.0000000000 0.0618837595 0.0618837595 -478.8688015262 0.0564970865 0.0564970865
0.5509124997 -0.0180240463 0.0000000000 0.0618837595 0.0618837595 -482.5164756441 0.0564970865 0.0564970865
0.5533531915 0.0005148487 0.0000000000 0.0618837595 0.0618837595 -484.5494733970 0.0564970865 0.0564970865
0.5550989851 0.0191320400 0.0000000000 0.0618837595 0.0618837595 -484.7429215307 0.0564970865 0.0564970865
0.5561474389 0.0378014896 0.0000000000 0.0618837595 0.0618837595 -482.9439266018 0.0564970865 0.0564970865
0.5564970865 0.0564970867 0.0000000000 0.0618837595 0.0618837595 -479.0913770118 0.0564970865 0.0564970865
0.5561474389 0.0751926839 0.0000000000 0.0618837595 0.0618837595 -473.2296444671 0.0564970865 0.0564970865
0.5550989851 0.0938621335 0.0000000000 0.0618837595 0.0618837595 -465.5147102107 0.0564970865 0.0564970865
0.5533531915 0.1124793248 0.0000000000 0.0618837595 0.0618837595 -456.2117153405 0.0564970865 0.0564970865
0.5509124996 0.1310182198 0.0000000000 0.0618837595 0.0618837595 -445.6843631673 0.0564970865 0.0564970865
0.5477803231 0.1494528903 0.0000000000 0.0618837595 0.0618837595 -434.3761488568 0.0564970865 0.0564970865
0.5439610426 0.1677575537 0.0000000000 0.0618837595 0.0618837595 -422.7858934253 0.0564970865 0.0564970865
0.5394599996 0.1859066092 0.0000000000 0.0618837595 0.0618837595 -411.4367048224 0.0564970865 0.0564970865
0.5342834894 0.2038746739 0.0000000000 0.0618837595 0.0618837595 -400.8441796891 0.0564970865 0.0564970865
0.5284387516 0.2216366176 0.0000000000 0.0618837595 0.0618837595 -391.4783534352 0.0564970865 0.0564970865
0.5219339608 0.2391675988 0.0000000000 0.0618837595 0.0618837595 -383.7347641190 0.0564970865 0.0564970865
0.5147782144 0.2564430988 0.0000000000 0.0618837595 0.0618837595 -377.8943323542 0.0564970865 0.0564970865
0.5069815204 0.2734389562 0.0000000000 0.0618837595 0.0618837595 -374.1162135231 0.0564970865 0.0564970865
0.4985547832 0.2901314008 0.0000000000 0.0618837595 0.0618837595 -372.3953449477 0.0564970865 0.0564970865
0.4895097884 0.3064970866 0.0000000000 0.0618837595 0.0618837595 -372.6142924375 0.0564970865 0.0564970865
0.4798591861 0.3225131249 0.0000000000 0.0618837595 0.0618837595 -374.4688721079 0.0564970865 0.0564970865
0.4696164736 0.3381571156 0.0000000000 0.0618837595 0.0618837595 -377.6569137781 0.0564970865 0.0564970865
0.4587959764 0.3534071794 0.0000000000 0.0618837595 0.0618837595 -381.6441585899 0.0564970865 0.0564970865
0.4474128277 0.3682419875 0.0000000000 0.0618837595 0.0618837595 -386.1915995778 0.0564970865 0.0564970865
0.4354829481 0.3826407922 0.0000000000 0.0618837595 0.0618837595 -390.5747011665 0.0564970865 0.0564970865
0.4230230224 0.3965834555 0.0000000000 0.0618837595 0.0618837595 -395.0216726055 0.0564970865 0.0564970865
0.3951378723 0.4243590419 0.0000000000 0.0618837595 0.0618837595 -402.2398735046 0.0564970865 0.0564970865
0.3796467054 0.4380391207 0.0000000000 0.0618837595 0.0618837595 -404.7041911002 0.0564970865 0.0564970865
0.3636034428 0.4510673413 0.0000000000 0.0618837595 0.0618837595 -406.9247752104 0.0564970865 0.0564970865
0.3470354942 0.4634214452 0.0000000000 0.0618837595 0.0618837595 -408.5160227919 0.0564970865 0.0564970865
0.3299711655 0.4750803257 0.0000000000 0.0618837595 0.0618837595 -410.0995766672 0.0564970865 0.0564970865
0.3124396110 0.4860240638 0.0000000000 0.0618837595 0.0618837595 -411.7174839385 0.0564970865 0.0564970865
0.2944707830 0.4962339622 0.0000000000 0.0618837595 0.0618837595 -413.7013150211 0.0564970865 0.0564970865
0.2760953809 0.5056925775 0.0000000000 0.0618837595 0.0618837595 -416.1253957974 0.0564970865 0.0564970865
0.2573447988 0.5143837499 0.0000000000 0.0618837595 0.0618837595 -419.1025423560 0.0564970865 0.0564970865
0.2382510717 0.5222926306 0.0000000000 0.0618837595 0.0618837595 -422.6228905244 0.0564970865 0.0564970865
0.2188468211 0.5294057074 0.0000000000 0.0618837595 0.0618837595 -426.6636869383 0.0564970865 0.0564970865
0.1991651986 0.5357108278 0.0000000000 0.0618837595 0.0618837595 -431.1453913906 0.0564970865 0.0564970865
0.1792398300 0.5411972195 0.0000000000 0.0618837595 0.0618837595 -435.9645815505 0.0564970865 0.0564970865
0.1591047575 0.5458555092 0.0000000000 0.0618837595 0.0618837595 -440.9745616969 0.0564970865 0.0564970865
0.1387943816 0.5496777382 0.0000000000 0.0618837595 0.0618837595 -445.9904195108 0.0564970865 0.0564970865
0.1183434021 0.5526573764 0.0000000000 0.0618837595 0.0618837595 -450.7818672876 0.0564970865 0.0564970865
0.0977867592 0.5547893330 0.0000000000 0.0618837595 0.0618837595 -455.0776593200 0.0564970865 0.0564970865
0.0771595736 0.5560699657 0.0000000000 0.0618837595 0.0618837595 -458.5697742800 0.0564970865 0.0564970865
0.0564970864 0.5564970865 0.0000000000 0.0618837595 0.0618837595 -460.9233513822 0.0564970865 0.0564970865
0.0358345993 0.5560699657 0.0000000000 0.0618837595 0.0618837595 -461.7880504987 0.0564970865 0.0564970865
0.0152074137 0.5547893330 0.0000000000 0.0618837595 0.0618837595 -460.8117356409 0.0564970865 0.0564970865
-0.0053492292 0.5526573764 0.0000000000 0.0618837595 0.0618837595 -457.6544613060 0.0564970865 0.0564970865
-0.0258002087 0.5496777382 0.0000000000 0.0618837595 0.0618837595 -452.0022449210 0.0564970865 0.0564970865
-0.0461105847 0.5458555092 0.0000000000 0.0618837595 0.0618837595 -443.5794481808 0.0564970865 0.0564970865
-0.0662456572 0.5411972195 0.0000000000 0.0618837595 0.0618837595 -432.1591964659 0.0564970865 0.0564970865
-0.0861710257 0.5357108277 0.0000000000 0.0618837595 0.0618837595 -417.5713226673 0.0564970865 0.0564970865
-0.1058526482 0.5294057073 0.0000000000 0.0618837595 0.0618837595 -399.7076878291 0.0564970865 0.0564970865
-0.1252568989 0.5222926305 0.0000000000 0.0618837595 0.0618837595 -378.5249140733 0.0564970865 0.0564970865
-0.1443506259 0.5143837498 0.0000000000 0.0618837595 0.0618837595 -354.0447673891 0.0564970865 0.0564970865
-0.1631012080 0.5056925774 0.0000000000 0.0618837595 0.0618837595 -326.3525297935 0.0564970865 0.0564970865
-0.1814766101 0.4962339621 0.0000000000 0.0618837595 0.0618837595 -295.5937579044 0.0564970865 0.0564970865
-0.1994454381 0.4860240636 0.0000000000 0.0618837595 0.0618837595 -261.9698229542 0.0564970865 0.0564970865
-0.2169769926 0.4750803256 0.0000000000 0.0618837595 0.0618837595 -225.7325913650 0.0564970865 0.0564970865
-0.2340413213 0.4634214451 0.0000000000 0.0618837595 0.0618837595 -187.1785449310 0.0564970865 0.0564970865
-0.2506092699 0.4510673411 0.0000000000 0.0618837595 0.0618837595 -146.6425727074 0.0564970865 0.0564970865
-0.2666525325 0.4380391205 0.0000000000 0.0618837595 0.0618837595 -104.4916052896 0.0564970865 0.0564970865
-0.2821436994 0.4243590418 0.0000000000 0.0618837595 0.0618837595 -61.1182168959 0.0564970865 0.0564970865
-0.3113648689 0.3951378722 0.0000000000 0.0618837595 0.0618837595 27.6351257088 0.0564970865 0.0564970865
-0.3250449477 0.3796467053 0.0000000000 0.0618837595 0.0618837595 72.1577883131 0.0564970865 0.0564970865
-0.3380731683 0.3636034427 0.0000000000 0.0618837595 0.0618837595 116.1997918218 0.0564970865 0.0564970865
-0.3504272722 0.3470354941 0.0000000000 0.0618837595 0.0618837595 159.3307830039 0.0564970865 0.0564970865
-0.3620861527 0.3299711655 0.0000000000 0.0618837595 0.0618837595 201.1287178174 0.0564970865 0.0564970865
-0.3730298907 0.3124396109 0.0000000000 0.0618837595 0.0618837595 241.1842008462 0.0564970865 0.0564970865
-0.3832397892 0.2944707829 0.0000000000 0.0618837595 0.0618837595 279.1044318813 0.0564970865 0.0564970865
-0.3926984045 0.2760953808 0.0000000000 0.0618837595 0.0618837595 314.5168010418 0.0564970865 0.0564970865
-0.4013895769 0.2573447987 0.0000000000 0.0618837595 0.0618837595 347.0721715704 0.0564970865 0.0564970865
-0.4092984576 0.2382510716 0.0000000000 0.0618837595 0.0618837595 376.4478783971 0.0564970865 0.0564970865
-0.4164115344 0.2188468210 0.0000000000 0.0618837595 0.0618837595 402.3504568660 0.0564970865 0.0564970865
-0.4227166548 0.1991651985 0.0000000000 0.0618837595 0.0618837595 424.5181042107 0.0564970865 0.0564970865
-0.4282030465 0.1792398299 0.0000000000 0.0618837595 0.0618837595 442.7228684442 0.0564970865 0.0564970865
-0.4328613362 0.1591047574 0.0000000000 0.0618837595 0.0618837595 456.7725554262 0.0564970865 0.0564970865
-0.4366835652 0.1387943815 0.0000000000 0.0618837595 0.0618837595 466.5123440101 0.0564970865 0.0564970865
-0.4396632034 0.1183434020 0.0000000000 0.0618837595 0.0618837595 471.8261002174 0.0564970865 0.0564970865
-0.4417951600 0.0977867591 0.0000000000 0.0618837595 0.0618837595 472.6373834696 0.0564970865 0.0564970865
-0.4430757927 0.0771595735 0.0000000000 0.0618837595 0.0618837595 468.9101403444 0.0564970865 0.0564970865
-0.4435029135 0.0564970863 0.0000000000 0.0618837595 0.0618837595 460.6490838665 0.0564970865 0.0564970865
-0.4430757927 0.0358345992 0.0000000000 0.0618837595 0.0618837595 447.8997586589 0.0564970865 0.0564970865
-0.4417951600 0.0152074136 0.0000000000 0.0618837595 0.0618837595 430.7482942491 0.0564970865 0.0564970865
-0.4396632033 -0.0053492293 0.0000000000 0.0618837595 0.0618837595 409.3208502208 0.0564970865 0.0564970865
-0.4366835651 -0.0258002088 0.0000000000 0.0618837595 0.0618837595 383.7827576503 0.0564970865 0.0564970865
-0.4328613361 -0.0461105848 0.0000000000 0.0618837595 0.0618837595 354.3373613548 0.0564970865 0.0564970865
-0.4282030464 -0.0662456573 0.0000000000 0.0618837595 0.0618837595 321.2245669603 0.0564970865 0.0564970865
-0.4227166546 -0.0861710258 0.0000000000 0.0618837595 0.0618837595 284.7190958707 0.0564970865 0.0564970865
-0.4164115342 -0.1058526483 0.0000000000 0.0618837595 0.0618837595 245.1284500441 0.0564970865 0.0564970865
-0.4092984574 -0.1252568990 0.0000000000 0.0618837595 0.0618837595 202.7905872384 0.0564970865 0.0564970865
-0.4013895767 -0.1443506260 0.0000000000 0.0618837595 0.0618837595 158.0713061503 0.0564970865 0.0564970865
-0.3926984043 -0.1631012081 0.0000000000 0.0618837595 0.0618837595 111.3613396654 0.0564970865 0.0564970865
-0.3832397890 -0.1814766102 0.0000000000 0.0618837595 0.0618837595 63.0731531516 0.0564970865 0.0564970865
-0.3730298905 -0.1994454382 0.0000000000 0.0618837595 0.0618837595 13.6374433339 0.0564970865 0.0564970865
-0.3620861525 -0.2169769927 0.0000000000 0.0618837595 0.0618837595 -36.5006682938 0.0564970865 0.0564970865
-0.3504272720 -0.2340413214 0.0000000000 0.0618837595 0.0618837595 -86.8857552368 0.0564970865 0.0564970865
-0.3380731680 -0.2506092700 0.0000000000 0.0618837595 0.0618837595 -137.0565281826 0.0564970865 0.0564970865
-0.3250449474 -0.2666525326 0.0000000000 0.0618837595 0.0618837595 -186.5506097831 0.0564970865 0.0564970865
-0.3113648686 -0.2821436995 0.0000000000 0.0618837595 0.0618837595 -234.9096518681 0.0564970865 0.0564970865
-0.2821436991 -0.3113648690 0.0000000000 0.0618837595 0.0618837595 -326.4425235289 0.0564970865 0.0564970865
-0.2666525322 -0.3250449477 0.0000000000 0.0618837595 0.0618837595 -368.7707513212 0.0564970865 0.0564970865
-0.2506092696 -0.3380731683 0.0000000000 0.0618837595 0.0618837595 -408.2853704576 0.0564970865 0.0564970865
-0.2340413210 -0.3504272723 0.0000000000 0.0618837595 0.0618837595 -444.6369516661 0.0564970865 0.0564970865
-0.2169769923 -0.3620861527 0.0000000000 0.0618837595 0.0618837595 -477.5176643628 0.0564970865 0.0564970865
-0.1994454378 -0.3730298908 0.0000000000 0.0618837595 0.0618837595 -506.6682307662 0.0564970865 0.0564970865
-0.1814766097 -0.3832397892 0.0000000000 0.0618837595 0.0618837595 -531.8847306885 0.0564970865 0.0564970865
-0.1631012076 -0.3926984045 0.0000000000 0.0618837595 0.0618837595 -553.0249999419 0.0564970865 0.0564970865
-0.1443506255 -0.4013895769 0.0000000000 0.0618837595 0.0618837595 -570.0142941136 0.0564970865 0.0564970865
-0.1252568985 -0.4092984576 0.0000000000 0.0618837595 0.0618837595 -582.8498208787 0.0564970865 0.0564970865
-0.1058526478 -0.4164115344 0.0000000000 0.0618837595 0.0618837595 -591.6036892480 0.0564970865 0.0564970865
-0.0861710253 -0.4227166548 0.0000000000 0.0618837595 0.0618837595 -596.4237979977 0.0564970865 0.0564970865
-0.0662456568 -0.4282030465 0.0000000000 0.0618837595 0.0618837595 -597.5322047151 0.0564970865 0.0564970865
-0.0461105843 -0.4328613362 0.0000000000 0.0618837595 0.0618837595 -595.2205980279 0.0564970865 0.0564970865
-0.0258002083 -0.4366835652 0.0000000000 0.0618837595 0.0618837595 -589.8426494483 0.0564970865 0.0564970865
-0.0053492288 -0.4396632034 0.0000000000 0.0618837595 0.0618837595 -581.8032504768 0.0564970865 0.0564970865
0.0152074141 -0.4417951600 0.0000000000 0.0618837595 0.0618837595 -571.5449292002 0.0564970865 0.0564970865
0.0358345997 -0.4430757927 0.0000000000 0.0618837595 0.0618837595 -559.5320620985 0.0564970865 0.0564970865
0.0564970868 -0.4435029135 0.0000000000 0.0618837595 0.0618837595 -546.2337948231 0.0564970865 0.0564970865
0.0771595740 -0.4430757926 0.0000000000 0.0618837595 0.0618837595 -532.1068232747 0.0564970865 0.0564970865
0.0977867596 -0.4417951599 0.0000000000 0.0618837595 0.0618837595 -517.5792782276 0.0564970865 0.0564970865
0.1183434025 -0.4396632033 0.0000000000 0.0618837595 0.0618837595 -503.0369435872 0.0564970865 0.0564970865
0.1387943820 -0.4366835651 0.0000000000 0.0618837595 0.0618837595 -488.8127684199 0.0564970865 0.0564970865
0.1591047579 -0.4328613361 0.0000000000 0.0618837595 0.0618837595 -475.1803594298 0.0564970865 0.0564970865
0.1792398304 -0.4282030464 0.0000000000 0.0618837595 0.0618837595 -462.3512304206 0.0564970865 0.0564970865
0.1991651990 -0.4227166546 0.0000000000 0.0618837595 0.0618837595 -450.4751297972 0.0564970865 0.0564970865
0.2188468214 -0.4164115342 0.0000000000 0.0618837595 0.0618837595 -439.6408129880 0.0564970865 0.0564970865
0.2382510721 -0.4092984574 0.0000000000 0.0618837595 0.0618837595 -429.8768356590 0.0564970865 0.0564970865
0.2573447992 -0.4013895767 0.0000000000 0.0618837595 0.0618837595 -421.1501436696 0.0564970865 0.0564970865
0.2760953813 -0.3926984043 0.0000000000 0.0618837595 0.0618837595 -413.3740958827 0.0564970865 0.0564970865
0.2944707833 -0.3832397889 0.0000000000 0.0618837595 0.0618837595 -406.4230092443 0.0564970865 0.0564970865
0.3124396114 -0.3730298905 0.0000000000 0.0618837595 0.0618837595 -400.1866745990 0.0564970865 0.0564970865
0.3299711659 -0.3620861524 0.0000000000 0.0618837595 0.0618837595 -394.6034815301 0.0564970865 0.0564970865
0.3470354945 -0.3504272719 0.0000000000 0.0618837595 0.0618837595 -389.7685995151 0.0564970865 0.0564970865
0.3636034432 -0.3380731680 0.0000000000 0.0618837595 0.0618837595 -385.8354739330 0.0564970865 0.0564970865
0.3796467057 -0.3250449473 0.0000000000 0.0618837595 0.0618837595 -383.2215771148 0.0564970865 0.0564970865
0.3951378726 -0.3113648686 0.0000000000 0.0618837595 0.0618837595 -382.0040650982 0.0564970865 0.0564970865
0.5968289618 -0.4633675433 0.0000000000 0.1277952986 0.0016875329 -344.6610470655 0.0470400576 0.0467620097
0.6157307629 -0.4426107739 0.0000000000 0.1021456580 -0.0293298237 -345.2872852851 0.0472519702 0.0466047841
0.6338484042 -0.4211541854 0.0000000000 0.0970652517 -0.0715440716 -348.0661500875 0.0474747920 0.0464631656
0.6511556550 -0.3990272125 0.0000000000 0.1066456011 -0.1226144605 -352.9369407631 0.0477073199 0.0463379263
0.6676273788 -0.3762602949 0.0000000000 0.1242886934 -0.1792371651 -359.7516903336 0.0479482978 0.0462297482
0.6832395731 -0.3528848377 0.0000000000 0.1448253410 -0.2381547230 -368.4114786162 0.0481964234 0.0461392193
0.6979694082 -0.3289331693 0.0000000000 0.1649639516 -0.2965662323 -378.8535246623 0.0484503552 0.0460668303
0.7117952649 -0.3044384984 0.0000000000 0.1826703410 -0.3521178436 -390.9546730741 0.0487087196 0.0460129724
0.7246967696 -0.2794348688 0.0000000000 0.1965739992 -0.4029029409 -404.4595495345 0.0489701184 0.0459779351
0.7366548286 -0.2539571133 0.0000000000 0.2057653787 -0.4475845072 -418.9676758059 0.0492331365 0.0459619046
0.7476516605 -0.2280408051 0.0000000000 0.2097895941 -0.4855040954 -433.9630158150 0.0494963489 0.0459649628
0.7576708268 -0.2017222087 0.0000000000 0.2086322540 -0.5166589062 -448.8654921176 0.0497583289 0.0459870874
0.7666972601 -0.1750382293 0.0000000000 0.2026384337 -0.5415394451 -463.0873446285 0.0500176556 0.0460281512
0.7747172914 -0.1480263600 0.0000000000 0.1923870824 -0.5608960456 -476.0801380562 0.0502729216 0.0460879235
0.7817186744 -0.1207246291 0.0000000000 0.1785641389 -0.5755178228 -487.3656319127 0.0505227401 0.0461660711
0.7876906082 -0.0931715451 0.0000000000 0.1618673020 -0.5860800142 -496.5519523666 0.0507657532 0.0462621599
0.7926237580 -0.0654060417 0.0000000000 0.1429536040 -0.5930748727 -503.3408507168 0.0510006383 0.0463756576
0.7965102734 -0.0374674204 0.0000000000 0.1224229056 -0.5968105454 -507.5317115474 0.0512261159 0.0465059364
0.7993438040 -0.0093952939 0.0000000000 0.1008226157 -0.5974499391 -509.0253772096 0.0514409561 0.0466522760
0.8011195140 0.0187704726 0.0000000000 0.0786597745 -0.5950638197 -507.8280074721 0.0516439854 0.0468138680
0.8018340929 0.0469898203 0.0000000000 0.0564114912 -0.5896814203 -504.0533736706 0.0518340929 0.0469898200
0.8014857653 0.0752225563 0.0000000000 0.0345297217 -0.5813310864 -497.9214443017 0.0520102367 0.0471791603
0.8000742968 0.1034284135 0.0000000000 0.0134397896 -0.5700696832 -489.7515066745 0.0521714490 0.0473808431
0.7976009991 0.1315671114 0.0000000000 -0.0064660533 -0.5560019911 -479.9489139058 0.0523168418 0.0475937540
0.7940687311 0.1595984163 0.0000000000 -0.0248374141 -0.5392909261 -468.9855260531 0.0524456115 0.0478167164
0.7894818985 0.1874822028 0.0000000000 -0.0413726017 -0.5201574500 -457.3749086619 0.0525570436 0.0480484972
0.7838464505 0.2151785145 0.0000000000 -0.0558168513 -0.4988670972 -445.6443250302 0.0526505164 0.0482878138
0.7771698742 0.2426476250 0.0000000000 -0.0679430267 -0.4756999265 -434.3063611657 0.0527255046 0.0485333409
0.7694611864 0.2698500986 0.0000000000 -0.0775061726 -0.4509042193 -423.8332501681 0.0527815821 0.0487837175
0.7607309224 0.2967468511 0.0000000000 -0.0841695474 -0.4246422775 -414.6360203967 0.0528184247 0.0490375545
0.7509911233 0.3232992102 0.0000000000 -0.0874147797 -0.3969477064 -407.0480945110 0.0528358118 0.0492934418
0.7402553198 0.3494689747 0.0000000000 -0.0864708352 -0.3677222301 -401.3094706946 0.0528336280 0.0495499563
0.7285385143 0.3752184740 0.0000000000 -0.0803152148 -0.3367976606 -397.5453474778 0.0528118634 0.0498056695
0.7158571597 0.4005106265 0.0000000000 -0.0677972444 -0.3040676462 -395.7356773467 0.0527706146 0.0500591551
0.7022291365 0.4253089972 0.0000000000 -0.0478904220 -0.2696564387 -395.6821675537 0.0527100838 0.0503089971
0.6876737272 0.4495778545 0.0000000000 -0.0200046050 -0.2340563923 -396.9930628937 0.0526305779 0.0505537970
0.6722115882 0.4732822258 0.0000000000 0.0157769873 -0.1981603873 -399.1113885340 0.0525325075 0.0507921821
0.6558647193 0.4963879517 0.0000000000 0.0586672158 -0.1631549192 -401.3969635978 0.0524163846 0.0510228124
0.6386564316 0.5188617400 0.0000000000 0.1073927736 -0.1303038045 -403.2416868198 0.0522828198 0.0512443886
0.6206113121 0.5406712171 0.0000000000 0.1605844607 -0.1006962787 -404.1763183522 0.0521325198 0.0514556586
0.6017551869 0.5617849785 0.0000000000 0.2171922887 -0.0750310934 -403.9297236747 0.0519662831 0.0516554251
0.5595294315 0.6038263521 0.0000000000 0.3464580689 -0.0339007004 -399.5281200519 0.0515682528 0.0520334191
0.5360601580 0.6245192531 0.0000000000 0.4210060992 -0.0176219877 -395.4782217271 0.0513357297 0.0522062019
0.5117484904 0.6442150644 0.0000000000 0.5011954851 -0.0029403145 -390.6775421037 0.0510889560 0.0523596823
0.4866371697 0.6628793079 0.0000000000 0.5868215541 0.0118073981 -385.4629196277 0.0508295582 0.0524927699
0.4607703688 0.6804793687 0.0000000000 0.6761723156 0.0278544742 -380.1048130700 0.0505592503 0.0526045100
0.4341936090 0.6969845564 0.0000000000 0.7661490914 0.0457744504 -374.7883379728 0.0502798223 0.0526940905
0.4069536731 0.7123661617 0.0000000000 0.8529369434 0.0655051470 -369.6062075213 0.0499931284 0.0527608482
0.3790985163 0.7265975095 0.0000000000 0.9328667238 0.0865521922 -364.5638571712 0.0497010748 0.0528042731
0.3506771753 0.7396540079 0.0000000000 1.0031064930 0.1082389010 -359.5979093729 0.0494056069 0.0528240128
0.3217396744 0.7515131918 0.0000000000 1.0620084210 0.1299090962 -354.6028031943 0.0491086965 0.0528198757
0.2923369303 0.7621547634 0.0000000000 1.1091226815 0.1510517997 -349.4564872445 0.0488123285 0.0527918321
0.2625206554 0.7715606275 0.0000000000 1.1449820303 0.1713529029 -344.0383187469 0.0485184873 0.0527400156
0.2323432587 0.7797149222 0.0000000000 1.1707772752 0.1906908695 -338.2373881160 0.0482291434 0.0526647227
0.2018577468 0.7866040450 0.0000000000 1.1880239164 0.2090966143 -331.9532845217 0.0479462403 0.0525664109
0.1711176231 0.7922166745 0.0000000000 1.1982862472 0.2266974895 -325.0927277636 0.0476716805 0.0524456969
0.1401767865 0.7965437872 0.0000000000 1.2029890783 0.2436617659 -317.5652432017 0.0474073132 0.0523033524
0.1090894298 0.7995786693 0.0000000000 1.2033176981 0.2601539566 -309.2800651455 0.0471549208 0.0521402995
0.0779099377 0.8013169240 0.0000000000 1.2001886247 0.2763050314 -300.1452886055 0.0469162072 0.0519576052
0.0466927849 0.8017564744 0.0000000000 1.1942671652 0.2921968690 -290.0692991587 0.0466927851 0.0517564744
0.0154924344 0.8008975609 0.0000000000 1.1860094567 0.3078577958 -278.9638868843 0.0464861652 0.0515382421
-0.0156367639 0.7987427344 0.0000000000 1.1757123168 0.3232654248 -266.7482218216 0.0462977454 0.0513043646
-0.0466406729 0.7952968450 0.0000000000 1.1635606130 0.3383534798 -253.3529349878 0.0461288007 0.0510564102
-0.0774654688 0.7905670259 0.0000000000 1.1496671284 0.3530202098 -238.7237640204 0.0459804741 0.0507960484
-0.1080577385 0.7845626727 0.0000000000 1.1341034622 0.3671369161 -222.8244624772 0.0458537683 0.0505250387
-0.1383645772 0.7772954185 0.0000000000 1.1169225087 0.3805558235 -205.6388661321 0.0457495384 0.0502452191
-0.1683336830 0.7687791048 0.0000000000 1.0981739269 0.3931169987 -187.1721359689 0.0456684854 0.0499584930
-0.1979134510 0.7590297479 0.0000000000 1.0779141989 0.4046542782 -167.4512633024 0.0456111511 0.0496668166
-0.2270530641 0.7480655012 0.0000000000 1.0562127216 0.4150002925 -146.5249461313 0.0455779140 0.0493721853
-0.2557025830 0.7359066144 0.0000000000 1.0331550919 0.4239907107 -124.4629457711 0.0455689857 0.0490766195
-0.2838130321 0.7225753876 0.0000000000 1.0088444582 0.4314678255 -101.3550223023 0.0455844097 0.0487821513
-0.3113364846 0.7080961226 0.0000000000 0.9834015622 0.4372835792 -77.3095341799 0.0456240603 0.0484908093
-0.3382261437 0.6924950709 0.0000000000 0.9569639100 0.4413021076 -52.4517750578 0.0456876432 0.0482046052
-0.3644364215 0.6758003777 0.0000000000 0.9296843684 0.4434018594 -26.9221106117 0.0457746972 0.0479255191
-0.3899230147 0.6580420233 0.0000000000 0.9017293934 0.4434773335 -0.8739697577 0.0458845970 0.0476554855
-0.4146429772 0.6392517615 0.0000000000 0.8732770289 0.4414404671 25.5282623214 0.0460165575 0.0473963796
-0.4385547898 0.6194630551 0.0000000000 0.8445147749 0.4372217018 52.1114080379 0.0461696387 0.0471500041
-0.4616184261 0.5987110086 0.0000000000 0.8156373935 0.4307707484 78.6956824023 0.0463427528 0.0469180757
-0.5050489020 0.5544651056 0.0000000000 0.7583393927 0.4110701226 131.1284578835 0.0467440312 0.0465039271
-0.5253437008 0.5310490330 0.0000000000 0.7303248967 0.3978193069 156.6037328491 0.0469693505 0.0463246048
-0.5446463499 0.5068250391 0.0000000000 0.7030033266 0.3823337578 181.3377738297 0.0472090323 0.0461655048
-0.5629251589 0.4818353566 0.0000000000 0.6765734954 0.3646618830 205.1493737068 0.0474613792 0.0460277452
-0.5801502541 0.4561234147 0.0000000000 0.6512290334 0.3448707346 227.8628454958 0.0477246047 0.0459122963
-0.5962936201 0.4297337597 0.0000000000 0.6271566103 0.3230452153 249.3097097572 0.0479968458 0.0458199731
-0.6113291371 0.4027119740 0.0000000000 0.6045342730 0.2992871446 269.3302504271 0.0482761764 0.0457514294
-0.6252326155 0.3751045947 0.0000000000 0.5835299141 0.2737142053 287.7749307523 0.0485606210 0.0457071533
-0.6379818265 0.3469590313 0.0000000000 0.5642998817 0.2464587913 304.5056652114 0.0488481686 0.0456874631
-0.6495565289 0.3183234829 0.0000000000 0.5469877429 0.2176667680 319.3969476678 0.0491367872 0.0456925053
-0.6599384926 0.2892468548 0.0000000000 0.5317231996 0.1874961560 332.3368388497 0.0494244387 0.0457222532
-0.6691115189 0.2597786752 0.0000000000 0.5186211554 0.1561157456 343.2278163490 0.0497090930 0.0457765073
-0.6770614569 0.2299690114 0.0000000000 0.5077809235 0.1237036544 351.9874884229 0.0499887427 0.0458548963
-0.6837762164 0.1998683866 0.0000000000 0.4992855799 0.0904458432 358.5491715721 0.0502614176 0.0459568803
-0.6892457786 0.1695276964 0.0000000000 0.4932014711 0.0565346022 362.8623336895 0.0505251990 0.0460817540
-0.6934622020 0.1389981257 0.0000000000 0.4895778928 0.0221670088 364.8929072625 0.0507782328 0.0462286525
-0.6964196264 0.1083310657 0.0000000000 0.4884469237 -0.0124566498 364.6234739475 0.0510187434 0.0463965569
-0.6981142727 0.0775780326 0.0000000000 0.4898233689 -0.0471344894 362.0533145145 0.0512450461 0.0465843022
-0.6985444411 0.0467905850 0.0000000000 0.4937047443 -0.0816646472 357.1983096461 0.0514555589 0.0467905853
-0.6977105050 0.0160202438 0.0000000000 0.5000712998 -0.1158468633 350.0906976443 0.0516488138 0.0470139748
-0.6956149022 -0.0146815884 0.0000000000 0.5088861175 -0.1494839973 340.7787078413 0.0518234675 0.0472529210
-0.6922621244 -0.0452637064 0.0000000000 0.5200953159 -0.1823834662 329.3260865676 0.0519783103 0.0475057674
-0.6876587027 -0.0756751807 0.0000000000 0.5336284061 -0.2143586036 315.8115362327 0.0521122748 0.0477707623
-0.6818131909 -0.1058654353 0.0000000000 0.5493988353 -0.2452299567 300.3280780976 0.0522244431 0.0480460716
-0.6747361462 -0.1357843237 0.0000000000 0.5673047313 -0.2748265441 282.9823358822 0.0523140532 0.0483297920
-0.6664401077 -0.1653822043 0.0000000000 0.5872298257 -0.3029870906 263.8937275921 0.0523805041 0.0486199642