 TITLE = "Tecplot data"
 VARIABLES = "X", "Y", "Z" "U", "V", "p", "dispX", "dispY"
 ZONE SOLUTIONTIME=94.900000, NODES=26114 , ELEMENTS=25916, DATAPACKING=POINT, ZONETYPE=FEQUADRILATERAL
0.7600054836 -1.5352550463 0.0000000000 0.0000000000 0.0000000000 -334.8606705215 0.4064520930 -1.8888084369
0.7600054839 -2.2423618272 0.0000000000 0.0000000000 0.0000000000 -713.6765070694 0.4064520930 -1.8888084369
0.0528987023 -1.5352550464 0.0000000000 0.0000000000 0.0000000000 542.2886614997 0.4064520930 -1.8888084369
0.0528987026 -2.2423618277 0.0000000000 0.0000000000 0.0000000000 -590.7862516695 0.4064520930 -1.8888084369
0.9298132146 -1.3511528503 0.0000000000 0.2374149298 -0.2311115928 -230.9258313919 0.3994831287 -1.8814829363
0.9430912258 -2.4099689383 0.0000000000 0.2445328392 0.3880439888 -682.9978518125 0.4127611396 -1.8796388528
-0.1273971878 -1.3585964944 0.0000000000 0.3881736277 0.0393513849 352.1543351115 0.4029328982 -1.8889265802
-0.1224803038 -2.4195958568 0.0000000000 0.8478135394 -1.0553594769 -417.1764090699 0.4078497819 -1.8892657707
1.4216046866 -0.7730330530 0.0000000000 0.4113542370 -0.3080055520 -119.6032793917 0.3609445149 -1.8336932249
1.5036492318 -2.8878600583 0.0000000000 0.9832116947 0.2141841228 -111.0514725519 0.4429890593 -1.8271998873
-0.6748971390 -0.8255238499 0.0000000000 0.5939747738 -0.0142050476 198.2376652243 0.3857630331 -1.8861840213
-0.6426961749 -2.9491739353 0.0000000000 1.0355994390 -0.4645807600 -33.6584791864 0.4179639963 -1.8885137630
4.3761008013 1.7522342312 0.0000000000 0.5102549328 0.1380163467 -170.6234284482 0.1761008013 -1.5477657688
4.7880134854 -4.8320821494 0.0000000000 1.2438056515 0.0060337844 -146.4318763820 0.5880134854 -1.5320821494
20.0000000000 4.7000000000 0.0000000000 0.9936188955 0.0658379244 0.8520438037 0.0000000000 0.0000000000
20.0000000000 -4.7000000000 0.0000000000 1.0452899034 -0.0158990100 -0.0983551592 0.0000000000 0.0000000000
-10.0000000000 15.0000000000 0.0000000000 1.0000000000 0.0000000000 29.3632725089 0.0000000000 0.0000000000
20.0000000000 15.0000000000 0.0000000000 1.0499521498 0.0000000000 0.0596359240 0.0000000000 0.0000000000
20.0000000000 -15.0000000000 0.0000000000 1.0514436778 0.0000000000 0.0266677022 0.0000000000 0.0000000000
-10.0000000000 -15.0000000000 0.0000000000 1.0000000000 0.0000000000 3.5818362723 0.0000000000 0.0000000000
0.7729780292 -2.2288948055 0.0000000000 0.0000000000 0.0000000000 -680.3455207935 0.4064520930 -1.8888084369
0.7854379548 -2.2149521423 0.0000000000 0.0000000000 0.0000000000 -647.5702724042 0.4064520930 -1.8888084369
0.7973678345 -2.2005533376 0.0000000000 0.0000000000 0.0000000000 -614.5722183359 0.4064520930 -1.8888084369
0.8087509831 -2.1857185294 0.0000000000 0.0000000000 0.0000000000 -582.0429455934 0.4064520930 -1.8888084369
0.8195714804 -2.1704684657 0.0000000000 0.0000000000 0.0000000000 -550.0816889838 0.4064520930 -1.8888084369
0.8298141928 -2.1548244749 0.0000000000 0.0000000000 0.0000000000 -519.0144990101 0.4064520930 -1.8888084369
0.8394647951 -2.1388084366 0.0000000000 0.0000000000 0.0000000000 -489.0732084657 0.4064520930 -1.8888084369
0.8485097899 -2.1224427508 0.0000000000 0.0000000000 0.0000000000 -460.5008469866 0.4064520930 -1.8888084369
0.8569365271 -2.1057503062 0.0000000000 0.0000000000 0.0000000000 -433.5063452860 0.4064520930 -1.8888084369
0.8647332211 -2.0887544488 0.0000000000 0.0000000000 0.0000000000 -408.2734466907 0.4064520930 -1.8888084369
0.8718889674 -2.0714789488 0.0000000000 0.0000000000 0.0000000000 -384.9542327619 0.4064520930 -1.8888084369
0.8783937583 -2.0539479676 0.0000000000 0.0000000000 0.0000000000 -363.6703810157 0.4064520930 -1.8888084369
0.8842384960 -2.0361860238 0.0000000000 0.0000000000 0.0000000000 -344.5145348364 0.4064520930 -1.8888084369
0.8894150062 -2.0182179592 0.0000000000 0.0000000000 0.0000000000 -327.5531044492 0.4064520930 -1.8888084369
0.8939160492 -2.0000689036 0.0000000000 0.0000000000 0.0000000000 -312.8290112719 0.4064520930 -1.8888084369
0.8977353297 -1.9817642402 0.0000000000 0.0000000000 0.0000000000 -300.3634095836 0.4064520930 -1.8888084369
0.9008675062 -1.9633295697 0.0000000000 0.0000000000 0.0000000000 -290.1556518055 0.4064520930 -1.8888084369
0.9033081980 -1.9447906747 0.0000000000 0.0000000000 0.0000000000 -282.1810166876 0.4064520930 -1.8888084369
0.9050539916 -1.9261734835 0.0000000000 0.0000000000 0.0000000000 -276.3865414736 0.4064520930 -1.8888084369
0.9061024454 -1.9075040338 0.0000000000 0.0000000000 0.0000000000 -272.6854380904 0.4064520930 -1.8888084369
0.9064520930 -1.8888084367 0.0000000000 0.0000000000 0.0000000000 -270.9517281420 0.4064520930 -1.8888084369
0.9061024454 -1.8701128396 0.0000000000 0.0000000000 0.0000000000 -271.0157614437 0.4064520930 -1.8888084369
0.9050539916 -1.8514433899 0.0000000000 0.0000000000 0.0000000000 -272.6633643569 0.4064520930 -1.8888084369
0.9033081979 -1.8328261987 0.0000000000 0.0000000000 0.0000000000 -275.6374682723 0.4064520930 -1.8888084369
0.9008675061 -1.8142873036 0.0000000000 0.0000000000 0.0000000000 -279.6468050613 0.4064520930 -1.8888084369
0.8977353296 -1.7958526331 0.0000000000 0.0000000000 0.0000000000 -284.3750093444 0.4064520930 -1.8888084369
0.8939160491 -1.7775479698 0.0000000000 0.0000000000 0.0000000000 -289.5009261984 0.4064520930 -1.8888084369
0.8894150061 -1.7593989142 0.0000000000 0.0000000000 0.0000000000 -294.7097208328 0.4064520930 -1.8888084369
0.8842384959 -1.7414308495 0.0000000000 0.0000000000 0.0000000000 -299.7255875300 0.4064520930 -1.8888084369
0.8783937581 -1.7236689058 0.0000000000 0.0000000000 0.0000000000 -304.3098872066 0.4064520930 -1.8888084369
0.8718889673 -1.7061379246 0.0000000000 0.0000000000 0.0000000000 -308.3134239242 0.4064520930 -1.8888084369
0.8647332209 -1.6888624246 0.0000000000 0.0000000000 0.0000000000 -311.6298750550 0.4064520930 -1.8888084369
0.8569365269 -1.6718665672 0.0000000000 0.0000000000 0.0000000000 -314.2994165768 0.4064520930 -1.8888084369
0.8485097897 -1.6551741227 0.0000000000 0.0000000000 0.0000000000 -316.3456154895 0.4064520930 -1.8888084369
0.8394647949 -1.6388084368 0.0000000000 0.0000000000 0.0000000000 -318.0321558125 0.4064520930 -1.8888084369
0.8298141926 -1.6227923985 0.0000000000 0.0000000000 0.0000000000 -319.4038301360 0.4064520930 -1.8888084369
0.8195714801 -1.6071484078 0.0000000000 0.0000000000 0.0000000000 -320.9891041509 0.4064520930 -1.8888084369
0.8087509829 -1.5918983440 0.0000000000 0.0000000000 0.0000000000 -322.5639463190 0.4064520930 -1.8888084369
0.7973678342 -1.5770635359 0.0000000000 0.0000000000 0.0000000000 -325.1279750058 0.4064520930 -1.8888084369
0.7854379546 -1.5626647312 0.0000000000 0.0000000000 0.0000000000 -327.5017908230 0.4064520930 -1.8888084369
0.7729780289 -1.5487220680 0.0000000000 0.0000000000 0.0000000000 -332.0832631221 0.4064520930 -1.8888084369
0.7450928788 -1.5209464815 0.0000000000 0.0000000000 0.0000000000 -341.4231613704 0.4064520930 -1.8888084369
0.7296017119 -1.5072664028 0.0000000000 0.0000000000 0.0000000000 -346.7068330623 0.4064520930 -1.8888084369
0.7135584493 -1.4942381822 0.0000000000 0.0000000000 0.0000000000 -352.7753865471 0.4064520930 -1.8888084369
0.6969905007 -1.4818840782 0.0000000000 0.0000000000 0.0000000000 -358.0822194975 0.4064520930 -1.8888084369
0.6799261720 -1.4702251977 0.0000000000 0.0000000000 0.0000000000 -362.7704621698 0.4064520930 -1.8888084369
0.6623946175 -1.4592814597 0.0000000000 0.0000000000 0.0000000000 -366.2170625159 0.4064520930 -1.8888084369
0.6444257895 -1.4490715613 0.0000000000 0.0000000000 0.0000000000 -368.2797426105 0.4064520930 -1.8888084369
0.6260503874 -1.4396129459 0.0000000000 0.0000000000 0.0000000000 -368.6968031539 0.4064520930 -1.8888084369
0.6072998053 -1.4309217735 0.0000000000 0.0000000000 0.0000000000 -367.3856763384 0.4064520930 -1.8888084369
0.5882060782 -1.4230128928 0.0000000000 0.0000000000 0.0000000000 -364.2704758722 0.4064520930 -1.8888084369
0.5688018276 -1.4158998160 0.0000000000 0.0000000000 0.0000000000 -359.3403704140 0.4064520930 -1.8888084369
0.5491202051 -1.4095946956 0.0000000000 0.0000000000 0.0000000000 -352.5903059227 0.4064520930 -1.8888084369
0.5291948365 -1.4041083039 0.0000000000 0.0000000000 0.0000000000 -344.0276229834 0.4064520930 -1.8888084369
0.5090597640 -1.3994500142 0.0000000000 0.0000000000 0.0000000000 -333.6525894070 0.4064520930 -1.8888084369
0.4887493881 -1.3956277852 0.0000000000 0.0000000000 0.0000000000 -321.4592672885 0.4064520930 -1.8888084369
0.4682984086 -1.3926481470 0.0000000000 0.0000000000 0.0000000000 -307.4306544951 0.4064520930 -1.8888084369
0.4477417657 -1.3905161904 0.0000000000 0.0000000000 0.0000000000 -291.5392384245 0.4064520930 -1.8888084369
0.4271145800 -1.3892355577 0.0000000000 0.0000000000 0.0000000000 -273.7456050554 0.4064520930 -1.8888084369
0.4064520929 -1.3888084369 0.0000000000 0.0000000000 0.0000000000 -253.9980992884 0.4064520930 -1.8888084369
0.3857896058 -1.3892355577 0.0000000000 0.0000000000 0.0000000000 -232.2318644570 0.4064520930 -1.8888084369
0.3651624202 -1.3905161904 0.0000000000 0.0000000000 0.0000000000 -208.3684259112 0.4064520930 -1.8888084369
0.3446057773 -1.3926481470 0.0000000000 0.0000000000 0.0000000000 -182.3157885852 0.4064520930 -1.8888084369
0.3241547978 -1.3956277852 0.0000000000 0.0000000000 0.0000000000 -153.9698058561 0.4064520930 -1.8888084369
0.3038444218 -1.3994500142 0.0000000000 0.0000000000 0.0000000000 -123.2172980522 0.4064520930 -1.8888084369
0.2837093493 -1.4041083039 0.0000000000 0.0000000000 0.0000000000 -89.9416163765 0.4064520930 -1.8888084369
0.2637839808 -1.4095946957 0.0000000000 0.0000000000 0.0000000000 -54.0312333303 0.4064520930 -1.8888084369
0.2441023583 -1.4158998161 0.0000000000 0.0000000000 0.0000000000 -15.3918729636 0.4064520930 -1.8888084369
0.2246981076 -1.4230128929 0.0000000000 0.0000000000 0.0000000000 26.0375674856 0.4064520930 -1.8888084369
0.2056043806 -1.4309217736 0.0000000000 0.0000000000 0.0000000000 70.2654316207 0.4064520930 -1.8888084369
0.1868537985 -1.4396129460 0.0000000000 0.0000000000 0.0000000000 117.2247447348 0.4064520930 -1.8888084369
0.1684783964 -1.4490715613 0.0000000000 0.0000000000 0.0000000000 166.7490825868 0.4064520930 -1.8888084369
0.1505095684 -1.4592814598 0.0000000000 0.0000000000 0.0000000000 218.5490737613 0.4064520930 -1.8888084369
0.1329780138 -1.4702251978 0.0000000000 0.0000000000 0.0000000000 272.1924987171 0.4064520930 -1.8888084369
0.1159136852 -1.4818840783 0.0000000000 0.0000000000 0.0000000000 327.0914530185 0.4064520930 -1.8888084369
0.0993457366 -1.4942381823 0.0000000000 0.0000000000 0.0000000000 382.5000503851 0.4064520930 -1.8888084369
0.0833024740 -1.5072664029 0.0000000000 0.0000000000 0.0000000000 437.5254521540 0.4064520930 -1.8888084369
0.0678113071 -1.5209464817 0.0000000000 0.0000000000 0.0000000000 491.1535602237 0.4064520930 -1.8888084369
0.0385901376 -1.5501676512 0.0000000000 0.0000000000 0.0000000000 589.8040561643 0.4064520930 -1.8888084369
0.0249100588 -1.5656588181 0.0000000000 0.0000000000 0.0000000000 632.5987911264 0.4064520930 -1.8888084369
0.0118818382 -1.5817020807 0.0000000000 0.0000000000 0.0000000000 669.6545575075 0.4064520930 -1.8888084369
-0.0004722657 -1.5982700293 0.0000000000 0.0000000000 0.0000000000 700.0868841285 0.4064520930 -1.8888084369
-0.0121311462 -1.6153343580 0.0000000000 0.0000000000 0.0000000000 723.1859039829 0.4064520930 -1.8888084369
-0.0230748842 -1.6328659125 0.0000000000 0.0000000000 0.0000000000 738.4438296742 0.4064520930 -1.8888084369
-0.0332847827 -1.6508347405 0.0000000000 0.0000000000 0.0000000000 745.5683421065 0.4064520930 -1.8888084369
-0.0427433980 -1.6692101426 0.0000000000 0.0000000000 0.0000000000 744.4829101838 0.4064520930 -1.8888084369
-0.0514345704 -1.6879607247 0.0000000000 0.0000000000 0.0000000000 735.3163142656 0.4064520930 -1.8888084369
-0.0593434511 -1.7070544518 0.0000000000 0.0000000000 0.0000000000 718.3842353286 0.4064520930 -1.8888084369
-0.0664565279 -1.7264587025 0.0000000000 0.0000000000 0.0000000000 694.1657510326 0.4064520930 -1.8888084369
-0.0727616483 -1.7461403249 0.0000000000 0.0000000000 0.0000000000 663.2771071615 0.4064520930 -1.8888084369
-0.0782480400 -1.7660656935 0.0000000000 0.0000000000 0.0000000000 626.4444069324 0.4064520930 -1.8888084369
-0.0829063297 -1.7862007660 0.0000000000 0.0000000000 0.0000000000 584.4760749794 0.4064520930 -1.8888084369
-0.0867285587 -1.8065111419 0.0000000000 0.0000000000 0.0000000000 538.2352686884 0.4064520930 -1.8888084369
-0.0897081969 -1.8269621214 0.0000000000 0.0000000000 0.0000000000 488.6119467225 0.4064520930 -1.8888084369
-0.0918401535 -1.8475187643 0.0000000000 0.0000000000 0.0000000000 436.4941428969 0.4064520930 -1.8888084369
-0.0931207862 -1.8681459500 0.0000000000 0.0000000000 0.0000000000 382.7381770058 0.4064520930 -1.8888084369
-0.0935479070 -1.8888084371 0.0000000000 0.0000000000 0.0000000000 328.1380674199 0.4064520930 -1.8888084369
-0.0931207862 -1.9094709242 0.0000000000 0.0000000000 0.0000000000 273.3952422232 0.4064520930 -1.8888084369
-0.0918401535 -1.9300981098 0.0000000000 0.0000000000 0.0000000000 219.0906424736 0.4064520930 -1.8888084369
-0.0897081968 -1.9506547527 0.0000000000 0.0000000000 0.0000000000 165.6622337451 0.4064520930 -1.8888084369
-0.0867285586 -1.9711057322 0.0000000000 0.0000000000 0.0000000000 113.3914560435 0.4064520930 -1.8888084369
-0.0829063296 -1.9914161082 0.0000000000 0.0000000000 0.0000000000 62.4018898448 0.4064520930 -1.8888084369
-0.0782480399 -2.0115511807 0.0000000000 0.0000000000 0.0000000000 12.6721587882 0.4064520930 -1.8888084369
-0.0727616481 -2.0314765492 0.0000000000 0.0000000000 0.0000000000 -35.9371206386 0.4064520930 -1.8888084369
-0.0664565278 -2.0511581717 0.0000000000 0.0000000000 0.0000000000 -83.6452469938 0.4064520930 -1.8888084369
-0.0593434509 -2.0705624224 0.0000000000 0.0000000000 0.0000000000 -130.7075444330 0.4064520930 -1.8888084369
-0.0514345702 -2.0896561494 0.0000000000 0.0000000000 0.0000000000 -177.3723467590 0.4064520930 -1.8888084369
-0.0427433978 -2.1084067315 0.0000000000 0.0000000000 0.0000000000 -223.8452114690 0.4064520930 -1.8888084369
-0.0332847825 -2.1267821336 0.0000000000 0.0000000000 0.0000000000 -270.2648222218 0.4064520930 -1.8888084369
-0.0230748840 -2.1447509616 0.0000000000 0.0000000000 0.0000000000 -316.6922074169 0.4064520930 -1.8888084369
-0.0121311460 -2.1622825162 0.0000000000 0.0000000000 0.0000000000 -363.1120570118 0.4064520930 -1.8888084369
-0.0004722655 -2.1793468448 0.0000000000 0.0000000000 0.0000000000 -409.4429199880 0.4064520930 -1.8888084369
0.0118818385 -2.1959147934 0.0000000000 0.0000000000 0.0000000000 -455.5522240451 0.4064520930 -1.8888084369
0.0249100591 -2.2119580560 0.0000000000 0.0000000000 0.0000000000 -501.2724749680 0.4064520930 -1.8888084369
0.0385901379 -2.2274492229 0.0000000000 0.0000000000 0.0000000000 -546.4158887498 0.4064520930 -1.8888084369
0.0678113074 -2.2566703924 0.0000000000 0.0000000000 0.0000000000 -634.1873969805 0.4064520930 -1.8888084369
0.0833024743 -2.2703504712 0.0000000000 0.0000000000 0.0000000000 -676.4290759596 0.4064520930 -1.8888084369
0.0993457369 -2.2833786917 0.0000000000 0.0000000000 0.0000000000 -717.3303571644 0.4064520930 -1.8888084369
0.1159136855 -2.2957327957 0.0000000000 0.0000000000 0.0000000000 -756.7217242606 0.4064520930 -1.8888084369
0.1329780142 -2.3073916762 0.0000000000 0.0000000000 0.0000000000 -794.4459705894 0.4064520930 -1.8888084369
0.1505095687 -2.3183354142 0.0000000000 0.0000000000 0.0000000000 -830.3585733856 0.4064520930 -1.8888084369
0.1684783967 -2.3285453126 0.0000000000 0.0000000000 0.0000000000 -864.3275889231 0.4064520930 -1.8888084369
0.1868537988 -2.3380039280 0.0000000000 0.0000000000 0.0000000000 -896.2333624566 0.4064520930 -1.8888084369
0.2056043810 -2.3466951003 0.0000000000 0.0000000000 0.0000000000 -925.9680810566 0.4064520930 -1.8888084369
0.2246981080 -2.3546039810 0.0000000000 0.0000000000 0.0000000000 -953.4352968882 0.4064520930 -1.8888084369
0.2441023587 -2.3617170578 0.0000000000 0.0000000000 0.0000000000 -978.5494427661 0.4064520930 -1.8888084369
0.2637839812 -2.3680221782 0.0000000000 0.0000000000 0.0000000000 -1001.2353904616 0.4064520930 -1.8888084369
0.2837093497 -2.3735085699 0.0000000000 0.0000000000 0.0000000000 -1021.4280559060 0.4064520930 -1.8888084369
0.3038444222 -2.3781668596 0.0000000000 0.0000000000 0.0000000000 -1039.0720613636 0.4064520930 -1.8888084369
0.3241547982 -2.3819890886 0.0000000000 0.0000000000 0.0000000000 -1054.1214451878 0.4064520930 -1.8888084369
0.3446057777 -2.3849687268 0.0000000000 0.0000000000 0.0000000000 -1066.5394161538 0.4064520930 -1.8888084369
0.3651624206 -2.3871006834 0.0000000000 0.0000000000 0.0000000000 -1076.2981397107 0.4064520930 -1.8888084369
0.3857896062 -2.3883813161 0.0000000000 0.0000000000 0.0000000000 -1083.3785608071 0.4064520930 -1.8888084369
0.4064520933 -2.3888084369 0.0000000000 0.0000000000 0.0000000000 -1087.7702457222 0.4064520930 -1.8888084369
0.4271145805 -2.3883813161 0.0000000000 0.0000000000 0.0000000000 -1089.4712763015 0.4064520930 -1.8888084369
0.4477417661 -2.3871006834 0.0000000000 0.0000000000 0.0000000000 -1088.4881423067 0.4064520930 -1.8888084369
0.4682984090 -2.3849687267 0.0000000000 0.0000000000 0.0000000000 -1084.8357544971 0.4064520930 -1.8888084369
0.4887493885 -2.3819890885 0.0000000000 0.0000000000 0.0000000000 -1078.5373675692 0.4064520930 -1.8888084369
0.5090597644 -2.3781668595 0.0000000000 0.0000000000 0.0000000000 -1069.6248573159 0.4064520930 -1.8888084369
0.5291948369 -2.3735085698 0.0000000000 0.0000000000 0.0000000000 -1058.1385329889 0.4064520930 -1.8888084369
0.5491202055 -2.3680221780 0.0000000000 0.0000000000 0.0000000000 -1044.1281481630 0.4064520930 -1.8888084369
0.5688018279 -2.3617170576 0.0000000000 0.0000000000 0.0000000000 -1027.6519250099 0.4064520930 -1.8888084369
0.5882060786 -2.3546039808 0.0000000000 0.0000000000 0.0000000000 -1008.7799799557 0.4064520930 -1.8888084369
0.6072998057 -2.3466951001 0.0000000000 0.0000000000 0.0000000000 -987.5896327713 0.4064520930 -1.8888084369
0.6260503878 -2.3380039277 0.0000000000 0.0000000000 0.0000000000 -964.1776533947 0.4064520930 -1.8888084369
0.6444257898 -2.3285453123 0.0000000000 0.0000000000 0.0000000000 -938.6396173715 0.4064520930 -1.8888084369
0.6623946179 -2.3183354139 0.0000000000 0.0000000000 0.0000000000 -911.1162984898 0.4064520930 -1.8888084369
0.6799261724 -2.3073916758 0.0000000000 0.0000000000 0.0000000000 -881.7067086745 0.4064520930 -1.8888084369
0.6969905010 -2.2957327953 0.0000000000 0.0000000000 0.0000000000 -850.6503002299 0.4064520930 -1.8888084369
0.7135584496 -2.2833786914 0.0000000000 0.0000000000 0.0000000000 -817.9697897555 0.4064520930 -1.8888084369
0.7296017122 -2.2703504708 0.0000000000 0.0000000000 0.0000000000 -784.1933316504 0.4064520930 -1.8888084369
0.7450928791 -2.2566703920 0.0000000000 0.0000000000 0.0000000000 -748.9290991006 0.4064520930 -1.8888084369
0.9621811182 -2.3891041690 0.0000000000 0.2239470074 0.4074969114 -635.8770452236 0.4123922139 -1.8789746160
0.9804947613 -2.3675375650 0.0000000000 0.2038656984 0.4218879896 -588.8642310308 0.4120159687 -1.8783220070
0.9980068835 -2.3453010265 0.0000000000 0.1848316308 0.4304299264 -542.8790146845 0.4116332713 -1.8776836755
1.0146938815 -2.3224284618 0.0000000000 0.1674428682 0.4325287648 -498.6573973570 0.4112455463 -1.8770633230
1.0305334312 -2.2989550251 0.0000000000 0.1522393011 0.4279905328 -456.8564352674 0.4108543502 -1.8764649819
1.0455043448 -2.2749168275 0.0000000000 0.1396377509 0.4170297946 -418.0080915922 0.4104611951 -1.8758927706
1.0595865095 -2.2503507564 0.0000000000 0.1298866278 0.4002262529 -382.4900448421 0.4100674564 -1.8753507568
1.0727608706 -2.2252943357 0.0000000000 0.1230461441 0.3784429608 -350.5174476897 0.4096743253 -1.8748428649
1.0850094464 -2.1997856094 0.0000000000 0.1189954448 0.3527211436 -322.1525440485 0.4092827953 -1.8743728054
1.0963153669 -2.1738630387 0.0000000000 0.1174624458 0.3241687152 -297.3272240407 0.4088936748 -1.8739440209
1.1066629301 -2.1475654079 0.0000000000 0.1180689721 0.2938583203 -275.8728054244 0.4085076185 -1.8735596400
1.1160376639 -2.1209317345 0.0000000000 0.1203818624 0.2627473690 -257.5517156306 0.4081251660 -1.8732224384
1.1244263860 -2.0940011847 0.0000000000 0.1239610576 0.2316271490 -242.0868896591 0.4077467816 -1.8729348043
1.1318172573 -2.0668129914 0.0000000000 0.1283980030 0.2011018484 -229.1861954827 0.4073728874 -1.8726987079
1.1381998241 -2.0394063758 0.0000000000 0.1333410793 0.1715928754 -218.5606993310 0.4070038898 -1.8725156757
1.1435650519 -2.0118204739 0.0000000000 0.1385080301 0.1433606030 -209.9368168793 0.4066401969 -1.8723867689
1.1479053492 -1.9840942661 0.0000000000 0.1436876267 0.1165350241 -203.0632091904 0.4062822295 -1.8723125668
1.1512145830 -1.9562665115 0.0000000000 0.1487338242 0.0911482081 -197.7136591345 0.4059304256 -1.8722931548
1.1534880871 -1.9283756867 0.0000000000 0.1535556405 0.0671638348 -193.6871966555 0.4055852392 -1.8723281168
1.1547226620 -1.9004599283 0.0000000000 0.1581053837 0.0445014651 -190.8065667813 0.4052471334 -1.8724165329
1.1549165684 -1.8725569809 0.0000000000 0.1623670591 0.0230550086 -188.9158773690 0.4049165684 -1.8725569812
1.1540695131 -1.8447041494 0.0000000000 0.1663460645 0.0027059243 -187.8780069852 0.4045939845 -1.8727475454
1.1521826295 -1.8169382569 0.0000000000 0.1700607307 -0.0166678257 -187.5721368254 0.4042797817 -1.8729858273
1.1492584528 -1.7892956080 0.0000000000 0.1735358789 -0.0351859348 -187.8916045813 0.4039742954 -1.8732689654
1.1453008929 -1.7618119606 0.0000000000 0.1767983346 -0.0529619563 -188.7421584763 0.4036777732 -1.8735936604
1.1403152060 -1.7345225047 0.0000000000 0.1798742101 -0.0701005943 -190.0406070071 0.4033903511 -1.8739562103
1.1343079668 -1.7074618531 0.0000000000 0.1827877245 -0.0866952315 -191.7138044313 0.4031120327 -1.8743525538
1.1272870420 -1.6806640436 0.0000000000 0.1855613351 -0.1028249144 -193.6978750643 0.4028426724 -1.8747783277
1.1192615657 -1.6541625551 0.0000000000 0.1882169914 -0.1185500895 -195.9375543633 0.4025819615 -1.8752289361
1.1102419155 -1.6279903387 0.0000000000 0.1907783578 -0.1339064790 -198.3855077374 0.4023294178 -1.8756996354
1.1002396882 -1.6021798636 0.0000000000 0.1932738574 -0.1488966772 -201.0014786384 0.4020843768 -1.8761856320
1.0892676745 -1.5767631757 0.0000000000 0.1957403514 -0.1634794016 -203.7511194141 0.4018459826 -1.8766821941
1.0773398284 -1.5517719673 0.0000000000 0.1982271540 -0.1775569241 -206.6043790569 0.4016131776 -1.8771847718
1.0644712348 -1.5272376533 0.0000000000 0.2007998879 -0.1909620809 -209.5333710164 0.4013846897 -1.8776891246
1.0506780728 -1.5031914501 0.0000000000 0.2035434198 -0.2034473764 -212.5097297549 0.4011590200 -1.8781914502
1.0359775830 -1.4796644544 0.0000000000 0.2065628333 -0.2146799005 -215.5015874952 0.4009344336 -1.8786885119
1.0203880447 -1.4566877197 0.0000000000 0.2099812061 -0.2242466920 -218.4704498100 0.4007089640 -1.8791777634
1.0039287710 -1.4342923327 0.0000000000 0.2139330310 -0.2316752445 -221.3683910846 0.4004804363 -1.8796574720
0.9866201095 -1.4125094943 0.0000000000 0.2185526566 -0.2364723844 -224.1360756615 0.4002464977 -1.8801268458
0.9684833888 -1.3913706256 0.0000000000 0.2239582486 -0.2381812693 -226.7022187700 0.4000045965 -1.8805861841
0.9495406126 -1.3709074975 0.0000000000 0.2302329623 -0.2364503894 -228.9827553180 0.3997517088 -1.8810370509
0.9072671937 -1.3300614219 0.0000000000 0.2463644451 -0.2211857999 -232.4081809353 0.3993060150 -1.8818543549
0.8838399501 -1.3099069569 0.0000000000 0.2562608737 -0.2073274030 -233.1981477468 0.3991155218 -1.8822200081
0.8595755454 -1.2907210324 0.0000000000 0.2668480922 -0.1903729411 -233.1702970029 0.3989160109 -1.8825764145
0.8345184460 -1.2725359338 0.0000000000 0.2778667066 -0.1713178398 -232.2269361389 0.3987108345 -1.8829224718
0.8087141932 -1.2553829972 0.0000000000 0.2890487518 -0.1512159382 -230.2945722217 0.3985030747 -1.8832578560
0.7822095472 -1.2392921275 0.0000000000 0.3001705990 -0.1309851466 -227.3242120692 0.3982957605 -1.8835825933
0.7550525507 -1.2242916265 0.0000000000 0.3110807616 -0.1112733576 -223.2882071126 0.3980920060 -1.8838969400
0.7272924995 -1.2104080836 0.0000000000 0.3217065311 -0.0924053257 -218.1745206890 0.3978950580 -1.8842013201
0.6989798477 -1.1976662676 0.0000000000 0.3320401432 -0.0744151448 -211.9799597889 0.3977082793 -1.8844962627
0.6701660676 -1.1860890195 0.0000000000 0.3421136802 -0.0571347094 -204.7043008769 0.3975350898 -1.8847823356
0.6409034823 -1.1756971556 0.0000000000 0.3519733493 -0.0402960216 -196.3466820376 0.3973788805 -1.8850600869
0.6112450870 -1.1665093868 0.0000000000 0.3616606146 -0.0236136600 -186.9045550611 0.3972429189 -1.8853299986
0.5812443720 -1.1585422538 0.0000000000 0.3712024778 -0.0068336489 -176.3744822210 0.3971302568 -1.8855924533
0.5509551566 -1.1518100762 0.0000000000 0.3806091307 0.0102473357 -164.7536679557 0.3970436500 -1.8858477103
0.5204314380 -1.1463249134 0.0000000000 0.3898755466 0.0277803415 -152.0413784642 0.3969854954 -1.8860958910
0.4897272582 -1.1420965366 0.0000000000 0.3989839471 0.0458684099 -138.2399240212 0.3969577849 -1.8863369714
0.4588965867 -1.1391324132 0.0000000000 0.4079052872 0.0645691514 -123.3552534634 0.3969620777 -1.8865707830
0.4279932166 -1.1374377031 0.0000000000 0.4165990126 0.0838919714 -107.3973243662 0.3969994860 -1.8867970219
0.3970706726 -1.1370152651 0.0000000000 0.4250109977 0.1037886990 -90.3803759789 0.3970706727 -1.8870152651
0.3661821251 -1.1378656741 0.0000000000 0.4330698661 0.1241375164 -72.3231717690 0.3971758559 -1.8872249929
0.3353803101 -1.1399872431 0.0000000000 0.4406820847 0.1447208142 -53.2492501542 0.3973148194 -1.8874256129
0.3047174524 -1.1433760498 0.0000000000 0.4477265354 0.1651986830 -33.1872356720 0.3974869260 -1.8876164846
0.2742451905 -1.1480259639 0.0000000000 0.4540497935 0.1850817425 -12.1713190090 0.3976911333 -1.8877969414
0.2440145047 -1.1539286750 0.0000000000 0.4594640795 0.2037100992 9.7578897745 0.3979260115 -1.8879663090
0.2140756472 -1.1610737221 0.0000000000 0.4637506362 0.2202490960 32.5518138714 0.3981897627 -1.8881239215
0.1844780745 -1.1694485241 0.0000000000 0.4666716629 0.2337158328 56.1512807621 0.3984802429 -1.8882691359
0.1552703844 -1.1790384158 0.0000000000 0.4679931772 0.2430503941 80.4825483333 0.3987949865 -1.8884013470
0.1265002549 -1.1898266889 0.0000000000 0.4675185343 0.2472386435 105.4521753708 0.3991312330 -1.8885200049
0.0982143890 -1.2017946415 0.0000000000 0.4651278343 0.2454772501 130.9416712503 0.3994859577 -1.8886246364
0.0704584639 -1.2149216329 0.0000000000 0.4608135966 0.2373494205 156.8035628639 0.3998559057 -1.8887148692
0.0432770857 -1.2291851454 0.0000000000 0.4547006472 0.2229614488 182.8606607328 0.4002376307 -1.8887904587
0.0167137514 -1.2445608496 0.0000000000 0.4470406947 0.2029883243 208.9094906398 0.4006275384 -1.8888513152
-0.0091891819 -1.2610226700 0.0000000000 0.4381797800 0.1785980577 234.7273689058 0.4010219369 -1.8888975286
-0.0343905190 -1.2785428500 0.0000000000 0.4285063727 0.1512641880 260.0809723115 0.4014170928 -1.8889293878
-0.0588502403 -1.2970920123 0.0000000000 0.4183949792 0.1225160164 284.7337254405 0.4018092944 -1.8889473942
-0.0825295069 -1.3166392155 0.0000000000 0.4081610327 0.0936966246 308.4504219629 0.4021949216 -1.8889522665
-0.1053906580 -1.3371520079 0.0000000000 0.3980373307 0.0657904139 330.9994555903 0.4025705209 -1.8889449407
-0.1485137285 -1.3809368214 0.0000000000 0.3786538335 0.0145274346 371.6954387835 0.4032792046 -1.8888980000
-0.1687061111 -1.4041366874 0.0000000000 0.3695205792 -0.0088497374 389.4146234011 0.4036069402 -1.8888611156
-0.1879413000 -1.4281578357 0.0000000000 0.3608007657 -0.0311476142 405.1178745193 0.4039140822 -1.8888173700
-0.2061873938 -1.4529607029 0.0000000000 0.3525245533 -0.0528212238 418.6298074688 0.4041991443 -1.8887683142
-0.2234136693 -1.4785044129 0.0000000000 0.3447369120 -0.0743264664 429.7970683480 0.4044611895 -1.8887155313
-0.2395906297 -1.5047468009 0.0000000000 0.3375019972 -0.0960645054 438.4911657535 0.4046998362 -1.8886605875
-0.2546900745 -1.5316444485 0.0000000000 0.3309021996 -0.1183543662 444.6106790886 0.4049152390 -1.8886049931
-0.2686851915 -1.5591527289 0.0000000000 0.3250340166 -0.1414264624 448.0828306675 0.4051080450 -1.8885501703
-0.2815506680 -1.5872258601 0.0000000000 0.3200025816 -0.1654290751 448.8643565239 0.4052793271 -1.8884974283
-0.2932628128 -1.6158169680 0.0000000000 0.3159161416 -0.1904411711 446.9415838520 0.4054305034 -1.8884479457
-0.3037996837 -1.6448781590 0.0000000000 0.3128812341 -0.2164870118 442.3296367904 0.4055632477 -1.8884027607
-0.3131412111 -1.6743605987 0.0000000000 0.3109988957 -0.2435499327 435.0707385666 0.4056794008 -1.8883627666
-0.3212693109 -1.7042145977 0.0000000000 0.3103619684 -0.2715841122 425.2316380595 0.4057808887 -1.8883287128
-0.3281679816 -1.7343897016 0.0000000000 0.3110534312 -0.3005240561 412.9002465120 0.4058696524 -1.8883012079
-0.3338233833 -1.7648347829 0.0000000000 0.3131456317 -0.3302919919 398.1816163088 0.4059475943 -1.8882807253
-0.3382238961 -1.7954981350 0.0000000000 0.3167002898 -0.3608035380 381.1934257957 0.4060165388 -1.8882676082
-0.3413601611 -1.8263275667 0.0000000000 0.3217691561 -0.3919720153 362.0611532803 0.4060782087 -1.8882620755
-0.3432251050 -1.8572704964 0.0000000000 0.3283952220 -0.4237116905 340.9131322343 0.4061342138 -1.8882642267
-0.3438139516 -1.8882740470 0.0000000000 0.3366143789 -0.4559401477 317.8756805945 0.4061860484 -1.8882740467
-0.3431242230 -1.9192851411 0.0000000000 0.3464574253 -0.4885799006 293.0684910858 0.4062350957 -1.8882914101
-0.3411557346 -1.9502505951 0.0000000000 0.3579523064 -0.5215593016 266.6004566575 0.4062826351 -1.8883160857
-0.3379105820 -1.9811172154 0.0000000000 0.3711264651 -0.5548127653 238.5660848254 0.4063298527 -1.8883477416
-0.3333931248 -2.0118318931 0.0000000000 0.3860091732 -0.5882803064 209.0426268659 0.4063778527 -1.8883859500