 TITLE = "Tecplot data"
 VARIABLES = "X", "Y", "Z" "U", "V", "p", "dispX", "dispY"
 ZONE SOLUTIONTIME=198.900000, NODES=26114 , ELEMENTS=25916, DATAPACKING=POINT, ZONETYPE=FEQUADRILATERAL
0.4085801296 0.4085801297 0.0000000000 -0.0014468286 -0.0014468286 -630.8456945920 0.0550267391 0.0550267391
0.4085801299 -0.2985266513 0.0000000000 -0.0014468286 -0.0014468286 -283.8689088428 0.0550267391 0.0550267391
-0.2985266516 0.4085801296 0.0000000000 -0.0014468286 -0.0014468286 -248.9205412965 0.0550267391 0.0550267391
-0.2985266513 -0.2985266517 0.0000000000 -0.0014468286 -0.0014468286 -115.1508447304 0.0550267391 0.0550267391
0.5807673679 0.5808234257 0.0000000000 0.4490153301 -0.0483819571 -624.6857529525 0.0504372821 0.0504933398
0.5759512590 -0.4846175680 0.0000000000 0.1727402052 -0.0277221487 -258.2080158588 0.0456211728 0.0457125175
-0.4850064891 0.5758168654 0.0000000000 0.8864156079 0.4978247136 -3.0256401230 0.0453235969 0.0454867796
-0.4802874931 -0.4798023126 0.0000000000 0.8729647428 -0.4864105646 85.0588553443 0.0500425925 0.0505277736
1.1006757963 1.1007502671 0.0000000000 1.0923894961 -0.1654125451 -207.8252879599 0.0400156247 0.0400900952
1.0928944758 -1.0280881262 0.0000000000 1.3193625111 0.0373625352 -194.8454047803 0.0322343032 0.0325720448
-1.0292143392 1.0925732724 0.0000000000 0.9576569419 0.1560408328 50.0755129285 0.0314458329 0.0319131010
-1.0218459565 -1.0206166499 0.0000000000 0.9579037710 -0.1627497677 102.5746614368 0.0388142148 0.0400435224
4.2206525974 3.3181292485 0.0000000000 1.0221666863 -0.0356852249 17.8556993622 0.0206525974 0.0181292485
4.2124039844 -3.2889956139 0.0000000000 1.0175362288 -0.0128873837 29.9965277993 0.0124039844 0.0110043861
20.0000000000 4.7000000000 0.0000000000 1.0464539184 0.0352330911 0.2183849827 0.0000000000 0.0000000000
20.0000000000 -4.7000000000 0.0000000000 1.0378880082 -0.0319384158 0.0615744021 0.0000000000 0.0000000000
-10.0000000000 15.0000000000 0.0000000000 1.0000000000 0.0000000000 25.3731782794 0.0000000000 0.0000000000
20.0000000000 15.0000000000 0.0000000000 1.0321011714 0.0000000000 0.0240100231 0.0000000000 0.0000000000
20.0000000000 -15.0000000000 0.0000000000 1.0314884573 0.0000000000 0.0233552082 0.0000000000 0.0000000000
-10.0000000000 -15.0000000000 0.0000000000 1.0000000000 0.0000000000 37.2724361524 0.0000000000 0.0000000000
0.4215526752 -0.2850596295 0.0000000000 -0.0014468286 -0.0014468286 -283.0975434418 0.0550267391 0.0550267391
0.4340126009 -0.2711169663 0.0000000000 -0.0014468286 -0.0014468286 -283.3564760180 0.0550267391 0.0550267391
0.4459424805 -0.2567181616 0.0000000000 -0.0014468286 -0.0014468286 -284.9305274992 0.0550267391 0.0550267391
0.4573256292 -0.2418833534 0.0000000000 -0.0014468286 -0.0014468286 -287.5812124695 0.0550267391 0.0550267391
0.4681461264 -0.2266332897 0.0000000000 -0.0014468286 -0.0014468286 -291.2300657516 0.0550267391 0.0550267391
0.4783888389 -0.2109892989 0.0000000000 -0.0014468286 -0.0014468286 -295.6558249939 0.0550267391 0.0550267391
0.4880394411 -0.1949732606 0.0000000000 -0.0014468286 -0.0014468286 -300.7100824894 0.0550267391 0.0550267391
0.4970844360 -0.1786075748 0.0000000000 -0.0014468286 -0.0014468286 -306.2592518030 0.0550267391 0.0550267391
0.5055111732 -0.1619151302 0.0000000000 -0.0014468286 -0.0014468286 -312.2333078356 0.0550267391 0.0550267391
0.5133078671 -0.1449192728 0.0000000000 -0.0014468286 -0.0014468286 -318.6022733445 0.0550267391 0.0550267391
0.5204636135 -0.1276437728 0.0000000000 -0.0014468286 -0.0014468286 -325.3748930178 0.0550267391 0.0550267391
0.5269684043 -0.1101127916 0.0000000000 -0.0014468286 -0.0014468286 -332.5846311595 0.0550267391 0.0550267391
0.5328131421 -0.0923508479 0.0000000000 -0.0014468286 -0.0014468286 -340.2855224547 0.0550267391 0.0550267391
0.5379896523 -0.0743827832 0.0000000000 -0.0014468286 -0.0014468286 -348.5484750540 0.0550267391 0.0550267391
0.5424906952 -0.0562337276 0.0000000000 -0.0014468286 -0.0014468286 -357.4602075668 0.0550267391 0.0550267391
0.5463099757 -0.0379290643 0.0000000000 -0.0014468286 -0.0014468286 -367.1199024430 0.0550267391 0.0550267391
0.5494421522 -0.0194943938 0.0000000000 -0.0014468286 -0.0014468286 -377.6324186873 0.0550267391 0.0550267391
0.5518828441 -0.0009554987 0.0000000000 -0.0014468286 -0.0014468286 -389.0966560842 0.0550267391 0.0550267391
0.5536286377 0.0176616925 0.0000000000 -0.0014468286 -0.0014468286 -401.5898844020 0.0550267391 0.0550267391
0.5546770915 0.0363311422 0.0000000000 -0.0014468286 -0.0014468286 -415.1498260398 0.0550267391 0.0550267391
0.5550267391 0.0550267393 0.0000000000 -0.0014468286 -0.0014468286 -429.7573891679 0.0550267391 0.0550267391
0.5546770915 0.0737223364 0.0000000000 -0.0014468286 -0.0014468286 -445.3232476279 0.0550267391 0.0550267391
0.5536286377 0.0923917861 0.0000000000 -0.0014468286 -0.0014468286 -461.6811449239 0.0550267391 0.0550267391
0.5518828440 0.1110089773 0.0000000000 -0.0014468286 -0.0014468286 -478.5899637151 0.0550267391 0.0550267391
0.5494421522 0.1295478723 0.0000000000 -0.0014468286 -0.0014468286 -495.7450356809 0.0550267391 0.0550267391
0.5463099757 0.1479825428 0.0000000000 -0.0014468286 -0.0014468286 -512.7980280266 0.0550267391 0.0550267391
0.5424906951 0.1662872062 0.0000000000 -0.0014468286 -0.0014468286 -529.3826186416 0.0550267391 0.0550267391
0.5379896522 0.1844362618 0.0000000000 -0.0014468286 -0.0014468286 -545.1435604258 0.0550267391 0.0550267391
0.5328131419 0.2024043264 0.0000000000 -0.0014468286 -0.0014468286 -559.7638216052 0.0550267391 0.0550267391
0.5269684042 0.2201662702 0.0000000000 -0.0014468286 -0.0014468286 -572.9893552204 0.0550267391 0.0550267391
0.5204636134 0.2376972514 0.0000000000 -0.0014468286 -0.0014468286 -584.6433851692 0.0550267391 0.0550267391
0.5133078670 0.2549727514 0.0000000000 -0.0014468286 -0.0014468286 -594.6386957315 0.0550267391 0.0550267391
0.5055111730 0.2719686088 0.0000000000 -0.0014468286 -0.0014468286 -602.9697380419 0.0550267391 0.0550267391
0.4970844358 0.2886610533 0.0000000000 -0.0014468286 -0.0014468286 -609.7182979383 0.0550267391 0.0550267391
0.4880394409 0.3050267392 0.0000000000 -0.0014468286 -0.0014468286 -615.0160576106 0.0550267391 0.0550267391
0.4783888387 0.3210427774 0.0000000000 -0.0014468286 -0.0014468286 -619.0723089176 0.0550267391 0.0550267391
0.4681461262 0.3366867682 0.0000000000 -0.0014468286 -0.0014468286 -622.0807469286 0.0550267391 0.0550267391
0.4573256289 0.3519368319 0.0000000000 -0.0014468286 -0.0014468286 -624.3447801348 0.0550267391 0.0550267391
0.4459424803 0.3667716401 0.0000000000 -0.0014468286 -0.0014468286 -626.0228577327 0.0550267391 0.0550267391
0.4340126006 0.3811704448 0.0000000000 -0.0014468286 -0.0014468286 -627.5560767398 0.0550267391 0.0550267391
0.4215526750 0.3951131080 0.0000000000 -0.0014468286 -0.0014468286 -628.8961532333 0.0550267391 0.0550267391
0.3936675249 0.4228886945 0.0000000000 -0.0014468286 -0.0014468286 -633.0922637930 0.0550267391 0.0550267391
0.3781763580 0.4365687732 0.0000000000 -0.0014468286 -0.0014468286 -636.5637659843 0.0550267391 0.0550267391
0.3621330954 0.4495969938 0.0000000000 -0.0014468286 -0.0014468286 -640.8025020015 0.0550267391 0.0550267391
0.3455651467 0.4619510978 0.0000000000 -0.0014468286 -0.0014468286 -646.2235427163 0.0550267391 0.0550267391
0.3285008181 0.4736099783 0.0000000000 -0.0014468286 -0.0014468286 -652.6244351577 0.0550267391 0.0550267391
0.3109692636 0.4845537163 0.0000000000 -0.0014468286 -0.0014468286 -660.0854084403 0.0550267391 0.0550267391
0.2930004355 0.4947636147 0.0000000000 -0.0014468286 -0.0014468286 -668.5024389139 0.0550267391 0.0550267391
0.2746250334 0.5042222301 0.0000000000 -0.0014468286 -0.0014468286 -677.8819662134 0.0550267391 0.0550267391
0.2558744513 0.5129134024 0.0000000000 -0.0014468286 -0.0014468286 -688.1742553440 0.0550267391 0.0550267391
0.2367807243 0.5208222831 0.0000000000 -0.0014468286 -0.0014468286 -699.3463862926 0.0550267391 0.0550267391
0.2173764736 0.5279353600 0.0000000000 -0.0014468286 -0.0014468286 -711.3114179758 0.0550267391 0.0550267391
0.1976948511 0.5342404803 0.0000000000 -0.0014468286 -0.0014468286 -723.9410796998 0.0550267391 0.0550267391
0.1777694826 0.5397268721 0.0000000000 -0.0014468286 -0.0014468286 -737.0401330035 0.0550267391 0.0550267391
0.1576344101 0.5443851618 0.0000000000 -0.0014468286 -0.0014468286 -750.3511325783 0.0550267391 0.0550267391
0.1373240341 0.5482073908 0.0000000000 -0.0014468286 -0.0014468286 -763.5503147427 0.0550267391 0.0550267391
0.1168730546 0.5511870290 0.0000000000 -0.0014468286 -0.0014468286 -776.2552714118 0.0550267391 0.0550267391
0.0963164117 0.5533189856 0.0000000000 -0.0014468286 -0.0014468286 -788.0326226810 0.0550267391 0.0550267391
0.0756892261 0.5545996183 0.0000000000 -0.0014468286 -0.0014468286 -798.4115909742 0.0550267391 0.0550267391
0.0550267390 0.5550267391 0.0000000000 -0.0014468286 -0.0014468286 -806.8993321616 0.0550267391 0.0550267391
0.0343642519 0.5545996183 0.0000000000 -0.0014468286 -0.0014468286 -812.9987237644 0.0550267391 0.0550267391
0.0137370662 0.5533189856 0.0000000000 -0.0014468286 -0.0014468286 -816.2263824630 0.0550267391 0.0550267391
-0.0068195767 0.5511870289 0.0000000000 -0.0014468286 -0.0014468286 -816.1301455212 0.0550267391 0.0550267391
-0.0272705562 0.5482073908 0.0000000000 -0.0014468286 -0.0014468286 -812.3046720779 0.0550267391 0.0550267391
-0.0475809321 0.5443851617 0.0000000000 -0.0014468286 -0.0014468286 -804.4044857027 0.0550267391 0.0550267391
-0.0677160046 0.5397268720 0.0000000000 -0.0014468286 -0.0014468286 -792.1539115864 0.0550267391 0.0550267391
-0.0876413732 0.5342404803 0.0000000000 -0.0014468286 -0.0014468286 -775.3537793900 0.0550267391 0.0550267391
-0.1073229956 0.5279353599 0.0000000000 -0.0014468286 -0.0014468286 -753.8849872433 0.0550267391 0.0550267391
-0.1267272463 0.5208222831 0.0000000000 -0.0014468286 -0.0014468286 -727.7092468351 0.0550267391 0.0550267391
-0.1458209734 0.5129134024 0.0000000000 -0.0014468286 -0.0014468286 -696.8674421656 0.0550267391 0.0550267391
-0.1645715555 0.5042222300 0.0000000000 -0.0014468286 -0.0014468286 -661.4760918789 0.0550267391 0.0550267391
-0.1829469576 0.4947636146 0.0000000000 -0.0014468286 -0.0014468286 -621.7223967843 0.0550267391 0.0550267391
-0.2009157856 0.4845537162 0.0000000000 -0.0014468286 -0.0014468286 -577.8583074356 0.0550267391 0.0550267391
-0.2184473401 0.4736099781 0.0000000000 -0.0014468286 -0.0014468286 -530.1939724457 0.0550267391 0.0550267391
-0.2355116687 0.4619510976 0.0000000000 -0.0014468286 -0.0014468286 -479.0908436696 0.0550267391 0.0550267391
-0.2520796174 0.4495969937 0.0000000000 -0.0014468286 -0.0014468286 -424.9546319668 0.0550267391 0.0550267391
-0.2681228800 0.4365687731 0.0000000000 -0.0014468286 -0.0014468286 -368.2282394720 0.0550267391 0.0550267391
-0.2836140468 0.4228886943 0.0000000000 -0.0014468286 -0.0014468286 -309.3847499853 0.0550267391 0.0550267391
-0.3128352164 0.3936675248 0.0000000000 -0.0014468286 -0.0014468286 -187.3485863596 0.0550267391 0.0550267391
-0.3265152951 0.3781763579 0.0000000000 -0.0014468286 -0.0014468286 -125.1920207339 0.0550267391 0.0550267391
-0.3395435157 0.3621330953 0.0000000000 -0.0014468286 -0.0014468286 -62.9780559146 0.0550267391 0.0550267391
-0.3518976196 0.3455651467 0.0000000000 -0.0014468286 -0.0014468286 -1.2323023923 0.0550267391 0.0550267391
-0.3635565001 0.3285008180 0.0000000000 -0.0014468286 -0.0014468286 59.5264660685 0.0550267391 0.0550267391
-0.3745002382 0.3109692635 0.0000000000 -0.0014468286 -0.0014468286 118.7911132168 0.0550267391 0.0550267391
-0.3847101366 0.2930004355 0.0000000000 -0.0014468286 -0.0014468286 176.0705423326 0.0550267391 0.0550267391
-0.3941687519 0.2746250334 0.0000000000 -0.0014468286 -0.0014468286 230.8937492849 0.0550267391 0.0550267391
-0.4028599243 0.2558744513 0.0000000000 -0.0014468286 -0.0014468286 282.8135735894 0.0550267391 0.0550267391
-0.4107688050 0.2367807242 0.0000000000 -0.0014468286 -0.0014468286 331.4101807238 0.0550267391 0.0550267391
-0.4178818818 0.2173764735 0.0000000000 -0.0014468286 -0.0014468286 376.2942917113 0.0550267391 0.0550267391
-0.4241870022 0.1976948510 0.0000000000 -0.0014468286 -0.0014468286 417.1101608133 0.0550267391 0.0550267391
-0.4296733939 0.1777694825 0.0000000000 -0.0014468286 -0.0014468286 453.5382918037 0.0550267391 0.0550267391
-0.4343316836 0.1576344100 0.0000000000 -0.0014468286 -0.0014468286 485.2978780135 0.0550267391 0.0550267391
-0.4381539126 0.1373240340 0.0000000000 -0.0014468286 -0.0014468286 512.1489501183 0.0550267391 0.0550267391
-0.4411335508 0.1168730545 0.0000000000 -0.0014468286 -0.0014468286 533.8942170869 0.0550267391 0.0550267391
-0.4432655074 0.0963164116 0.0000000000 -0.0014468286 -0.0014468286 550.3805885957 0.0550267391 0.0550267391
-0.4445461401 0.0756892260 0.0000000000 -0.0014468286 -0.0014468286 561.5003705948 0.0550267391 0.0550267391
-0.4449732609 0.0550267389 0.0000000000 -0.0014468286 -0.0014468286 567.1921289694 0.0550267391 0.0550267391
-0.4445461401 0.0343642518 0.0000000000 -0.0014468286 -0.0014468286 567.4412189520 0.0550267391 0.0550267391
-0.4432655074 0.0137370661 0.0000000000 -0.0014468286 -0.0014468286 562.2799798757 0.0550267391 0.0550267391
-0.4411335508 -0.0068195768 0.0000000000 -0.0014468286 -0.0014468286 551.7875959633 0.0550267391 0.0550267391
-0.4381539126 -0.0272705563 0.0000000000 -0.0014468286 -0.0014468286 536.0896242207 0.0550267391 0.0550267391
-0.4343316835 -0.0475809322 0.0000000000 -0.0014468286 -0.0014468286 515.3571903237 0.0550267391 0.0550267391
-0.4296733938 -0.0677160047 0.0000000000 -0.0014468286 -0.0014468286 489.8058529410 0.0550267391 0.0550267391
-0.4241870021 -0.0876413733 0.0000000000 -0.0014468286 -0.0014468286 459.6941364524 0.0550267391 0.0550267391
-0.4178818817 -0.1073229957 0.0000000000 -0.0014468286 -0.0014468286 425.3217316604 0.0550267391 0.0550267391
-0.4107688049 -0.1267272464 0.0000000000 -0.0014468286 -0.0014468286 387.0273638476 0.0550267391 0.0550267391
-0.4028599241 -0.1458209735 0.0000000000 -0.0014468286 -0.0014468286 345.1863272857 0.0550267391 0.0550267391
-0.3941687518 -0.1645715555 0.0000000000 -0.0014468286 -0.0014468286 300.2076848258 0.0550267391 0.0550267391
-0.3847101364 -0.1829469576 0.0000000000 -0.0014468286 -0.0014468286 252.5311302542 0.0550267391 0.0550267391
-0.3745002380 -0.2009157857 0.0000000000 -0.0014468286 -0.0014468286 202.6235095005 0.0550267391 0.0550267391
-0.3635564999 -0.2184473402 0.0000000000 -0.0014468286 -0.0014468286 150.9749944499 0.0550267391 0.0550267391
-0.3518976194 -0.2355116688 0.0000000000 -0.0014468286 -0.0014468286 98.0949000943 0.0550267391 0.0550267391
-0.3395435155 -0.2520796175 0.0000000000 -0.0014468286 -0.0014468286 44.5071322779 0.0550267391 0.0550267391
-0.3265152949 -0.2681228800 0.0000000000 -0.0014468286 -0.0014468286 -9.2547502742 0.0550267391 0.0550267391
-0.3128352161 -0.2836140469 0.0000000000 -0.0014468286 -0.0014468286 -62.6528790017 0.0550267391 0.0550267391
-0.2836140465 -0.3128352164 0.0000000000 -0.0014468286 -0.0014468286 -166.2199134500 0.0550267391 0.0550267391
-0.2681228796 -0.3265152952 0.0000000000 -0.0014468286 -0.0014468286 -215.3457044428 0.0550267391 0.0550267391
-0.2520796170 -0.3395435158 0.0000000000 -0.0014468286 -0.0014468286 -262.0353362234 0.0550267391 0.0550267391
-0.2355116684 -0.3518976197 0.0000000000 -0.0014468286 -0.0014468286 -305.8250274654 0.0550267391 0.0550267391
-0.2184473397 -0.3635565002 0.0000000000 -0.0014468286 -0.0014468286 -346.2881113797 0.0550267391 0.0550267391
-0.2009157852 -0.3745002382 0.0000000000 -0.0014468286 -0.0014468286 -383.0433802951 0.0550267391 0.0550267391
-0.1829469572 -0.3847101366 0.0000000000 -0.0014468286 -0.0014468286 -415.7636204117 0.0550267391 0.0550267391
-0.1645715551 -0.3941687520 0.0000000000 -0.0014468286 -0.0014468286 -444.1841237876 0.0550267391 0.0550267391
-0.1458209730 -0.4028599244 0.0000000000 -0.0014468286 -0.0014468286 -468.1108767102 0.0550267391 0.0550267391
-0.1267272459 -0.4107688050 0.0000000000 -0.0014468286 -0.0014468286 -487.4280250797 0.0550267391 0.0550267391
-0.1073229952 -0.4178818819 0.0000000000 -0.0014468286 -0.0014468286 -502.1041173223 0.0550267391 0.0550267391
-0.0876413728 -0.4241870022 0.0000000000 -0.0014468286 -0.0014468286 -512.1965382260 0.0550267391 0.0550267391
-0.0677160042 -0.4296733940 0.0000000000 -0.0014468286 -0.0014468286 -517.8534933061 0.0550267391 0.0550267391
-0.0475809317 -0.4343316836 0.0000000000 -0.0014468286 -0.0014468286 -519.3129073842 0.0550267391 0.0550267391
-0.0272705558 -0.4381539127 0.0000000000 -0.0014468286 -0.0014468286 -516.8976883775 0.0550267391 0.0550267391
-0.0068195763 -0.4411335508 0.0000000000 -0.0014468286 -0.0014468286 -511.0069972130 0.0550267391 0.0550267391
0.0137370667 -0.4432655074 0.0000000000 -0.0014468286 -0.0014468286 -502.1034640003 0.0550267391 0.0550267391
0.0343642523 -0.4445461401 0.0000000000 -0.0014468286 -0.0014468286 -490.6966820738 0.0550267391 0.0550267391
0.0550267394 -0.4449732609 0.0000000000 -0.0014468286 -0.0014468286 -477.3237551791 0.0550267391 0.0550267391
0.0756892265 -0.4445461401 0.0000000000 -0.0014468286 -0.0014468286 -462.5280956047 0.0550267391 0.0550267391
0.0963164121 -0.4432655074 0.0000000000 -0.0014468286 -0.0014468286 -446.8379999229 0.0550267391 0.0550267391
0.1168730550 -0.4411335507 0.0000000000 -0.0014468286 -0.0014468286 -430.7466672623 0.0550267391 0.0550267391
0.1373240345 -0.4381539126 0.0000000000 -0.0014468286 -0.0014468286 -414.6952688695 0.0550267391 0.0550267391
0.1576344105 -0.4343316835 0.0000000000 -0.0014468286 -0.0014468286 -399.0603518799 0.0550267391 0.0550267391
0.1777694830 -0.4296733938 0.0000000000 -0.0014468286 -0.0014468286 -384.1464608298 0.0550267391 0.0550267391
0.1976948515 -0.4241870020 0.0000000000 -0.0014468286 -0.0014468286 -370.1840514388 0.0550267391 0.0550267391
0.2173764740 -0.4178818817 0.0000000000 -0.0014468286 -0.0014468286 -357.3321126607 0.0550267391 0.0550267391
0.2367807247 -0.4107688048 0.0000000000 -0.0014468286 -0.0014468286 -345.6830640759 0.0550267391 0.0550267391
0.2558744517 -0.4028599241 0.0000000000 -0.0014468286 -0.0014468286 -335.2677791757 0.0550267391 0.0550267391
0.2746250338 -0.3941687517 0.0000000000 -0.0014468286 -0.0014468286 -326.0568294112 0.0550267391 0.0550267391
0.2930004359 -0.3847101364 0.0000000000 -0.0014468286 -0.0014468286 -317.9634290075 0.0550267391 0.0550267391
0.3109692639 -0.3745002379 0.0000000000 -0.0014468286 -0.0014468286 -310.8485820040 0.0550267391 0.0550267391
0.3285008184 -0.3635564999 0.0000000000 -0.0014468286 -0.0014468286 -304.5545568140 0.0550267391 0.0550267391
0.3455651471 -0.3518976193 0.0000000000 -0.0014468286 -0.0014468286 -298.9370673196 0.0550267391 0.0550267391
0.3621330957 -0.3395435154 0.0000000000 -0.0014468286 -0.0014468286 -293.9517383890 0.0550267391 0.0550267391
0.3781763583 -0.3265152948 0.0000000000 -0.0014468286 -0.0014468286 -289.6335946056 0.0550267391 0.0550267391
0.3936675252 -0.3128352160 0.0000000000 -0.0014468286 -0.0014468286 -286.2093770572 0.0550267391 0.0550267391
0.5956047354 -0.4645845335 0.0000000000 0.0950259610 -0.0295498963 -254.8896774612 0.0458158311 0.0455450194
0.6145010214 -0.4438236723 0.0000000000 0.0356200330 -0.0362922698 -252.3978533409 0.0460222287 0.0453918857
0.6326128637 -0.4223633982 0.0000000000 -0.0031749246 -0.0496939758 -251.1861692827 0.0462392515 0.0452539528
0.6499140629 -0.4002331659 0.0000000000 -0.0220254793 -0.0705155590 -251.5722399588 0.0464657278 0.0451319729
0.6663795152 -0.3774634329 0.0000000000 -0.0251255366 -0.0978761735 -253.6125331435 0.0467004342 0.0450266102
0.6819852520 -0.3540856197 0.0000000000 -0.0189755527 -0.1294056697 -257.1383242828 0.0469421023 0.0449384373
0.6967084785 -0.3301320673 0.0000000000 -0.0101479057 -0.1620708102 -261.9051268013 0.0471894255 0.0448679323
0.7105276112 -0.3056359947 0.0000000000 -0.0035537685 -0.1930667123 -267.7183843459 0.0474410659 0.0448154761
0.7234223129 -0.2806314533 0.0000000000 -0.0019760916 -0.2203172236 -274.4612383812 0.0476956618 0.0447813506
0.7353735268 -0.2551532806 0.0000000000 -0.0064856440 -0.2425688551 -282.0694889973 0.0479518347 0.0447657372
0.7463635086 -0.2292370520 0.0000000000 -0.0170406202 -0.2592712977 -290.5163463739 0.0482081970 0.0447687159
0.7563758568 -0.2029190314 0.0000000000 -0.0329352226 -0.2703830489 -299.8189854448 0.0484633589 0.0447902646
0.7653955411 -0.1762361207 0.0000000000 -0.0530881061 -0.2761617758 -310.0496686325 0.0487159366 0.0448302598
0.7734089290 -0.1492258070 0.0000000000 -0.0762282039 -0.2769824148 -321.3380962654 0.0489645592 0.0448884765
0.7804038104 -0.1219261099 0.0000000000 -0.1010080991 -0.2732196339 -333.8614510373 0.0492078762 0.0449645903
0.7863694198 -0.0943755267 0.0000000000 -0.1260658602 -0.2652049496 -347.8231071583 0.0494445648 0.0450581784
0.7912964567 -0.0666129770 0.0000000000 -0.1500610209 -0.2532400865 -363.4224539928 0.0496733370 0.0451687223
0.7951771039 -0.0386777462 0.0000000000 -0.1717078936 -0.2376363818 -380.8190156926 0.0498929465 0.0452956105
0.7980050433 -0.0106094283 0.0000000000 -0.1898185038 -0.2187550896 -400.0946332767 0.0501021954 0.0454381416
0.7997754694 0.0175521328 0.0000000000 -0.2033557043 -0.1970348337 -421.2182066176 0.0502999408 0.0455955282
0.8004851008 0.0457669013 0.0000000000 -0.2114893126 -0.1730019310 -444.0182797450 0.0504851008 0.0457669010
0.8001321890 0.0739947097 0.0000000000 -0.2136450734 -0.1472646608 -468.1689561829 0.0506566604 0.0459513137
0.7987165249 0.1021953181 0.0000000000 -0.2095369784 -0.1204950451 -493.1935284776 0.0508136771 0.0461477476
0.7962394434 0.1303284749 0.0000000000 -0.1991769961 -0.0934028521 -518.4876025486 0.0509552860 0.0463551175
0.7927038241 0.1583539771 0.0000000000 -0.1828613980 -0.0667067967 -543.3599836716 0.0510807045 0.0465722773
0.7881140914 0.1862317315 0.0000000000 -0.1611377094 -0.0411071340 -567.0862894077 0.0511892365 0.0467980259
0.7824762108 0.2139218150 0.0000000000 -0.1347588247 -0.0172621043 -588.9682094827 0.0512802767 0.0470311143
0.7757976829 0.2413845355 0.0000000000 -0.1046300908 0.0042312269 -608.3909302925 0.0513533133 0.0472702515
0.7680875356 0.2685804930 0.0000000000 -0.0717522781 0.0228522396 -624.8721069702 0.0514079314 0.0475141120
0.7593563128 0.2954706394 0.0000000000 -0.0371607207 0.0381683374 -638.0972418069 0.0514438151 0.0477613428
0.7496160612 0.3220163390 0.0000000000 -0.0018600746 0.0498419595 -647.9380888204 0.0514607498 0.0480105705
0.7388803146 0.3481794276 0.0000000000 0.0332458340 0.0576316049 -654.4528471429 0.0514586227 0.0482604092
0.7271640755 0.3739222719 0.0000000000 0.0674317352 0.0613867050 -657.8694350095 0.0514374246 0.0485094674
0.7144837944 0.3992078274 0.0000000000 0.1002454829 0.0610399294 -658.5555334589 0.0513972493 0.0487563561
0.7008573465 0.4239996960 0.0000000000 0.1316370407 0.0566066071 -656.9805310682 0.0513382938 0.0489996958
0.6863040064 0.4482621823 0.0000000000 0.1621369740 0.0482071616 -653.6743916097 0.0512608571 0.0492381248
0.6708444197 0.4719603495 0.0000000000 0.1930648975 0.0361280383 -649.1867265644 0.0511653390 0.0494703059
0.6545005729 0.4950600733 0.0000000000 0.2266711852 0.0209189466 -644.0467470145 0.0510522382 0.0496949340
0.6372957613 0.5175280951 0.0000000000 0.2660352347 0.0034863665 -638.7234039902 0.0509221495 0.0499107436
0.6192545533 0.5393320738 0.0000000000 0.3145610293 -0.0148917196 -633.5879594661 0.0507757610 0.0501165153
0.6004027545 0.5604406362 0.0000000000 0.3751004891 -0.0326914122 -628.8839457519 0.0506138507 0.0503110828
0.5581873579 0.6024721725 0.0000000000 0.5453547422 -0.0617963165 -620.7979712876 0.0502261792 0.0506792394
0.5347241359 0.6231605768 0.0000000000 0.6534468263 -0.0699066688 -617.4087548523 0.0499997076 0.0508475255
0.5104188906 0.6428523937 0.0000000000 0.7675726990 -0.0723394242 -614.3971224422 0.0497593561 0.0509970116
0.4853143207 0.6615131735 0.0000000000 0.8814930153 -0.0691590870 -611.5838897652 0.0495067092 0.0511266355
0.4594545547 0.6791103263 0.0000000000 0.9894836405 -0.0608262982 -608.7730743100 0.0492434362 0.0512354676
0.4328850671 0.6956131826 0.0000000000 1.0870428576 -0.0480731200 -605.7848904709 0.0489712804 0.0513227168
0.4056525924 0.7109930505 0.0000000000 1.1712319057 -0.0317883273 -602.4776373982 0.0486920477 0.0513877371
0.3778050364 0.7252232683 0.0000000000 1.2407186890 -0.0128919117 -598.7576197613 0.0484075948 0.0514300318
0.3493913849 0.7382792529 0.0000000000 1.2955822234 0.0077803021 -594.5739169562 0.0481198165 0.0514492578
0.3204616112 0.7501385444 0.0000000000 1.3369563340 0.0295562394 -589.9028031215 0.0478306334 0.0514452283
0.2910665802 0.7607808459 0.0000000000 1.3666113025 0.0519595087 -584.7291015472 0.0475419784 0.0514179146
0.2612579525 0.7701880585 0.0000000000 1.3865644550 0.0746988052 -579.0297615318 0.0472557844 0.0513674467
0.2310880860 0.7783443127 0.0000000000 1.3987790462 0.0976296927 -572.7622198992 0.0469739708 0.0512941132
0.2006099367 0.7852359941 0.0000000000 1.4049731007 0.1207053499 -565.8583433034 0.0466984302 0.0511983601
0.1698769585 0.7908517652 0.0000000000 1.4065300629 0.1439293148 -558.2236925080 0.0464310159 0.0510807877
0.1389430021 0.7951825825 0.0000000000 1.4044865618 0.1673177600 -549.7411269959 0.0461735288 0.0509421477
0.1078622140 0.7982217080 0.0000000000 1.3995682722 0.1908737957 -540.2773398502 0.0459277050 0.0507833383
0.0766889345 0.7999647174 0.0000000000 1.3922486035 0.2145728976 -529.6908352222 0.0456952039 0.0506053986
0.0454775963 0.8004095023 0.0000000000 1.3828122329 0.2383569336 -517.8400840791 0.0454775964 0.0504095023
0.0142826230 0.7995562683 0.0000000000 1.3714129518 0.2621339687 -504.5909786081 0.0452763539 0.0501969495
-0.0168416715 0.7974075285 0.0000000000 1.3581211527 0.2857814519 -489.8231049779 0.0450928378 0.0499691588
-0.0478411837 0.7939680922 0.0000000000 1.3429600770 0.3091510683 -473.4346727979 0.0449282899 0.0497276574
-0.0786621194 0.7892450491 0.0000000000 1.3259319645 0.3320741691 -455.3461444567 0.0447838235 0.0494740715
-0.1092510916 0.7832477489 0.0000000000 1.3070360203 0.3543671769 -435.5027099682 0.0446604152 0.0492101150
-0.1395552176 0.7759877771 0.0000000000 1.2862801830 0.3758366753 -413.8757839727 0.0445588979 0.0489375777
-0.1695222140 0.7674789255 0.0000000000 1.2636884053 0.3962840732 -390.4636929847 0.0444799543 0.0486583137
-0.1991004899 0.7577371595 0.0000000000 1.2393047841 0.4155098218 -365.2916965712 0.0444241122 0.0483742283
-0.2282392380 0.7467805807 0.0000000000 1.2131955262 0.4333172039 -338.4114598078 0.0443917401 0.0480872647
-0.2568885245 0.7346293861 0.0000000000 1.1854494404 0.4495157192 -309.9000723192 0.0443830441 0.0477993911
-0.2849993751 0.7213058228 0.0000000000 1.1561774333 0.4639240917 -279.8586929366 0.0443980668 0.0475125865
-0.3125238595 0.7068341401 0.0000000000 1.1255113321 0.4763729175 -248.4108876756 0.0444366855 0.0472288267
-0.3394151734 0.6912405369 0.0000000000 1.0936022514 0.4867069684 -215.7007208336 0.0444986136 0.0469500712
-0.3656277168 0.6745531069 0.0000000000 1.0606186556 0.4947871622 -181.8906530729 0.0445834020 0.0466782483
-0.3911171701 0.6568017802 0.0000000000 1.0267442201 0.5004922119 -147.1592953428 0.0446904416 0.0464152424
-0.4158405669 0.6380182617 0.0000000000 0.9921755677 0.5037199634 -111.6990627825 0.0448189678 0.0461628798
-0.4397563635 0.6182359672 0.0000000000 0.9571199359 0.5043884345 -75.7137680528 0.0449680651 0.0459229162
-0.4628245051 0.5974899567 0.0000000000 0.9217928175 0.5024365682 -39.4161888815 0.0451366738 0.0456970239
-0.5062654243 0.5532548321 0.0000000000 0.8512132841 0.4905348513 33.2344234137 0.0455275089 0.0452936535
-0.5265660871 0.5298434263 0.0000000000 0.8164121376 0.4805705786 69.1387505186 0.0457469642 0.0451189981
-0.5458749739 0.5056235730 0.0000000000 0.7822375766 0.4679568727 104.4625633559 0.0459804083 0.0449640387
-0.5641603503 0.4806374757 0.0000000000 0.7489120154 0.4527396528 138.9837354587 0.0462261878 0.0448298644
-0.5813922961 0.4549285384 0.0000000000 0.7166528620 0.4349851589 172.4848619730 0.0464825628 0.0447174201
-0.5975427472 0.4285412861 0.0000000000 0.6856706217 0.4147791700 204.7552086463 0.0467477187 0.0446274995
-0.6125855338 0.4015212843 0.0000000000 0.6561671252 0.3922260791 235.5925292505 0.0470197797 0.0445607397
-0.6264964149 0.3739150573 0.0000000000 0.6283338952 0.3674478414 264.8047448602 0.0472968216 0.0445176159
-0.6392531094 0.3457700064 0.0000000000 0.6023506544 0.3405828101 292.2114818162 0.0475768857 0.0444984381
-0.6508353232 0.3171343268 0.0000000000 0.5783839801 0.3117844713 317.6454673129 0.0478579930 0.0445033491
-0.6612247731 0.2880569245 0.0000000000 0.5565861045 0.2812200921 340.9537820805 0.0481381583 0.0445323228
-0.6704052076 0.2585873329 0.0000000000 0.5370938698 0.2490692939 361.9989695857 0.0484154044 0.0445851649
-0.6783624234 0.2287756290 0.0000000000 0.5200278437 0.2155225664 380.6600020469 0.0486877761 0.0446615139
-0.6850842794 0.1986723501 0.0000000000 0.5054916073 0.1807797240 396.8331052447 0.0489533547 0.0447608437
-0.6905607066 0.1683284100 0.0000000000 0.4935712026 0.1450483057 410.4324437727 0.0492102710 0.0448824676
-0.6947837152 0.1377950162 0.0000000000 0.4843347049 0.1085419130 421.3906626680 0.0494567196 0.0450255430
-0.6977473989 0.1071235865 0.0000000000 0.4778318669 0.0714785024 429.6592730415 0.0496909709 0.0451890777
-0.6994479348 0.0763656672 0.0000000000 0.4740938002 0.0340786668 435.2088691837 0.0499113840 0.0453719369
-0.6998835819 0.0455728511 0.0000000000 0.4731327146 -0.0034360447 438.0291785370 0.0501164181 0.0455728514
-0.6990546752 0.0147966962 0.0000000000 0.4749417797 -0.0408447476 438.1289702960 0.0503046436 0.0457904272
-0.6969636178 -0.0159113547 0.0000000000 0.4794951479 -0.0779287775 435.5358426426 0.0504747519 0.0460231548
-0.6936148699 -0.0465000530 0.0000000000 0.4867481648 -0.1144731873 430.2959050517 0.0506255649 0.0462694208
-0.6890149346 -0.0769184239 0.0000000000 0.4966378151 -0.1502682050 422.4733722464 0.0507560429 0.0465275191