 TITLE = "Tecplot data"
 VARIABLES = "X", "Y", "Z" "U", "V", "p", "dispX", "dispY"
 ZONE SOLUTIONTIME=64.900000, NODES=26114 , ELEMENTS=25916, DATAPACKING=POINT, ZONETYPE=FEQUADRILATERAL
0.4458923241 -0.0082330469 0.0000000000 0.0000000000 0.0000000000 -280.6115612730 0.0923389336 -0.3617864375
0.4458923244 -0.7153398279 0.0000000000 0.0000000000 0.0000000000 -1551.0777455994 0.0923389336 -0.3617864375
-0.2612144571 -0.0082330470 0.0000000000 0.0000000000 0.0000000000 469.1132819950 0.0923389336 -0.3617864375
-0.2612144569 -0.7153398283 0.0000000000 0.0000000000 0.0000000000 605.5196567098 0.0923389336 -0.3617864375
0.6208225529 0.1692616605 0.0000000000 0.0522560320 -0.0741670053 -289.5037547760 0.0904924670 -0.3610684254
0.6223554533 -0.9038417878 0.0000000000 0.8840262454 0.2260470394 -766.7801252451 0.0920253671 -0.3735117023
-0.4409195195 0.1594010195 0.0000000000 0.2930312702 0.2876440644 481.1763101656 0.0894105665 -0.3709290663
-0.4348585816 -0.8980831685 0.0000000000 1.0462379284 -0.5973133939 359.8477711389 0.0954715040 -0.3677530823
1.1470001471 0.6943953099 0.0000000000 -0.1569822687 -0.3046916724 -600.8730946090 0.0863399755 -0.3662648619
1.1566261135 -1.4311271914 0.0000000000 1.0603138931 -0.1975981574 -369.4321720607 0.0959659410 -0.3704670204
-0.9787602076 0.6669891640 0.0000000000 0.7257766346 0.2202271484 373.4091359636 0.0818999645 -0.3936710074
-0.9594058613 -1.4476334723 0.0000000000 0.9845432271 -0.2222887947 221.6478537589 0.1012543099 -0.3869733000
4.2519451167 2.9791756221 0.0000000000 1.0676631137 -0.0539734556 0.1192815259 0.0519451167 -0.3208243779
4.3192686830 -3.6197359581 0.0000000000 1.0732741180 0.0200720041 -32.7987334953 0.1192686830 -0.3197359581
20.0000000000 4.7000000000 0.0000000000 1.0740293905 0.0207536832 0.1565580438 0.0000000000 0.0000000000
20.0000000000 -4.7000000000 0.0000000000 1.0351015088 -0.0504024214 0.4643498193 0.0000000000 0.0000000000
-10.0000000000 15.0000000000 0.0000000000 1.0000000000 0.0000000000 112.4738244564 0.0000000000 0.0000000000
20.0000000000 15.0000000000 0.0000000000 1.0386951134 0.0000000000 0.0114284034 0.0000000000 0.0000000000
20.0000000000 -15.0000000000 0.0000000000 1.0437412622 0.0000000000 0.0150442320 0.0000000000 0.0000000000
-10.0000000000 -15.0000000000 0.0000000000 1.0000000000 0.0000000000 69.4648995579 0.0000000000 0.0000000000
0.4588648697 -0.7018728062 0.0000000000 0.0000000000 0.0000000000 -1518.7179959553 0.0923389336 -0.3617864375
0.4713247954 -0.6879301429 0.0000000000 0.0000000000 0.0000000000 -1440.9575619595 0.0923389336 -0.3617864375
0.4832546750 -0.6735313382 0.0000000000 0.0000000000 0.0000000000 -1388.4429397202 0.0923389336 -0.3617864375
0.4946378236 -0.6586965301 0.0000000000 0.0000000000 0.0000000000 -1322.5363198188 0.0923389336 -0.3617864375
0.5054583209 -0.6434464663 0.0000000000 0.0000000000 0.0000000000 -1262.8271326790 0.0923389336 -0.3617864375
0.5157010333 -0.6278024755 0.0000000000 0.0000000000 0.0000000000 -1199.9070164990 0.0923389336 -0.3617864375
0.5253516356 -0.6117864373 0.0000000000 0.0000000000 0.0000000000 -1139.3938134845 0.0923389336 -0.3617864375
0.5343966304 -0.5954207514 0.0000000000 0.0000000000 0.0000000000 -1078.9813974706 0.0923389336 -0.3617864375
0.5428233676 -0.5787283068 0.0000000000 0.0000000000 0.0000000000 -1020.5425370296 0.0923389336 -0.3617864375
0.5506200616 -0.5617324494 0.0000000000 0.0000000000 0.0000000000 -963.6854921714 0.0923389336 -0.3617864375
0.5577758080 -0.5444569495 0.0000000000 0.0000000000 0.0000000000 -909.1720019871 0.0923389336 -0.3617864375
0.5642805988 -0.5269259683 0.0000000000 0.0000000000 0.0000000000 -857.0784041354 0.0923389336 -0.3617864375
0.5701253365 -0.5091640245 0.0000000000 0.0000000000 0.0000000000 -807.7829965357 0.0923389336 -0.3617864375
0.5753018468 -0.4911959598 0.0000000000 0.0000000000 0.0000000000 -761.4057900983 0.0923389336 -0.3617864375
0.5798028897 -0.4730469043 0.0000000000 0.0000000000 0.0000000000 -717.9977170048 0.0923389336 -0.3617864375
0.5836221702 -0.4547422409 0.0000000000 0.0000000000 0.0000000000 -678.7488462312 0.0923389336 -0.3617864375
0.5867543467 -0.4363075704 0.0000000000 0.0000000000 0.0000000000 -641.9255873763 0.0923389336 -0.3617864375
0.5891950385 -0.4177686754 0.0000000000 0.0000000000 0.0000000000 -607.6515341108 0.0923389336 -0.3617864375
0.5909408322 -0.3991514841 0.0000000000 0.0000000000 0.0000000000 -576.9069156552 0.0923389336 -0.3617864375
0.5919892860 -0.3804820345 0.0000000000 0.0000000000 0.0000000000 -549.1869686991 0.0923389336 -0.3617864375
0.5923389336 -0.3617864373 0.0000000000 0.0000000000 0.0000000000 -524.2659480478 0.0923389336 -0.3617864375
0.5919892859 -0.3430908402 0.0000000000 0.0000000000 0.0000000000 -501.9357022924 0.0923389336 -0.3617864375
0.5909408321 -0.3244213906 0.0000000000 0.0000000000 0.0000000000 -481.9928488465 0.0923389336 -0.3617864375
0.5891950385 -0.3058041993 0.0000000000 0.0000000000 0.0000000000 -464.1840745427 0.0923389336 -0.3617864375
0.5867543466 -0.2872653043 0.0000000000 0.0000000000 0.0000000000 -448.2615328829 0.0923389336 -0.3617864375
0.5836221701 -0.2688306338 0.0000000000 0.0000000000 0.0000000000 -433.9981342972 0.0923389336 -0.3617864375
0.5798028896 -0.2505259704 0.0000000000 0.0000000000 0.0000000000 -421.0937698456 0.0923389336 -0.3617864375
0.5753018467 -0.2323769148 0.0000000000 0.0000000000 0.0000000000 -409.4080282995 0.0923389336 -0.3617864375
0.5701253364 -0.2144088502 0.0000000000 0.0000000000 0.0000000000 -398.5071141396 0.0923389336 -0.3617864375
0.5642805987 -0.1966469064 0.0000000000 0.0000000000 0.0000000000 -388.8533973013 0.0923389336 -0.3617864375
0.5577758078 -0.1791159252 0.0000000000 0.0000000000 0.0000000000 -378.1094322991 0.0923389336 -0.3617864375
0.5506200614 -0.1618404253 0.0000000000 0.0000000000 0.0000000000 -371.1744476307 0.0923389336 -0.3617864375
0.5428233675 -0.1448445679 0.0000000000 0.0000000000 0.0000000000 -360.3725331416 0.0923389336 -0.3617864375
0.5343966303 -0.1281521233 0.0000000000 0.0000000000 0.0000000000 -352.2584434241 0.0923389336 -0.3617864375
0.5253516354 -0.1117864374 0.0000000000 0.0000000000 0.0000000000 -343.4343956368 0.0923389336 -0.3617864375
0.5157010331 -0.0957703992 0.0000000000 0.0000000000 0.0000000000 -334.8110063122 0.0923389336 -0.3617864375
0.5054583207 -0.0801264084 0.0000000000 0.0000000000 0.0000000000 -326.0912969112 0.0923389336 -0.3617864375
0.4946378234 -0.0648763447 0.0000000000 0.0000000000 0.0000000000 -317.2757893450 0.0923389336 -0.3617864375
0.4832546747 -0.0500415365 0.0000000000 0.0000000000 0.0000000000 -308.3857853450 0.0923389336 -0.3617864375
0.4713247951 -0.0356427318 0.0000000000 0.0000000000 0.0000000000 -299.2820714974 0.0923389336 -0.3617864375
0.4588648694 -0.0217000686 0.0000000000 0.0000000000 0.0000000000 -290.1292449626 0.0923389336 -0.3617864375
0.4309797193 0.0060755178 0.0000000000 0.0000000000 0.0000000000 -270.1051292188 0.0923389336 -0.3617864375
0.4154885524 0.0197555966 0.0000000000 0.0000000000 0.0000000000 -259.1272108395 0.0923389336 -0.3617864375
0.3994452899 0.0327838172 0.0000000000 0.0000000000 0.0000000000 -247.9646704467 0.0923389336 -0.3617864375
0.3828773412 0.0451379211 0.0000000000 0.0000000000 0.0000000000 -236.3968792322 0.0923389336 -0.3617864375
0.3658130126 0.0567968016 0.0000000000 0.0000000000 0.0000000000 -224.5190853114 0.0923389336 -0.3617864375
0.3482814580 0.0677405397 0.0000000000 0.0000000000 0.0000000000 -212.2307685202 0.0923389336 -0.3617864375
0.3303126300 0.0779504381 0.0000000000 0.0000000000 0.0000000000 -199.5537233478 0.0923389336 -0.3617864375
0.3119372279 0.0874090534 0.0000000000 0.0000000000 0.0000000000 -186.4360736556 0.0923389336 -0.3617864375
0.2931866458 0.0961002258 0.0000000000 0.0000000000 0.0000000000 -172.8727730291 0.0923389336 -0.3617864375
0.2740929188 0.1040091065 0.0000000000 0.0000000000 0.0000000000 -158.8321716599 0.0923389336 -0.3617864375
0.2546886681 0.1111221833 0.0000000000 0.0000000000 0.0000000000 -144.3008748488 0.0923389336 -0.3617864375
0.2350070456 0.1174273037 0.0000000000 0.0000000000 0.0000000000 -129.2566345982 0.0923389336 -0.3617864375
0.2150816770 0.1229136955 0.0000000000 0.0000000000 0.0000000000 -113.6848440632 0.0923389336 -0.3617864375
0.1949466046 0.1275719851 0.0000000000 0.0000000000 0.0000000000 -97.5686292203 0.0923389336 -0.3617864375
0.1746362286 0.1313942142 0.0000000000 0.0000000000 0.0000000000 -80.8948093666 0.0923389336 -0.3617864375
0.1541852491 0.1343738523 0.0000000000 0.0000000000 0.0000000000 -63.6502851611 0.0923389336 -0.3617864375
0.1336286062 0.1365058090 0.0000000000 0.0000000000 0.0000000000 -45.8241145106 0.0923389336 -0.3617864375
0.1130014206 0.1377864417 0.0000000000 0.0000000000 0.0000000000 -27.4061776748 0.0923389336 -0.3617864375
0.0923389335 0.1382135625 0.0000000000 0.0000000000 0.0000000000 -8.3878466970 0.0923389336 -0.3617864375
0.0716764463 0.1377864417 0.0000000000 0.0000000000 0.0000000000 11.2385194162 0.0923389336 -0.3617864375
0.0510492607 0.1365058090 0.0000000000 0.0000000000 0.0000000000 31.4793757858 0.0923389336 -0.3617864375
0.0304926178 0.1343738523 0.0000000000 0.0000000000 0.0000000000 52.3401656016 0.0923389336 -0.3617864375
0.0100416383 0.1313942141 0.0000000000 0.0000000000 0.0000000000 73.8252314592 0.0923389336 -0.3617864375
-0.0102687377 0.1275719851 0.0000000000 0.0000000000 0.0000000000 95.9378182845 0.0923389336 -0.3617864375
-0.0304038101 0.1229136954 0.0000000000 0.0000000000 0.0000000000 118.6799596474 0.0923389336 -0.3617864375
-0.0503291787 0.1174273037 0.0000000000 0.0000000000 0.0000000000 142.0523592218 0.0923389336 -0.3617864375
-0.0700108012 0.1111221833 0.0000000000 0.0000000000 0.0000000000 166.0542105869 0.0923389336 -0.3617864375
-0.0894150518 0.1040091064 0.0000000000 0.0000000000 0.0000000000 190.6829953517 0.0923389336 -0.3617864375
-0.1085087789 0.0961002257 0.0000000000 0.0000000000 0.0000000000 215.9342424877 0.0923389336 -0.3617864375
-0.1272593610 0.0874090534 0.0000000000 0.0000000000 0.0000000000 241.8012668191 0.0923389336 -0.3617864375
-0.1456347631 0.0779504380 0.0000000000 0.0000000000 0.0000000000 268.2748802752 0.0923389336 -0.3617864375
-0.1636035911 0.0677405396 0.0000000000 0.0000000000 0.0000000000 295.3430683398 0.0923389336 -0.3617864375
-0.1811351456 0.0567968015 0.0000000000 0.0000000000 0.0000000000 322.9906186071 0.0923389336 -0.3617864375
-0.1981994743 0.0451379210 0.0000000000 0.0000000000 0.0000000000 351.1986970265 0.0923389336 -0.3617864375
-0.2147674229 0.0327838171 0.0000000000 0.0000000000 0.0000000000 379.9444153992 0.0923389336 -0.3617864375
-0.2308106855 0.0197555965 0.0000000000 0.0000000000 0.0000000000 409.2005088184 0.0923389336 -0.3617864375
-0.2463018524 0.0060755177 0.0000000000 0.0000000000 0.0000000000 438.9353043591 0.0923389336 -0.3617864375
-0.2755230219 -0.0231456518 0.0000000000 0.0000000000 0.0000000000 499.6965072206 0.0923389336 -0.3617864375
-0.2892031006 -0.0386368187 0.0000000000 0.0000000000 0.0000000000 530.6470411509 0.0923389336 -0.3617864375
-0.3022313212 -0.0546800813 0.0000000000 0.0000000000 0.0000000000 561.9299275261 0.0923389336 -0.3617864375
-0.3145854252 -0.0712480300 0.0000000000 0.0000000000 0.0000000000 593.5155257704 0.0923389336 -0.3617864375
-0.3262443057 -0.0883123586 0.0000000000 0.0000000000 0.0000000000 625.3790603550 0.0923389336 -0.3617864375
-0.3371880437 -0.1058439131 0.0000000000 0.0000000000 0.0000000000 657.4975182611 0.0923389336 -0.3617864375
-0.3473979421 -0.1238127412 0.0000000000 0.0000000000 0.0000000000 689.8498123120 0.0923389336 -0.3617864375
-0.3568565575 -0.1421881433 0.0000000000 0.0000000000 0.0000000000 722.4216873788 0.0923389336 -0.3617864375
-0.3655477298 -0.1609387254 0.0000000000 0.0000000000 0.0000000000 755.1993494976 0.0923389336 -0.3617864375
-0.3734566105 -0.1800324524 0.0000000000 0.0000000000 0.0000000000 788.1504246470 0.0923389336 -0.3617864375
-0.3805696874 -0.1994367031 0.0000000000 0.0000000000 0.0000000000 821.2000091371 0.0923389336 -0.3617864375
-0.3868748077 -0.2191183256 0.0000000000 0.0000000000 0.0000000000 854.2154201878 0.0923389336 -0.3617864375
-0.3923611995 -0.2390436941 0.0000000000 0.0000000000 0.0000000000 886.9873122618 0.0923389336 -0.3617864375
-0.3970194891 -0.2591787666 0.0000000000 0.0000000000 0.0000000000 919.2319387005 0.0923389336 -0.3617864375
-0.4008417182 -0.2794891426 0.0000000000 0.0000000000 0.0000000000 950.5718920574 0.0923389336 -0.3617864375
-0.4038213563 -0.2999401221 0.0000000000 0.0000000000 0.0000000000 980.5742271642 0.0923389336 -0.3617864375
-0.4059533130 -0.3204967650 0.0000000000 0.0000000000 0.0000000000 1008.7056610905 0.0923389336 -0.3617864375
-0.4072339456 -0.3411239506 0.0000000000 0.0000000000 0.0000000000 1034.4485686181 0.0923389336 -0.3617864375
-0.4076610664 -0.3617864377 0.0000000000 0.0000000000 0.0000000000 1057.1470558847 0.0923389336 -0.3617864375
-0.4072339456 -0.3824489249 0.0000000000 0.0000000000 0.0000000000 1076.3247227972 0.0923389336 -0.3617864375
-0.4059533129 -0.4030761105 0.0000000000 0.0000000000 0.0000000000 1091.1897430171 0.0923389336 -0.3617864375
-0.4038213563 -0.4236327534 0.0000000000 0.0000000000 0.0000000000 1101.5302796599 0.0923389336 -0.3617864375
-0.4008417181 -0.4440837329 0.0000000000 0.0000000000 0.0000000000 1106.2254732187 0.0923389336 -0.3617864375
-0.3970194891 -0.4643941088 0.0000000000 0.0000000000 0.0000000000 1105.8231323555 0.0923389336 -0.3617864375
-0.3923611994 -0.4845291813 0.0000000000 0.0000000000 0.0000000000 1098.1661641979 0.0923389336 -0.3617864375
-0.3868748076 -0.5044545499 0.0000000000 0.0000000000 0.0000000000 1085.9027917940 0.0923389336 -0.3617864375
-0.3805696872 -0.5241361723 0.0000000000 0.0000000000 0.0000000000 1063.5927497156 0.0923389336 -0.3617864375
-0.3734566104 -0.5435404230 0.0000000000 0.0000000000 0.0000000000 1040.1186089183 0.0923389336 -0.3617864375
-0.3655477297 -0.5626341501 0.0000000000 0.0000000000 0.0000000000 999.1118156958 0.0923389336 -0.3617864375
-0.3568565573 -0.5813847322 0.0000000000 0.0000000000 0.0000000000 971.3252003138 0.0923389336 -0.3617864375
-0.3473979419 -0.5997601343 0.0000000000 0.0000000000 0.0000000000 895.0744391218 0.0923389336 -0.3617864375
-0.3371880435 -0.6177289623 0.0000000000 0.0000000000 0.0000000000 910.9819154518 0.0923389336 -0.3617864375
-0.3262443054 -0.6352605168 0.0000000000 0.0000000000 0.0000000000 690.5601116304 0.0923389336 -0.3617864375
-0.3145854249 -0.6523248454 0.0000000000 0.0000000000 0.0000000000 925.3307694636 0.0923389336 -0.3617864375
-0.3022313210 -0.6688927941 0.0000000000 0.0000000000 0.0000000000 148.5634563275 0.0923389336 -0.3617864375
-0.2892031004 -0.6849360567 0.0000000000 0.0000000000 0.0000000000 1177.0800422331 0.0923389336 -0.3617864375
-0.2755230216 -0.7004272235 0.0000000000 0.0000000000 0.0000000000 -238.6313340363 0.0923389336 -0.3617864375
-0.2463018521 -0.7296483930 0.0000000000 0.0000000000 0.0000000000 1014.2909242318 0.0923389336 -0.3617864375
-0.2308106852 -0.7433284718 0.0000000000 0.0000000000 0.0000000000 -849.7252255584 0.0923389336 -0.3617864375
-0.2147674226 -0.7563566924 0.0000000000 0.0000000000 0.0000000000 524.3519922293 0.0923389336 -0.3617864375
-0.1981994739 -0.7687107963 0.0000000000 0.0000000000 0.0000000000 -302.4621306324 0.0923389336 -0.3617864375
-0.1811351453 -0.7803696768 0.0000000000 0.0000000000 0.0000000000 -7.5804052558 0.0923389336 -0.3617864375
-0.1636035908 -0.7913134149 0.0000000000 0.0000000000 0.0000000000 -362.0790683498 0.0923389336 -0.3617864375
-0.1456347627 -0.8015233133 0.0000000000 0.0000000000 0.0000000000 -339.1857920454 0.0923389336 -0.3617864375
-0.1272593606 -0.8109819286 0.0000000000 0.0000000000 0.0000000000 -541.4110709956 0.0923389336 -0.3617864375
-0.1085087785 -0.8196731010 0.0000000000 0.0000000000 0.0000000000 -604.4862879970 0.0923389336 -0.3617864375
-0.0894150515 -0.8275819817 0.0000000000 0.0000000000 0.0000000000 -753.1620847010 0.0923389336 -0.3617864375
-0.0700108008 -0.8346950585 0.0000000000 0.0000000000 0.0000000000 -845.3485488912 0.0923389336 -0.3617864375
-0.0503291783 -0.8410001788 0.0000000000 0.0000000000 0.0000000000 -969.6462939264 0.0923389336 -0.3617864375
-0.0304038097 -0.8464865706 0.0000000000 0.0000000000 0.0000000000 -1068.6756136146 0.0923389336 -0.3617864375
-0.0102687373 -0.8511448603 0.0000000000 0.0000000000 0.0000000000 -1177.7873323771 0.0923389336 -0.3617864375
0.0100416387 -0.8549670893 0.0000000000 0.0000000000 0.0000000000 -1273.3818783562 0.0923389336 -0.3617864375
0.0304926182 -0.8579467274 0.0000000000 0.0000000000 0.0000000000 -1369.4328539203 0.0923389336 -0.3617864375
0.0510492611 -0.8600786841 0.0000000000 0.0000000000 0.0000000000 -1456.0681284998 0.0923389336 -0.3617864375
0.0716764467 -0.8613593167 0.0000000000 0.0000000000 0.0000000000 -1538.6385897013 0.0923389336 -0.3617864375
0.0923389339 -0.8617864375 0.0000000000 0.0000000000 0.0000000000 -1612.9189145363 0.0923389336 -0.3617864375
0.1130014210 -0.8613593167 0.0000000000 0.0000000000 0.0000000000 -1680.8265243946 0.0923389336 -0.3617864375
0.1336286066 -0.8600786840 0.0000000000 0.0000000000 0.0000000000 -1740.5012911637 0.0923389336 -0.3617864375
0.1541852495 -0.8579467274 0.0000000000 0.0000000000 0.0000000000 -1792.5540562262 0.0923389336 -0.3617864375
0.1746362290 -0.8549670892 0.0000000000 0.0000000000 0.0000000000 -1836.1596485957 0.0923389336 -0.3617864375
0.1949466050 -0.8511448601 0.0000000000 0.0000000000 0.0000000000 -1871.4964613943 0.0923389336 -0.3617864375
0.2150816774 -0.8464865704 0.0000000000 0.0000000000 0.0000000000 -1898.2410894165 0.0923389336 -0.3617864375
0.2350070460 -0.8410001787 0.0000000000 0.0000000000 0.0000000000 -1916.4994321484 0.0923389336 -0.3617864375
0.2546886685 -0.8346950583 0.0000000000 0.0000000000 0.0000000000 -1926.2352616103 0.0923389336 -0.3617864375
0.2740929191 -0.8275819814 0.0000000000 0.0000000000 0.0000000000 -1927.6387047126 0.0923389336 -0.3617864375
0.2931866462 -0.8196731007 0.0000000000 0.0000000000 0.0000000000 -1920.8476390697 0.0923389336 -0.3617864375
0.3119372283 -0.8109819283 0.0000000000 0.0000000000 0.0000000000 -1906.2527200409 0.0923389336 -0.3617864375
0.3303126304 -0.8015233130 0.0000000000 0.0000000000 0.0000000000 -1884.0024651372 0.0923389336 -0.3617864375
0.3482814584 -0.7913134145 0.0000000000 0.0000000000 0.0000000000 -1854.8868401098 0.0923389336 -0.3617864375
0.3658130129 -0.7803696765 0.0000000000 0.0000000000 0.0000000000 -1818.8728666338 0.0923389336 -0.3617864375
0.3828773415 -0.7687107960 0.0000000000 0.0000000000 0.0000000000 -1776.7679998915 0.0923389336 -0.3617864375
0.3994452902 -0.7563566920 0.0000000000 0.0000000000 0.0000000000 -1730.8351777752 0.0923389336 -0.3617864375
0.4154885528 -0.7433284714 0.0000000000 0.0000000000 0.0000000000 -1673.2026275822 0.0923389336 -0.3617864375
0.4309797196 -0.7296483926 0.0000000000 0.0000000000 0.0000000000 -1628.5969968671 0.0923389336 -0.3617864375
0.6415071871 -0.8833903286 0.0000000000 0.8490800585 0.2185614792 -749.8802540746 0.0917182829 -0.3732607757
0.6601177378 -0.8626473428 0.0000000000 0.8145416100 0.2082989188 -731.6218582725 0.0916389451 -0.3734317847
0.6779663601 -0.8413200018 0.0000000000 0.7802766505 0.1960279039 -712.8473279320 0.0915927480 -0.3737026508
0.6950007819 -0.8193607388 0.0000000000 0.7462058349 0.1821759240 -693.8557712600 0.0915524468 -0.3739956000
0.7111872786 -0.7967708498 0.0000000000 0.7122597291 0.1671656546 -674.9095687780 0.0915081976 -0.3742808066
0.7264976415 -0.7735690693 0.0000000000 0.6783609605 0.1514227818 -656.2268431882 0.0914544918 -0.3745450124
0.7409073142 -0.7497820711 0.0000000000 0.6444310867 0.1353623823 -637.9932401248 0.0913882611 -0.3747820715
0.7543949067 -0.7254407066 0.0000000000 0.6104008363 0.1193672367 -620.3577543462 0.0913083613 -0.3749892358
0.7669417926 -0.7005782207 0.0000000000 0.5762219291 0.1037686294 -603.4317238403 0.0912151415 -0.3751654168
0.7785316999 -0.6752293124 0.0000000000 0.5418775731 0.0888318833 -587.2889781922 0.0911100078 -0.3753102946
0.7891503580 -0.6494296128 0.0000000000 0.5073902145 0.0747482179 -571.9679989773 0.0909950464 -0.3754238449
0.7987852378 -0.6232153792 0.0000000000 0.4728255783 0.0616332735 -557.4757326683 0.0908727400 -0.3755060831
0.8074253775 -0.5966233019 0.0000000000 0.4382926252 0.0495318592 -543.7926790499 0.0907457730 -0.3755569214
0.8150612672 -0.5696903675 0.0000000000 0.4039395868 0.0384278080 -530.8787343121 0.0906168974 -0.3755760840
0.8216847673 -0.5424537569 0.0000000000 0.3699467267 0.0282573818 -518.6792454694 0.0904888331 -0.3755630567
0.8272890428 -0.5149507654 0.0000000000 0.3365168352 0.0189244825 -507.1307719933 0.0903641879 -0.3755170604
0.8318685061 -0.4872187437 0.0000000000 0.3038646704 0.0103159757 -496.1661473483 0.0902453864 -0.3754370444
0.8354187666 -0.4592950574 0.0000000000 0.2722065835 0.0023156738 -485.7185640600 0.0901346091 -0.3753217007
0.8379365890 -0.4312170680 0.0000000000 0.2417514200 -0.0051841272 -475.7245504406 0.0900337411 -0.3751694981
0.8394198610 -0.4030221325 0.0000000000 0.2126934824 -0.0122742657 -466.1258461128 0.0899443324 -0.3749787371
0.8398675710 -0.3747476234 0.0000000000 0.1852079083 -0.0190237986 -456.8702998435 0.0898675710 -0.3747476237
0.8392797981 -0.3464309667 0.0000000000 0.1594483263 -0.0254785096 -447.9119921311 0.0898042695 -0.3744743627
0.8376577101 -0.3181096931 0.0000000000 0.1355461951 -0.0316624943 -439.2108165636 0.0897548623 -0.3741572635
0.8350035710 -0.2898215010 0.0000000000 0.1136109439 -0.0375822336 -430.7317379689 0.0897194136 -0.3737948583
0.8313207552 -0.2616043222 0.0000000000 0.0937300291 -0.0432323839 -422.4438943459 0.0896976355 -0.3733860221
0.8266137700 -0.2334963854 0.0000000000 0.0759683590 -0.0486023748 -414.3196475543 0.0896889151 -0.3729300910
0.8208882875 -0.2055362692 0.0000000000 0.0603671178 -0.0536827839 -406.3336434772 0.0896923534 -0.3724269699
0.8141511871 -0.1777629366 0.0000000000 0.0469426541 -0.0584703304 -398.4619369948 0.0897068175 -0.3718772207
0.8064106143 -0.1502157447 0.0000000000 0.0356864759 -0.0629701788 -390.6812726408 0.0897310100 -0.3712821258
0.7976760550 -0.1229344201 0.0000000000 0.0265673073 -0.0671941622 -382.9686647613 0.0897635573 -0.3706437167
0.7879584297 -0.0959589946 0.0000000000 0.0195354967 -0.0711537133 -375.3014454271 0.0898031183 -0.3699647630
0.7772702030 -0.0693296940 0.0000000000 0.0145289715 -0.0748471040 -367.6578924645 0.0898485112 -0.3692487124
0.7656255004 -0.0430867717 0.0000000000 0.0114787453 -0.0782423514 -360.0183827587 0.0898988496 -0.3684995762
0.7530402108 -0.0172702834 0.0000000000 0.0103112265 -0.0812598828 -352.3667554265 0.0899536657 -0.3677217548
0.7395320299 0.0080801947 0.0000000000 0.0109448078 -0.0837620348 -344.6913024022 0.0900129771 -0.3669198055
0.7251203756 0.0329258770 0.0000000000 0.0132798186 -0.0855580924 -336.9846712404 0.0900772262 -0.3660981805
0.7098260981 0.0572290354 0.0000000000 0.0171837495 -0.0864317418 -329.2421231674 0.0901470174 -0.3652610082
0.6936709500 0.0809530708 0.0000000000 0.0224767121 -0.0861911536 -321.4580827574 0.0902226152 -0.3644120685
0.6766768679 0.1040621163 0.0000000000 0.0289242495 -0.0847311813 -313.6217154025 0.0903032561 -0.3635552352
0.6588649923 0.1265194731 0.0000000000 0.0362421722 -0.0820875790 -305.7125139250 0.0903862000 -0.3626960854
0.6402542031 0.1482831566 0.0000000000 0.0441189221 -0.0784577065 -297.6964121832 0.0904652993 -0.3618463968
0.5984075722 0.1916596170 0.0000000000 0.0612246857 -0.0691035112 -280.2597151449 0.0904463935 -0.3601333161
0.5750954441 0.2129455448 0.0000000000 0.0698878004 -0.0641528553 -270.6703018654 0.0903710158 -0.3593675064
0.5509681149 0.2331726465 0.0000000000 0.0780792201 -0.0595479452 -260.7230143133 0.0903085805 -0.3586827356
0.5260664723 0.2523223372 0.0000000000 0.0857872510 -0.0553092809 -250.3728411121 0.0902588608 -0.3580642008
0.5004310402 0.2703696001 0.0000000000 0.0930904547 -0.0512953628 -239.5945521507 0.0902199217 -0.3575052587
0.4741021725 0.2872870666 0.0000000000 0.1001178456 -0.0473184452 -228.3731680550 0.0901883857 -0.3570033992
0.4471210378 0.3030464153 0.0000000000 0.1070061706 -0.0432384003 -216.6943180239 0.0901604931 -0.3565588982
0.4195301649 0.3176191633 0.0000000000 0.1138671497 -0.0389870292 -204.5368300195 0.0901327233 -0.3561740732
0.3913736986 0.3309775183 0.0000000000 0.1207692711 -0.0345359386 -191.8711930703 0.0901021302 -0.3558524767
0.3626974091 0.3430951501 0.0000000000 0.1277353866 -0.0298541813 -178.6630776782 0.0900664313 -0.3555981659
0.3335485673 0.3539477740 0.0000000000 0.1347528722 -0.0248902731 -164.8783049007 0.0900239655 -0.3554151574
0.3039757867 0.3635135565 0.0000000000 0.1417896273 -0.0195792272 -150.4862451330 0.0899736187 -0.3553070553
0.2740288864 0.3717734025 0.0000000000 0.1488089831 -0.0138555099 -135.4611497406 0.0899147712 -0.3552767970
0.2437587883 0.3787111624 0.0000000000 0.1557797348 -0.0076584768 -119.7823164486 0.0898472818 -0.3553264716
0.2132174413 0.3843137735 0.0000000000 0.1626812265 -0.0009306952 -103.4336733945 0.0897714987 -0.3554572040
0.1824577522 0.3885713302 0.0000000000 0.1695051952 0.0063853469 -86.4028524269 0.0896882789 -0.3556691046
0.1515335043 0.3914770819 0.0000000000 0.1762558958 0.0143496713 -68.6798641478 0.0895989954 -0.3559612879
0.1204992461 0.3930273717 0.0000000000 0.1829493329 0.0230270513 -50.2556457176 0.0895055156 -0.3563319471
0.0894101438 0.3932215400 0.0000000000 0.1896118979 0.0324900753 -31.1207486016 0.0894101439 -0.3567784600
0.0583217966 0.3920618216 0.0000000000 0.1962779684 0.0428226550 -11.2643907771 0.0893155274 -0.3572974972
0.0272900249 0.3895532632 0.0000000000 0.2029852130 0.0541216551 9.3259340663 0.0892245342 -0.3578851065
-0.0036293581 0.3857036723 0.0000000000 0.2097673932 0.0664944637 30.6642756888 0.0891401155 -0.3585367624
-0.0343807790 0.3805235982 0.0000000000 0.2166495538 0.0800575912 52.7659751953 0.0890651639 -0.3592473793
-0.0649091296 0.3740263345 0.0000000000 0.2236569301 0.0949557294 75.6485774089 0.0890023773 -0.3600112995
-0.0951599819 0.3662279281 0.0000000000 0.2308462303 0.1114254569 99.3352458836 0.0889541337 -0.3608222713
-0.1250797888 0.3571471838 0.0000000000 0.2383465926 0.1298951368 123.8602410512 0.0889223796 -0.3616734280
-0.1546160712 0.3468056560 0.0000000000 0.2463664222 0.1510384050 149.2724657202 0.0889085309 -0.3625572752
-0.1837175905 0.3352276303 0.0000000000 0.2551140503 0.1756374014 175.6305821807 0.0889133876 -0.3634656856
-0.2123345077 0.3224401006 0.0000000000 0.2646249614 0.2041555859 202.9858157298 0.0889370609 -0.3643898943
-0.2404185254 0.3084727571 0.0000000000 0.2745729985 0.2361075852 231.3575414125 0.0889789164 -0.3653204792
-0.2679230139 0.2933580132 0.0000000000 0.2842007882 0.2695452537 260.7159265437 0.0890375311 -0.3662473001
-0.2948031241 0.2771311304 0.0000000000 0.2924670709 0.3010517961 290.9819986673 0.0891106629 -0.3671593353
-0.3210159018 0.2598305775 0.0000000000 0.2983812798 0.3264229939 322.0361550409 0.0891952170 -0.3680442811
-0.3465204430 0.2414989781 0.0000000000 0.3013696895 0.3418252962 353.7155419475 0.0892871688 -0.3688875598
-0.3712782296 0.2221856698 0.0000000000 0.3014898301 0.3449297217 385.7976248344 0.0893813051 -0.3696697121
-0.3952544378 0.2019544807 0.0000000000 0.2993998861 0.3355263170 417.9885586753 0.0894699908 -0.3703585703
-0.4184249657 0.1809111610 0.0000000000 0.2961390922 0.3153959961 449.9317796377 0.0895362132 -0.3708817718
-0.4620521528 0.1355854056 0.0000000000 0.2890339809 0.2547417452 512.3889340529 0.0897407803 -0.3723757730
-0.4824459498 0.1113248660 0.0000000000 0.2864089317 0.2199988057 542.5531255989 0.0898671015 -0.3733995622
-0.5018980381 0.0863875822 0.0000000000 0.2850032596 0.1850247713 571.6161293206 0.0899573441 -0.3742719521
-0.5203604037 0.0607621272 0.0000000000 0.2847732422 0.1505566152 599.5569155768 0.0900261344 -0.3750454841
-0.5377976134 0.0344716393 0.0000000000 0.2856564754 0.1167075595 626.3724434284 0.0900772455 -0.3757394791
-0.5541777619 0.0075507641 0.0000000000 0.2876187372 0.0832888465 652.0560826487 0.0901127041 -0.3763630225
-0.5694708894 -0.0199608496 0.0000000000 0.2906699335 0.0500611847 676.5811049819 0.0901344241 -0.3769213941
-0.5836486821 -0.0480207228 0.0000000000 0.2948551103 0.0168605236 699.8941291719 0.0901445544 -0.3774181642
-0.5966844304 -0.0765843845 0.0000000000 0.3002373926 -0.0163757249 721.9176378623 0.0901455647 -0.3778559528
-0.6085530750 -0.1056057300 0.0000000000 0.3068844325 -0.0496326539 742.5565081516 0.0901402411 -0.3782367076
-0.6192312936 -0.1350371963 0.0000000000 0.3148613045 -0.0828519933 761.7043565972 0.0901316378 -0.3785617980
-0.6286976081 -0.1648298735 0.0000000000 0.3242279765 -0.1159567841 779.2478742002 0.0901230038 -0.3788320414
-0.6369325053 -0.1949336025 0.0000000000 0.3350385811 -0.1488631367 795.0692415601 0.0901176942 -0.3790477176
-0.6439185646 -0.2252970835 0.0000000000 0.3473407501 -0.1814831606 809.0475194372 0.0901190694 -0.3792085898
-0.6496405896 -0.2558680068 0.0000000000 0.3611745236 -0.2137241625 821.0598628776 0.0901303880 -0.3793139492
-0.6540857390 -0.2865932090 0.0000000000 0.3765710497 -0.2454874271 830.9830087530 0.0901546958 -0.3793626821
-0.6572436511 -0.3174188564 0.0000000000 0.3935514470 -0.2766678837 838.6951051427 0.0901947187 -0.3793533652
-0.6591065539 -0.3482906536 0.0000000000 0.4121260760 -0.3071547475 844.0777332552 0.0902527649 -0.3792843839
-0.6596693529 -0.3791540754 0.0000000000 0.4322942765 -0.3368327778 847.0179110378 0.0903306471 -0.3791540751
-0.6589296872 -0.4099546187 0.0000000000 0.4540444937 -0.3655837868 847.4098972105 0.0904296316 -0.3789608877
-0.6568879452 -0.4406380702 0.0000000000 0.4773546492 -0.3932881554 845.1566759144 0.0905504245 -0.3787035608
-0.6535472361 -0.4711507861 0.0000000000 0.5021926182 -0.4198262272 840.1710628720 0.0906931986 -0.3783813123
-0.6489133130 -0.5014399766 0.0000000000 0.5285167097 -0.4450795083 832.3764234779 0.0908576645 -0.3779940336