 TITLE = "Tecplot data"
 VARIABLES = "X", "Y", "Z" "U", "V", "p", "dispX", "dispY"
 ZONE SOLUTIONTIME=72.900000, NODES=26114 , ELEMENTS=25916, DATAPACKING=POINT, ZONETYPE=FEQUADRILATERAL
0.4617007038 -0.3122554142 0.0000000000 0.0000000000 0.0000000000 -187.3569145414 0.1081473133 -0.6658088048
0.4617007041 -1.0193621951 0.0000000000 0.0000000000 0.0000000000 -1686.8855447187 0.1081473133 -0.6658088048
-0.2454060774 -0.3122554143 0.0000000000 0.0000000000 0.0000000000 472.8952559452 0.1081473133 -0.6658088048
-0.2454060771 -1.0193621956 0.0000000000 0.0000000000 0.0000000000 57.0300034484 0.1081473133 -0.6658088048
0.6360840380 -0.1328904839 0.0000000000 0.0941645696 -0.1756347510 -193.9604975214 0.1057539522 -0.6632205698
0.6409628446 -1.1928448531 0.0000000000 0.9879513405 0.3868890196 -807.4135459284 0.1106327583 -0.6625147676
-0.4233535876 -0.1354880133 0.0000000000 0.2692209100 0.2167291993 476.5795193447 0.1069764985 -0.6658180991
-0.4215836344 -1.1963724014 0.0000000000 1.1203390830 -0.6637465408 216.6377503891 0.1087464512 -0.6660423153
1.1532054295 0.4144047477 0.0000000000 -0.1400860507 -0.0620294499 -350.5555258338 0.0925452578 -0.6462554242
1.1832918035 -1.7045018983 0.0000000000 1.0530486956 -0.0423846650 -347.9733383120 0.1226316310 -0.6438417272
-0.9593677414 0.3959692340 0.0000000000 0.6861042643 0.1809861930 361.9070986741 0.1012924307 -0.6646909375
-0.9476596221 -1.7267387630 0.0000000000 1.0198954109 -0.2472246002 176.8777451087 0.1130005492 -0.6660785906
4.2286924515 2.7554189579 0.0000000000 1.0826599518 -0.0642932041 -0.5923792770 0.0286924515 -0.5445810421
4.3796560343 -3.8374448309 0.0000000000 1.0687776174 0.0193179729 -39.3241517828 0.1796560343 -0.5374448309
20.0000000000 4.7000000000 0.0000000000 1.0620994641 0.0325979175 0.1810202214 0.0000000000 0.0000000000
20.0000000000 -4.7000000000 0.0000000000 1.0431642268 -0.0451173526 0.4078166019 0.0000000000 0.0000000000
-10.0000000000 15.0000000000 0.0000000000 1.0000000000 0.0000000000 107.3054778235 0.0000000000 0.0000000000
20.0000000000 15.0000000000 0.0000000000 1.0410072486 0.0000000000 0.0237642281 0.0000000000 0.0000000000
20.0000000000 -15.0000000000 0.0000000000 1.0424091323 0.0000000000 0.0055714224 0.0000000000 0.0000000000
-10.0000000000 -15.0000000000 0.0000000000 1.0000000000 0.0000000000 58.8604860849 0.0000000000 0.0000000000
0.4746732494 -1.0058951734 0.0000000000 0.0000000000 0.0000000000 -1634.2309590619 0.1081473133 -0.6658088048
0.4871331751 -0.9919525102 0.0000000000 0.0000000000 0.0000000000 -1562.1077720064 0.1081473133 -0.6658088048
0.4990630547 -0.9775537054 0.0000000000 0.0000000000 0.0000000000 -1497.8158863691 0.1081473133 -0.6658088048
0.5104462033 -0.9627188973 0.0000000000 0.0000000000 0.0000000000 -1427.6640966679 0.1081473133 -0.6658088048
0.5212667006 -0.9474688335 0.0000000000 0.0000000000 0.0000000000 -1359.0451224123 0.1081473133 -0.6658088048
0.5315094131 -0.9318248428 0.0000000000 0.0000000000 0.0000000000 -1288.8963959870 0.1081473133 -0.6658088048
0.5411600153 -0.9158088045 0.0000000000 0.0000000000 0.0000000000 -1219.4937321623 0.1081473133 -0.6658088048
0.5502050102 -0.8994431187 0.0000000000 0.0000000000 0.0000000000 -1150.3596407166 0.1081473133 -0.6658088048
0.5586317473 -0.8827506741 0.0000000000 0.0000000000 0.0000000000 -1082.4134126067 0.1081473133 -0.6658088048
0.5664284413 -0.8657548167 0.0000000000 0.0000000000 0.0000000000 -1015.8152981908 0.1081473133 -0.6658088048
0.5735841877 -0.8484793167 0.0000000000 0.0000000000 0.0000000000 -951.0799927202 0.1081473133 -0.6658088048
0.5800889785 -0.8309483355 0.0000000000 0.0000000000 0.0000000000 -888.4897417837 0.1081473133 -0.6658088048
0.5859337162 -0.8131863917 0.0000000000 0.0000000000 0.0000000000 -828.3970617573 0.1081473133 -0.6658088048
0.5911102265 -0.7952183271 0.0000000000 0.0000000000 0.0000000000 -771.0610589584 0.1081473133 -0.6658088048
0.5956112694 -0.7770692715 0.0000000000 0.0000000000 0.0000000000 -716.7302748376 0.1081473133 -0.6658088048
0.5994305499 -0.7587646081 0.0000000000 0.0000000000 0.0000000000 -665.5952418805 0.1081473133 -0.6658088048
0.6025627264 -0.7403299376 0.0000000000 0.0000000000 0.0000000000 -617.8106961933 0.1081473133 -0.6658088048
0.6050034182 -0.7217910426 0.0000000000 0.0000000000 0.0000000000 -573.4806633872 0.1081473133 -0.6658088048
0.6067492119 -0.7031738514 0.0000000000 0.0000000000 0.0000000000 -532.6637460720 0.1081473133 -0.6658088048
0.6077976657 -0.6845044017 0.0000000000 0.0000000000 0.0000000000 -495.3679257858 0.1081473133 -0.6658088048
0.6081473133 -0.6658088046 0.0000000000 0.0000000000 0.0000000000 -461.5519612865 0.1081473133 -0.6658088048
0.6077976657 -0.6471132074 0.0000000000 0.0000000000 0.0000000000 -431.1246838578 0.1081473133 -0.6658088048
0.6067492118 -0.6284437578 0.0000000000 0.0000000000 0.0000000000 -403.9476061734 0.1081473133 -0.6658088048
0.6050034182 -0.6098265665 0.0000000000 0.0000000000 0.0000000000 -379.8383356584 0.1081473133 -0.6658088048
0.6025627264 -0.5912876715 0.0000000000 0.0000000000 0.0000000000 -358.5763643059 0.1081473133 -0.6658088048
0.5994305499 -0.5728530010 0.0000000000 0.0000000000 0.0000000000 -339.9100383647 0.1081473133 -0.6658088048
0.5956112693 -0.5545483376 0.0000000000 0.0000000000 0.0000000000 -323.5648694787 0.1081473133 -0.6658088048
0.5911102264 -0.5363992821 0.0000000000 0.0000000000 0.0000000000 -309.2520328117 0.1081473133 -0.6658088048
0.5859337161 -0.5184312174 0.0000000000 0.0000000000 0.0000000000 -296.6773571766 0.1081473133 -0.6658088048
0.5800889784 -0.5006692737 0.0000000000 0.0000000000 0.0000000000 -285.5490818698 0.1081473133 -0.6658088048
0.5735841875 -0.4831382925 0.0000000000 0.0000000000 0.0000000000 -275.5866900114 0.1081473133 -0.6658088048
0.5664284412 -0.4658627925 0.0000000000 0.0000000000 0.0000000000 -266.5258113370 0.1081473133 -0.6658088048
0.5586317472 -0.4488669351 0.0000000000 0.0000000000 0.0000000000 -258.1282453896 0.1081473133 -0.6658088048
0.5502050100 -0.4321744905 0.0000000000 0.0000000000 0.0000000000 -250.1790771537 0.1081473133 -0.6658088048
0.5411600151 -0.4158088047 0.0000000000 0.0000000000 0.0000000000 -242.5043118336 0.1081473133 -0.6658088048
0.5315094128 -0.3997927664 0.0000000000 0.0000000000 0.0000000000 -234.9445086188 0.1081473133 -0.6658088048
0.5212667004 -0.3841487757 0.0000000000 0.0000000000 0.0000000000 -227.4058341136 0.1081473133 -0.6658088048
0.5104462031 -0.3688987119 0.0000000000 0.0000000000 0.0000000000 -219.7596941506 0.1081473133 -0.6658088048
0.4990630545 -0.3540639038 0.0000000000 0.0000000000 0.0000000000 -212.0204684669 0.1081473133 -0.6658088048
0.4871331748 -0.3396650991 0.0000000000 0.0000000000 0.0000000000 -204.0048228426 0.1081473133 -0.6658088048
0.4746732491 -0.3257224359 0.0000000000 0.0000000000 0.0000000000 -195.9351043919 0.1081473133 -0.6658088048
0.4467880990 -0.2979468494 0.0000000000 0.0000000000 0.0000000000 -177.9828134444 0.1081473133 -0.6658088048
0.4312969322 -0.2842667706 0.0000000000 0.0000000000 0.0000000000 -167.9968955997 0.1081473133 -0.6658088048
0.4152536696 -0.2712385500 0.0000000000 0.0000000000 0.0000000000 -157.8783391594 0.1081473133 -0.6658088048
0.3986857209 -0.2588844461 0.0000000000 0.0000000000 0.0000000000 -147.3242702962 0.1081473133 -0.6658088048
0.3816213923 -0.2472255656 0.0000000000 0.0000000000 0.0000000000 -136.5046511684 0.1081473133 -0.6658088048
0.3640898378 -0.2362818276 0.0000000000 0.0000000000 0.0000000000 -125.3034687935 0.1081473133 -0.6658088048
0.3461210097 -0.2260719291 0.0000000000 0.0000000000 0.0000000000 -113.7735313616 0.1081473133 -0.6658088048
0.3277456076 -0.2166133138 0.0000000000 0.0000000000 0.0000000000 -101.8663950045 0.1081473133 -0.6658088048
0.3089950255 -0.2079221414 0.0000000000 0.0000000000 0.0000000000 -89.5919203416 0.1081473133 -0.6658088048
0.2899012985 -0.2000132607 0.0000000000 0.0000000000 0.0000000000 -76.9250331779 0.1081473133 -0.6658088048
0.2704970478 -0.1929001839 0.0000000000 0.0000000000 0.0000000000 -63.8603340451 0.1081473133 -0.6658088048
0.2508154253 -0.1865950635 0.0000000000 0.0000000000 0.0000000000 -50.3806985645 0.1081473133 -0.6658088048
0.2308900568 -0.1811086718 0.0000000000 0.0000000000 0.0000000000 -36.4756196244 0.1081473133 -0.6658088048
0.2107549843 -0.1764503821 0.0000000000 0.0000000000 0.0000000000 -22.1309070531 0.1081473133 -0.6658088048
0.1904446083 -0.1726281531 0.0000000000 0.0000000000 0.0000000000 -7.3347639022 0.1081473133 -0.6658088048
0.1699936288 -0.1696485149 0.0000000000 0.0000000000 0.0000000000 7.9254713492 0.1081473133 -0.6658088048
0.1494369859 -0.1675165583 0.0000000000 0.0000000000 0.0000000000 23.6613154363 0.1081473133 -0.6658088048
0.1288098003 -0.1662359256 0.0000000000 0.0000000000 0.0000000000 39.8840995883 0.1081473133 -0.6658088048
0.1081473132 -0.1658088048 0.0000000000 0.0000000000 0.0000000000 56.6042770155 0.1081473133 -0.6658088048
0.0874848260 -0.1662359256 0.0000000000 0.0000000000 0.0000000000 73.8316449558 0.1081473133 -0.6658088048
0.0668576404 -0.1675165583 0.0000000000 0.0000000000 0.0000000000 91.5750581806 0.1081473133 -0.6658088048
0.0463009975 -0.1696485149 0.0000000000 0.0000000000 0.0000000000 109.8424067753 0.1081473133 -0.6658088048
0.0258500180 -0.1726281531 0.0000000000 0.0000000000 0.0000000000 128.6404314429 0.1081473133 -0.6658088048
0.0055396421 -0.1764503821 0.0000000000 0.0000000000 0.0000000000 147.9745984999 0.1081473133 -0.6658088048
-0.0145954304 -0.1811086718 0.0000000000 0.0000000000 0.0000000000 167.8489094541 0.1081473133 -0.6658088048
-0.0345207990 -0.1865950636 0.0000000000 0.0000000000 0.0000000000 188.2657055532 0.1081473133 -0.6658088048
-0.0542024214 -0.1929001840 0.0000000000 0.0000000000 0.0000000000 209.2254323516 0.1081473133 -0.6658088048
-0.0736066721 -0.2000132608 0.0000000000 0.0000000000 0.0000000000 230.7263808756 0.1081473133 -0.6658088048
-0.0927003992 -0.2079221415 0.0000000000 0.0000000000 0.0000000000 252.7643964816 0.1081473133 -0.6658088048
-0.1114509813 -0.2166133139 0.0000000000 0.0000000000 0.0000000000 275.3325576178 0.1081473133 -0.6658088048
-0.1298263834 -0.2260719292 0.0000000000 0.0000000000 0.0000000000 298.4208160660 0.1081473133 -0.6658088048
-0.1477952114 -0.2362818277 0.0000000000 0.0000000000 0.0000000000 322.0155894128 0.1081473133 -0.6658088048
-0.1653267659 -0.2472255657 0.0000000000 0.0000000000 0.0000000000 346.0992968704 0.1081473133 -0.6658088048
-0.1823910945 -0.2588844462 0.0000000000 0.0000000000 0.0000000000 370.6498460630 0.1081473133 -0.6658088048
-0.1989590432 -0.2712385502 0.0000000000 0.0000000000 0.0000000000 395.6401132605 0.1081473133 -0.6658088048
-0.2150023058 -0.2842667708 0.0000000000 0.0000000000 0.0000000000 421.0375115734 0.1081473133 -0.6658088048
-0.2304934727 -0.2979468495 0.0000000000 0.0000000000 0.0000000000 446.8037934950 0.1081473133 -0.6658088048
-0.2597146422 -0.3271680191 0.0000000000 0.0000000000 0.0000000000 499.2634739357 0.1081473133 -0.6658088048
-0.2733947209 -0.3426591860 0.0000000000 0.0000000000 0.0000000000 525.8565635187 0.1081473133 -0.6658088048
-0.2864229415 -0.3587024486 0.0000000000 0.0000000000 0.0000000000 552.6207738924 0.1081473133 -0.6658088048
-0.2987770455 -0.3752703972 0.0000000000 0.0000000000 0.0000000000 579.5019724205 0.1081473133 -0.6658088048
-0.3104359260 -0.3923347259 0.0000000000 0.0000000000 0.0000000000 606.4463778704 0.1081473133 -0.6658088048
-0.3213796640 -0.4098662804 0.0000000000 0.0000000000 0.0000000000 633.3997867051 0.1081473133 -0.6658088048
-0.3315895624 -0.4278351084 0.0000000000 0.0000000000 0.0000000000 660.3045878612 0.1081473133 -0.6658088048
-0.3410481778 -0.4462105105 0.0000000000 0.0000000000 0.0000000000 687.0941156552 0.1081473133 -0.6658088048
-0.3497393501 -0.4649610926 0.0000000000 0.0000000000 0.0000000000 713.6843524369 0.1081473133 -0.6658088048
-0.3576482308 -0.4840548197 0.0000000000 0.0000000000 0.0000000000 739.9636054272 0.1081473133 -0.6658088048
-0.3647613076 -0.5034590704 0.0000000000 0.0000000000 0.0000000000 765.7814143415 0.1081473133 -0.6658088048
-0.3710664280 -0.5231406928 0.0000000000 0.0000000000 0.0000000000 790.9384105440 0.1081473133 -0.6658088048
-0.3765528197 -0.5430660614 0.0000000000 0.0000000000 0.0000000000 815.1789635208 0.1081473133 -0.6658088048
-0.3812111094 -0.5632011339 0.0000000000 0.0000000000 0.0000000000 838.1881256817 0.1081473133 -0.6658088048
-0.3850333385 -0.5835115098 0.0000000000 0.0000000000 0.0000000000 859.5936803238 0.1081473133 -0.6658088048
-0.3880129766 -0.6039624893 0.0000000000 0.0000000000 0.0000000000 878.9732084275 0.1081473133 -0.6658088048
-0.3901449332 -0.6245191322 0.0000000000 0.0000000000 0.0000000000 895.8652765205 0.1081473133 -0.6658088048
-0.3914255659 -0.6451463179 0.0000000000 0.0000000000 0.0000000000 909.7833218886 0.1081473133 -0.6658088048
-0.3918526867 -0.6658088050 0.0000000000 0.0000000000 0.0000000000 920.2306614910 0.1081473133 -0.6658088048
-0.3914255659 -0.6864712921 0.0000000000 0.0000000000 0.0000000000 926.7152322050 0.1081473133 -0.6658088048
-0.3901449332 -0.7070984777 0.0000000000 0.0000000000 0.0000000000 928.7630517509 0.1081473133 -0.6658088048
-0.3880129766 -0.7276551206 0.0000000000 0.0000000000 0.0000000000 925.9298241276 0.1081473133 -0.6658088048
-0.3850333384 -0.7481061001 0.0000000000 0.0000000000 0.0000000000 917.8104891658 0.1081473133 -0.6658088048
-0.3812111093 -0.7684164761 0.0000000000 0.0000000000 0.0000000000 904.0467785659 0.1081473133 -0.6658088048
-0.3765528196 -0.7885515486 0.0000000000 0.0000000000 0.0000000000 884.3329861493 0.1081473133 -0.6658088048
-0.3710664279 -0.8084769171 0.0000000000 0.0000000000 0.0000000000 858.4202127984 0.1081473133 -0.6658088048
-0.3647613075 -0.8281585396 0.0000000000 0.0000000000 0.0000000000 826.1193408002 0.1081473133 -0.6658088048
-0.3576482307 -0.8475627903 0.0000000000 0.0000000000 0.0000000000 787.3029571882 0.1081473133 -0.6658088048
-0.3497393500 -0.8666565173 0.0000000000 0.0000000000 0.0000000000 741.9064024754 0.1081473133 -0.6658088048
-0.3410481776 -0.8854070994 0.0000000000 0.0000000000 0.0000000000 689.9280790975 0.1081473133 -0.6658088048
-0.3315895622 -0.9037825015 0.0000000000 0.0000000000 0.0000000000 631.4291210067 0.1081473133 -0.6658088048
-0.3213796638 -0.9217513295 0.0000000000 0.0000000000 0.0000000000 566.5324966308 0.1081473133 -0.6658088048
-0.3104359257 -0.9392828840 0.0000000000 0.0000000000 0.0000000000 495.4216031077 0.1081473133 -0.6658088048
-0.2987770452 -0.9563472127 0.0000000000 0.0000000000 0.0000000000 418.3383875268 0.1081473133 -0.6658088048
-0.2864229413 -0.9729151613 0.0000000000 0.0000000000 0.0000000000 335.5810399136 0.1081473133 -0.6658088048
-0.2733947207 -0.9889584239 0.0000000000 0.0000000000 0.0000000000 247.5012675360 0.1081473133 -0.6658088048
-0.2597146419 -1.0044495908 0.0000000000 0.0000000000 0.0000000000 154.5012171642 0.1081473133 -0.6658088048
-0.2304934724 -1.0336707603 0.0000000000 0.0000000000 0.0000000000 -44.4200073974 0.1081473133 -0.6658088048
-0.2150023055 -1.0473508390 0.0000000000 0.0000000000 0.0000000000 -149.3173055872 0.1081473133 -0.6658088048
-0.1989590429 -1.0603790596 0.0000000000 0.0000000000 0.0000000000 -257.0955098782 0.1081473133 -0.6658088048
-0.1823910942 -1.0727331636 0.0000000000 0.0000000000 0.0000000000 -367.1579581502 0.1081473133 -0.6658088048
-0.1653267656 -1.0843920441 0.0000000000 0.0000000000 0.0000000000 -478.8824550019 0.1081473133 -0.6658088048
-0.1477952110 -1.0953357821 0.0000000000 0.0000000000 0.0000000000 -591.6262404209 0.1081473133 -0.6658088048
-0.1298263830 -1.1055456805 0.0000000000 0.0000000000 0.0000000000 -704.7310872415 0.1081473133 -0.6658088048
-0.1114509809 -1.1150042958 0.0000000000 0.0000000000 0.0000000000 -817.5285393897 0.1081473133 -0.6658088048
-0.0927003988 -1.1236954682 0.0000000000 0.0000000000 0.0000000000 -929.3452315956 0.1081473133 -0.6658088048
-0.0736066717 -1.1316043489 0.0000000000 0.0000000000 0.0000000000 -1039.5082759168 0.1081473133 -0.6658088048
-0.0542024211 -1.1387174257 0.0000000000 0.0000000000 0.0000000000 -1147.3506713062 0.1081473133 -0.6658088048
-0.0345207986 -1.1450225461 0.0000000000 0.0000000000 0.0000000000 -1252.2167098042 0.1081473133 -0.6658088048
-0.0145954300 -1.1505089378 0.0000000000 0.0000000000 0.0000000000 -1353.4673409473 0.1081473133 -0.6658088048
0.0055396425 -1.1551672275 0.0000000000 0.0000000000 0.0000000000 -1450.4854621808 0.1081473133 -0.6658088048
0.0258500184 -1.1589894565 0.0000000000 0.0000000000 0.0000000000 -1542.6810972113 0.1081473133 -0.6658088048
0.0463009979 -1.1619690947 0.0000000000 0.0000000000 0.0000000000 -1629.4964265424 0.1081473133 -0.6658088048
0.0668576408 -1.1641010513 0.0000000000 0.0000000000 0.0000000000 -1710.4106304185 0.1081473133 -0.6658088048
0.0874848264 -1.1653816840 0.0000000000 0.0000000000 0.0000000000 -1784.9445056608 0.1081473133 -0.6658088048
0.1081473136 -1.1658088048 0.0000000000 0.0000000000 0.0000000000 -1852.6648160185 0.1081473133 -0.6658088048
0.1288098007 -1.1653816840 0.0000000000 0.0000000000 0.0000000000 -1913.1883270767 0.1081473133 -0.6658088048
0.1494369863 -1.1641010513 0.0000000000 0.0000000000 0.0000000000 -1966.1855054031 0.1081473133 -0.6658088048
0.1699936292 -1.1619690946 0.0000000000 0.0000000000 0.0000000000 -2011.3837605062 0.1081473133 -0.6658088048
0.1904446087 -1.1589894564 0.0000000000 0.0000000000 0.0000000000 -2048.5703703100 0.1081473133 -0.6658088048
0.2107549847 -1.1551672274 0.0000000000 0.0000000000 0.0000000000 -2077.5945757099 0.1081473133 -0.6658088048
0.2308900572 -1.1505089377 0.0000000000 0.0000000000 0.0000000000 -2098.3697756434 0.1081473133 -0.6658088048
0.2508154257 -1.1450225459 0.0000000000 0.0000000000 0.0000000000 -2110.8738290962 0.1081473133 -0.6658088048
0.2704970482 -1.1387174255 0.0000000000 0.0000000000 0.0000000000 -2115.1505955036 0.1081473133 -0.6658088048
0.2899012989 -1.1316043487 0.0000000000 0.0000000000 0.0000000000 -2111.3089158640 0.1081473133 -0.6658088048
0.3089950259 -1.1236954680 0.0000000000 0.0000000000 0.0000000000 -2099.5183143442 0.1081473133 -0.6658088048
0.3277456080 -1.1150042956 0.0000000000 0.0000000000 0.0000000000 -2080.0243947720 0.1081473133 -0.6658088048
0.3461210101 -1.1055456802 0.0000000000 0.0000000000 0.0000000000 -2053.0870671761 0.1081473133 -0.6658088048
0.3640898381 -1.0953357818 0.0000000000 0.0000000000 0.0000000000 -2019.1414258870 0.1081473133 -0.6658088048
0.3816213926 -1.0843920437 0.0000000000 0.0000000000 0.0000000000 -1978.3953841779 0.1081473133 -0.6658088048
0.3986857213 -1.0727331632 0.0000000000 0.0000000000 0.0000000000 -1931.6721539518 0.1081473133 -0.6658088048
0.4152536699 -1.0603790593 0.0000000000 0.0000000000 0.0000000000 -1878.8914183646 0.1081473133 -0.6658088048
0.4312969325 -1.0473508387 0.0000000000 0.0000000000 0.0000000000 -1820.9681501879 0.1081473133 -0.6658088048
0.4467880993 -1.0336707599 0.0000000000 0.0000000000 0.0000000000 -1760.2300407953 0.1081473133 -0.6658088048
0.6602779077 -1.1724071874 0.0000000000 0.9485882569 0.3854758809 -783.3351859483 0.1104890034 -0.6622776345
0.6788215690 -1.1512606745 0.0000000000 0.9092423306 0.3818848604 -758.3258871266 0.1103427763 -0.6620451165
0.6965680982 -1.1294354598 0.0000000000 0.8700562814 0.3761067356 -732.4511802335 0.1101944860 -0.6618181088
0.7134930705 -1.1069630267 0.0000000000 0.8312108816 0.3681710788 -705.9599351388 0.1100447354 -0.6615978879
0.7295732463 -1.0838758912 0.0000000000 0.7928817751 0.3581022705 -679.0697929880 0.1098941653 -0.6613858480
0.7447865384 -1.0602074712 0.0000000000 0.7552434508 0.3459344388 -652.0042141835 0.1097433887 -0.6611834142
0.7591120090 -1.0359919931 0.0000000000 0.7184630772 0.3317183631 -624.9846329435 0.1095929559 -0.6609919935
0.7725298817 -1.0112644132 0.0000000000 0.6826943457 0.3155312533 -598.2296170341 0.1094433364 -0.6608129424
0.7850215654 -0.9860603467 0.0000000000 0.6480701699 0.2974858807 -571.9518350650 0.1092949143 -0.6606475428
0.7965696856 -0.9604160008 0.0000000000 0.6146951741 0.2777379462 -546.3542792992 0.1091479936 -0.6604969830
0.8071581224 -0.9343681101 0.0000000000 0.5826387808 0.2564902190 -521.6256203188 0.1090028108 -0.6603623422
0.8167720488 -0.9079538726 0.0000000000 0.5519298498 0.2339923699 -497.9350555797 0.1088595510 -0.6602445765
0.8253979683 -0.8812108877 0.0000000000 0.5225537827 0.2105359105 -475.4271362357 0.1087183639 -0.6601445072
0.8330237478 -0.8541770931 0.0000000000 0.4944528413 0.1864442762 -454.2171550613 0.1085793779 -0.6600628097
0.8396386455 -0.8268907042 0.0000000000 0.4675301098 0.1620587433 -434.3876694754 0.1084427112 -0.6600000041
0.8452333346 -0.7993901528 0.0000000000 0.4416571075 0.1377214563 -415.9866215085 0.1083084796 -0.6599564477
0.8497999215 -0.7717140282 0.0000000000 0.4166845703 0.1137572607 -399.0273182765 0.1081768018 -0.6599323289
0.8533319595 -0.7439010190 0.0000000000 0.3924554521 0.0904562140 -383.4902891585 0.1080478021 -0.6599276622
0.8558244585 -0.7159898555 0.0000000000 0.3688188348 0.0680585338 -369.3267858355 0.1079216106 -0.6599422857
0.8572738904 -0.6880192550 0.0000000000 0.3456432662 0.0467433523 -356.4634829765 0.1077983618 -0.6599758596
0.8576781906 -0.6600278672 0.0000000000 0.3228281340 0.0266220460 -344.8078034191 0.1076781906 -0.6600278675
0.8570367553 -0.6320542219 0.0000000000 0.3003120594 0.0077362624 -334.2532497696 0.1075612267 -0.6600976179
0.8553504356 -0.6041366787 0.0000000000 0.2780778968 -0.0099397563 -324.6841801350 0.1074475877 -0.6601842492
0.8526215279 -0.5763133787 0.0000000000 0.2561546087 -0.0264931708 -315.9796183605 0.1073373705 -0.6602867360
0.8488537627 -0.5486221988 0.0000000000 0.2346168030 -0.0420633664 -308.0159303226 0.1072306431 -0.6604038986
0.8440522910 -0.5211007092 0.0000000000 0.2135828594 -0.0568297518 -300.6685003480 0.1071274361 -0.6605344148
0.8382236693 -0.4937861351 0.0000000000 0.1932122357 -0.0709963290 -293.8128462458 0.1070277352 -0.6606768358
0.8313758448 -0.4667153225 0.0000000000 0.1737018902 -0.0847726804 -287.3258275771 0.1069314751 -0.6608296066
0.8235181385 -0.4399247094 0.0000000000 0.1552810917 -0.0983511400 -281.0876357021 0.1068385343 -0.6609910904
0.8146612289 -0.4134503024 0.0000000000 0.1382035796 -0.1118802363 -274.9850499166 0.1067487312 -0.6611595991
0.8048171329 -0.3873276593 0.0000000000 0.1227362248 -0.1254349129 -268.9160154174 0.1066618215 -0.6613334278
0.7939991863 -0.3615918759 0.0000000000 0.1091439273 -0.1389846485 -262.7950325841 0.1065774945 -0.6615108943
0.7822220205 -0.3362775776 0.0000000000 0.0976711511 -0.1523617980 -256.5582840847 0.1064953697 -0.6616903820
0.7695015378 -0.3114189137 0.0000000000 0.0885209612 -0.1652347783 -250.1670382124 0.1064149927 -0.6618703850
0.7558548835 -0.2870495531 0.0000000000 0.0818326441 -0.1770942598 -243.6078385762 0.1063358307 -0.6620495532
0.7413004188 -0.2632026801 0.0000000000 0.0776592282 -0.1872644076 -236.8884755103 0.1062572695 -0.6622267376
0.7258576954 -0.2399109904 0.0000000000 0.0759469226 -0.1949530345 -230.0297727594 0.1061786147 -0.6624010340
0.7095474351 -0.2172066869 0.0000000000 0.0765199548 -0.1993507117 -223.0545921694 0.1060991003 -0.6625718262
0.6923915102 -0.1951214785 0.0000000000 0.0790761831 -0.1997763840 -215.9766689952 0.1060178984 -0.6627388300
0.6744129046 -0.1736865873 0.0000000000 0.0831996661 -0.1958464196 -208.7921612224 0.1059341123 -0.6629021458
0.6556355839 -0.1529327653 0.0000000000 0.0883954798 -0.1876205245 -201.4746409145 0.1058466801 -0.6630623187
0.6136547308 -0.1115602848 0.0000000000 0.1006103770 -0.1593804846 -185.4516604560 0.1056935522 -0.6633532178
0.5903531578 -0.0911705252 0.0000000000 0.1067233795 -0.1416080370 -176.5693343810 0.1056287295 -0.6634835764
0.5662205190 -0.0717550662 0.0000000000 0.1122556264 -0.1240340707 -167.2928312027 0.1055609846 -0.6636104483
0.5412990793 -0.0533469220 0.0000000000 0.1171939691 -0.1079468560 -157.5933353804 0.1054914679 -0.6637334600
0.5156323532 -0.0359776491 0.0000000000 0.1216787857 -0.0939828641 -147.4662121893 0.1054212347 -0.6638525078
0.4892651065 -0.0196771428 0.0000000000 0.1259093223 -0.0821609956 -136.9219304584 0.1053513197 -0.6639676086
0.4622433299 -0.0044735446 0.0000000000 0.1300654521 -0.0720978420 -125.9743775542 0.1052827852 -0.6640788580
0.4346141782 0.0096068274 0.0000000000 0.1342699298 -0.0632673002 -114.6316874100 0.1052167366 -0.6641864091
0.4064258860 0.0225395444 0.0000000000 0.1385885398 -0.0551893758 -102.8924458119 0.1051543176 -0.6642904506
0.3777276673 0.0343021316 0.0000000000 0.1430491333 -0.0475085212 -90.7466320093 0.1050966894 -0.6643911844
0.3485696033 0.0448741258 0.0000000000 0.1476609994 -0.0399887114 -78.1787369376 0.1050450015 -0.6644888056
0.3190025272 0.0542371256 0.0000000000 0.1524262552 -0.0324748362 -65.1707331967 0.1050003592 -0.6645834863
0.2890779071 0.0623748345 0.0000000000 0.1573440574 -0.0248558254 -51.7039136053 0.1049637919 -0.6646753650
0.2588477326 0.0692730960 0.0000000000 0.1624115287 -0.0170415631 -37.7597123238 0.1049362260 -0.6647645381
0.2283644060 0.0749199226 0.0000000000 0.1676241300 -0.0089514102 -23.3199749082 0.1049184634 -0.6648510550
0.1976806390 0.0793055194 0.0000000000 0.1729763039 -0.0005088237 -8.3670139798 0.1049111657 -0.6649349155
0.1668493540 0.0824222999 0.0000000000 0.1784622683 0.0083616815 7.1164169442 0.1049148451 -0.6650160699
0.1359235904 0.0842648964 0.0000000000 0.1840767713 0.0177368890 23.1472089270 0.1049298599 -0.6650944224
0.1049564138 0.0848301637 0.0000000000 0.1898158466 0.0276972514 39.7420500300 0.1049564139 -0.6651698363
0.0740008278 0.0841171768 0.0000000000 0.1956776989 0.0383296878 56.9176573271 0.1049945586 -0.6652421420
0.0431096875 0.0821272245 0.0000000000 0.2016635650 0.0497307264 74.6910973952 0.1050441967 -0.6653111453
0.0123356139 0.0788637986 0.0000000000 0.2077781472 0.0620093484 93.0801722708 0.1051050875 -0.6653766361
-0.0182690906 0.0743325809 0.0000000000 0.2140302622 0.0752905978 112.1038178540 0.1051768523 -0.6654383966
-0.0486525261 0.0685414263 0.0000000000 0.2204369595 0.0897269178 131.7825836001 0.1052589807 -0.6654962077
-0.0787632773 0.0615003446 0.0000000000 0.2270345441 0.1055280392 152.1395627539 0.1053508382 -0.6655498548
-0.1085504952 0.0532214783 0.0000000000 0.2338911761 0.1230052425 173.2020738363 0.1054516732 -0.6655991335
-0.1379639761 0.0437190768 0.0000000000 0.2410990795 0.1425823134 195.0031175616 0.1055606260 -0.6656438544
-0.1669542396 0.0330094660 0.0000000000 0.2487170220 0.1646809339 217.5794863022 0.1056767385 -0.6656838500
-0.1954726040 0.0211110137 0.0000000000 0.2566578765 0.1894071180 240.9628622062 0.1057989647 -0.6657189813
-0.2234712591 0.0080440899 0.0000000000 0.2645701688 0.2160904394 265.1640835431 0.1059261827 -0.6657491464
-0.2509033365 -0.0061689764 0.0000000000 0.2718052814 0.2429040253 290.1575793304 0.1060572084 -0.6657742897
-0.2777229761 -0.0215039445 0.0000000000 0.2775412976 0.2668701765 315.8748071079 0.1061908109 -0.6657944102
-0.3038853894 -0.0379347114 0.0000000000 0.2810448256 0.2844144053 342.2066755711 0.1063257293 -0.6658095700
-0.3293469188 -0.0554333624 0.0000000000 0.2819550186 0.2923244599 369.0055289400 0.1064606930 -0.6658199002
-0.3540650923 -0.0739702226 0.0000000000 0.2804460465 0.2887130372 396.0822627176 0.1065944424 -0.6658256046
-0.3779986749 -0.0935139092 0.0000000000 0.2771874120 0.2735577967 423.2070974512 0.1067257536 -0.6658269602
-0.4011077157 -0.1140313843 0.0000000000 0.2731291743 0.2486053520 450.1242489179 0.1068534632 -0.6658243172
-0.4446990132 -0.1578474445 0.0000000000 0.2661868801 0.1810525303 502.3500446648 0.1070939200 -0.6658086231
-0.4651081618 -0.1810721244 0.0000000000 0.2644299103 0.1441888995 527.2660095471 0.1072048895 -0.6657965526
-0.4845466361 -0.2051228667 0.0000000000 0.2640649207 0.1078322591 551.2176979015 0.1073087461 -0.6657824010
-0.5029815262 -0.2299591013 0.0000000000 0.2650275146 0.0727311454 574.1486054930 0.1074050119 -0.6657667126
-0.5203814617 -0.2555389199 0.0000000000 0.2671922550 0.0389275201 596.0374123940 0.1074933971 -0.6657500382
-0.5367166646 -0.2818191317 0.0000000000 0.2704559804 0.0060853207 616.8752522159 0.1075738013 -0.6657329183
-0.5519590069 -0.3087553252 0.0000000000 0.2747739808 -0.0262294367 636.6455058717 0.1076463066 -0.6657158697
-0.5660820743 -0.3363019337 0.0000000000 0.2801601450 -0.0583789084 655.3111806816 0.1077111623 -0.6656993751
-0.5790612337 -0.3644123061 0.0000000000 0.2866698407 -0.0905900407 672.8108925632 0.1077687614 -0.6656838744
-0.5908737028 -0.3930387814 0.0000000000 0.2943805456 -0.1229606238 689.0611250302 0.1078196133 -0.6656697591
-0.6014986182 -0.4221327677 0.0000000000 0.3033776244 -0.1554947932 703.9612963482 0.1078643132 -0.6656573693
-0.6109171006 -0.4516448248 0.0000000000 0.3137464503 -0.1881405209 717.3988944669 0.1079035113 -0.6656469927
-0.6191123140 -0.4815247494 0.0000000000 0.3255690145 -0.2208166579 729.2533616562 0.1079378855 -0.6656388645
-0.6260695164 -0.5117216634 0.0000000000 0.3389226492 -0.2534277356 739.3985946989 0.1079681177 -0.6656331698
-0.6317761029 -0.5421841026 0.0000000000 0.3538791989 -0.2858697359 747.7045339035 0.1079948747 -0.6656300451
-0.6362216389 -0.5728601074 0.0000000000 0.3705038874 -0.3180309808 754.0384267206 0.1080187959 -0.6656295806
-0.6393978846 -0.6036973140 0.0000000000 0.3888537635 -0.3497912988 758.2661964196 0.1080404851 -0.6656318228
-0.6412988122 -0.6346430456 0.0000000000 0.4089758961 -0.3810212280 760.2541220064 0.1080605066 -0.6656367760
-0.6419206154 -0.6656444052 0.0000000000 0.4309055356 -0.4115819328 759.8708543388 0.1080793846 -0.6656444049
-0.6412617139 -0.6966483669 0.0000000000 0.4546644065 -0.4413259012 756.9896896025 0.1080976049 -0.6656546359
-0.6393227518 -0.7276018691 0.0000000000 0.4802592224 -0.4700982444 751.4909842861 0.1081156180 -0.6656673597
-0.6361065924 -0.7584519064 0.0000000000 0.5076804661 -0.4977383864 743.2645995989 0.1081338423 -0.6656824327
-0.6316183087 -0.7891456229 0.0000000000 0.5369014555 -0.5240819720 732.2122839805 0.1081526688 -0.6656996798