 TITLE = "Tecplot data"
 VARIABLES = "X", "Y", "Z" "U", "V", "p", "dispX", "dispY"
 ZONE SOLUTIONTIME=1.400000, NODES=26114 , ELEMENTS=25916, DATAPACKING=POINT, ZONETYPE=FEQUADRILATERAL
0.5039801567 0.3535748524 0.0000000000 0.0000000000 0.0000000000 -525.5191822866 0.1504267662 0.0000214618
0.5039801570 -0.3535319286 0.0000000000 0.0000000000 0.0000000000 -525.3887222733 0.1504267662 0.0000214618
-0.2031266245 0.3535748522 0.0000000000 0.0000000000 0.0000000000 -234.2342209926 0.1504267662 0.0000214618
-0.2031266243 -0.3535319290 0.0000000000 0.0000000000 0.0000000000 -234.2144444852 0.1504267662 0.0000214618
0.6774494047 0.5303667492 0.0000000000 0.8602644915 -0.1370217393 -523.1639163300 0.1471193188 0.0000366633
0.6774670294 -0.5303257325 0.0000000000 0.8606045299 0.1369388202 -523.4219431978 0.1471369431 0.0000043530
-0.3830083459 0.5303612150 0.0000000000 0.9296760895 0.5001084806 11.6182823988 0.1473217401 0.0000311292
-0.3830117084 -0.5303202877 0.0000000000 0.9296423382 -0.5001243523 11.6747452243 0.1473183772 0.0000097985
1.1483913475 1.0608830917 0.0000000000 1.1096123711 -0.2050122119 -125.3958832112 0.0877311759 0.0002229198
1.1478296838 -1.0608667621 0.0000000000 1.1097960343 0.2050369457 -125.5059726138 0.0871695113 -0.0002065911
-0.9726736227 1.0608427002 0.0000000000 0.9760332663 0.1379031449 66.5878632754 0.0879865494 0.0001825287
-0.9732658958 -1.0608249462 0.0000000000 0.9760558735 -0.1377695973 66.5454994544 0.0873942754 -0.0001647738
4.2061149600 3.3002788080 0.0000000000 0.9994014986 -0.0156606540 -5.7128475640 0.0061149600 0.0002788080
4.2060097823 -3.3002728704 0.0000000000 0.9994043692 0.0156606281 -5.7106407366 0.0060097823 -0.0002728704
20.0000000000 4.7000000000 0.0000000000 0.9997501456 -0.0001092256 -0.0002131168 0.0000000000 0.0000000000
20.0000000000 -4.7000000000 0.0000000000 0.9997502489 0.0001092167 -0.0001905375 0.0000000000 0.0000000000
-10.0000000000 15.0000000000 0.0000000000 1.0000000000 0.0000000000 15.6257012671 0.0000000000 0.0000000000
20.0000000000 15.0000000000 0.0000000000 1.0004510251 0.0000000000 0.0013314475 0.0000000000 0.0000000000
20.0000000000 -15.0000000000 0.0000000000 1.0004513941 0.0000000000 0.0014722438 0.0000000000 0.0000000000
-10.0000000000 -15.0000000000 0.0000000000 1.0000000000 0.0000000000 15.6228534012 0.0000000000 0.0000000000
0.5169527023 -0.3400649069 0.0000000000 0.0000000000 0.0000000000 -523.6091527747 0.1504267662 0.0000214618
0.5294126280 -0.3261222436 0.0000000000 0.0000000000 0.0000000000 -524.1375643751 0.1504267662 0.0000214618
0.5413425076 -0.3117234389 0.0000000000 0.0000000000 0.0000000000 -525.1506052055 0.1504267662 0.0000214618
0.5527256562 -0.2968886308 0.0000000000 0.0000000000 0.0000000000 -526.6035356635 0.1504267662 0.0000214618
0.5635461535 -0.2816385670 0.0000000000 0.0000000000 0.0000000000 -527.5202370697 0.1504267662 0.0000214618
0.5737888659 -0.2659945762 0.0000000000 0.0000000000 0.0000000000 -527.2997146778 0.1504267662 0.0000214618
0.5834394682 -0.2499785380 0.0000000000 0.0000000000 0.0000000000 -525.1684731844 0.1504267662 0.0000214618
0.5924844631 -0.2336128521 0.0000000000 0.0000000000 0.0000000000 -520.4766175073 0.1504267662 0.0000214618
0.6009112002 -0.2169204075 0.0000000000 0.0000000000 0.0000000000 -512.6301537064 0.1504267662 0.0000214618
0.6087078942 -0.1999245501 0.0000000000 0.0000000000 0.0000000000 -501.2155125227 0.1504267662 0.0000214618
0.6158636406 -0.1826490502 0.0000000000 0.0000000000 0.0000000000 -486.0530042509 0.1504267662 0.0000214618
0.6223684314 -0.1651180690 0.0000000000 0.0000000000 0.0000000000 -467.2775593626 0.1504267662 0.0000214618
0.6282131691 -0.1473561252 0.0000000000 0.0000000000 0.0000000000 -445.3767366964 0.1504267662 0.0000214618
0.6333896794 -0.1293880606 0.0000000000 0.0000000000 0.0000000000 -421.1970144363 0.1504267662 0.0000214618
0.6378907223 -0.1112390050 0.0000000000 0.0000000000 0.0000000000 -395.9014222760 0.1504267662 0.0000214618
0.6417100028 -0.0929343416 0.0000000000 0.0000000000 0.0000000000 -370.8862246950 0.1504267662 0.0000214618
0.6448421793 -0.0744996711 0.0000000000 0.0000000000 0.0000000000 -347.6639202840 0.1504267662 0.0000214618
0.6472828711 -0.0559607761 0.0000000000 0.0000000000 0.0000000000 -327.7281217430 0.1504267662 0.0000214618
0.6490286648 -0.0373435848 0.0000000000 0.0000000000 0.0000000000 -312.4157413490 0.1504267662 0.0000214618
0.6500771186 -0.0186741352 0.0000000000 0.0000000000 0.0000000000 -302.7823324368 0.1504267662 0.0000214618
0.6504267662 0.0000214620 0.0000000000 0.0000000000 0.0000000000 -299.5030281987 0.1504267662 0.0000214618
0.6500771185 0.0187170591 0.0000000000 0.0000000000 0.0000000000 -302.8096164111 0.1504267662 0.0000214618
0.6490286647 0.0373865087 0.0000000000 0.0000000000 0.0000000000 -312.4684698893 0.1504267662 0.0000214618
0.6472828711 0.0560037000 0.0000000000 0.0000000000 0.0000000000 -327.8028867713 0.1504267662 0.0000214618
0.6448421792 0.0745425950 0.0000000000 0.0000000000 0.0000000000 -347.7561061004 0.1504267662 0.0000214618
0.6417100027 0.0929772655 0.0000000000 0.0000000000 0.0000000000 -370.9906205855 0.1504267662 0.0000214618
0.6378907222 0.1112819289 0.0000000000 0.0000000000 0.0000000000 -396.0125079126 0.1504267662 0.0000214618
0.6333896793 0.1294309845 0.0000000000 0.0000000000 0.0000000000 -421.3098273052 0.1504267662 0.0000214618
0.6282131690 0.1473990491 0.0000000000 0.0000000000 0.0000000000 -445.4866431808 0.1504267662 0.0000214618
0.6223684313 0.1651609929 0.0000000000 0.0000000000 0.0000000000 -467.3820993686 0.1504267662 0.0000214618
0.6158636404 0.1826919741 0.0000000000 0.0000000000 0.0000000000 -486.1500915398 0.1504267662 0.0000214618
0.6087078940 0.1999674740 0.0000000000 0.0000000000 0.0000000000 -501.3081006991 0.1504267662 0.0000214618
0.6009112001 0.2169633314 0.0000000000 0.0000000000 0.0000000000 -512.7187735229 0.1504267662 0.0000214618
0.5924844629 0.2336557760 0.0000000000 0.0000000000 0.0000000000 -520.5719845091 0.1504267662 0.0000214618
0.5834394680 0.2500214618 0.0000000000 0.0000000000 0.0000000000 -525.2678668294 0.1504267662 0.0000214618
0.5737888657 0.2660375001 0.0000000000 0.0000000000 0.0000000000 -527.4236603140 0.1504267662 0.0000214618
0.5635461533 0.2816814909 0.0000000000 0.0000000000 0.0000000000 -527.6501031151 0.1504267662 0.0000214618
0.5527256560 0.2969315546 0.0000000000 0.0000000000 0.0000000000 -526.7764452897 0.1504267662 0.0000214618
0.5413425073 0.3117663627 0.0000000000 0.0000000000 0.0000000000 -525.3222481234 0.1504267662 0.0000214618
0.5294126277 0.3261651674 0.0000000000 0.0000000000 0.0000000000 -524.3505127999 0.1504267662 0.0000214618
0.5169527020 0.3401078307 0.0000000000 0.0000000000 0.0000000000 -523.8577009185 0.1504267662 0.0000214618
0.4890675519 0.3678834171 0.0000000000 0.0000000000 0.0000000000 -528.4072577152 0.1504267662 0.0000214618
0.4735763850 0.3815634959 0.0000000000 0.0000000000 0.0000000000 -534.5948161501 0.1504267662 0.0000214618
0.4575331225 0.3945917165 0.0000000000 0.0000000000 0.0000000000 -542.6692584618 0.1504267662 0.0000214618
0.4409651738 0.4069458204 0.0000000000 0.0000000000 0.0000000000 -553.2568969212 0.1504267662 0.0000214618
0.4239008452 0.4186047009 0.0000000000 0.0000000000 0.0000000000 -565.6800645456 0.1504267662 0.0000214618
0.4063692906 0.4295484390 0.0000000000 0.0000000000 0.0000000000 -580.0016509324 0.1504267662 0.0000214618
0.3884004626 0.4397583374 0.0000000000 0.0000000000 0.0000000000 -595.9069664355 0.1504267662 0.0000214618
0.3700250605 0.4492169527 0.0000000000 0.0000000000 0.0000000000 -613.3350509537 0.1504267662 0.0000214618
0.3512744784 0.4579081251 0.0000000000 0.0000000000 0.0000000000 -632.0794050166 0.1504267662 0.0000214618
0.3321807514 0.4658170058 0.0000000000 0.0000000000 0.0000000000 -651.9704720364 0.1504267662 0.0000214618
0.3127765007 0.4729300826 0.0000000000 0.0000000000 0.0000000000 -672.7410845180 0.1504267662 0.0000214618
0.2930948782 0.4792352030 0.0000000000 0.0000000000 0.0000000000 -694.0853965603 0.1504267662 0.0000214618
0.2731695096 0.4847215947 0.0000000000 0.0000000000 0.0000000000 -715.6219141912 0.1504267662 0.0000214618
0.2530344372 0.4893798844 0.0000000000 0.0000000000 0.0000000000 -736.9190563570 0.1504267662 0.0000214618
0.2327240612 0.4932021135 0.0000000000 0.0000000000 0.0000000000 -757.4934336374 0.1504267662 0.0000214618
0.2122730817 0.4961817516 0.0000000000 0.0000000000 0.0000000000 -776.8278990484 0.1504267662 0.0000214618
0.1917164388 0.4983137083 0.0000000000 0.0000000000 0.0000000000 -794.3842041286 0.1504267662 0.0000214618
0.1710892532 0.4995943409 0.0000000000 0.0000000000 0.0000000000 -809.6191976418 0.1504267662 0.0000214618
0.1504267661 0.5000214618 0.0000000000 0.0000000000 0.0000000000 -822.0010841208 0.1504267662 0.0000214618
0.1297642789 0.4995943409 0.0000000000 0.0000000000 0.0000000000 -831.0355117634 0.1504267662 0.0000214618
0.1091370933 0.4983137082 0.0000000000 0.0000000000 0.0000000000 -836.2592410674 0.1504267662 0.0000214618
0.0885804504 0.4961817516 0.0000000000 0.0000000000 0.0000000000 -837.2707185721 0.1504267662 0.0000214618
0.0681294709 0.4932021134 0.0000000000 0.0000000000 0.0000000000 -833.7325832250 0.1504267662 0.0000214618
0.0478190949 0.4893798844 0.0000000000 0.0000000000 0.0000000000 -825.3842544570 0.1504267662 0.0000214618
0.0276840225 0.4847215947 0.0000000000 0.0000000000 0.0000000000 -812.0498748035 0.1504267662 0.0000214618
0.0077586539 0.4792352029 0.0000000000 0.0000000000 0.0000000000 -793.6367941339 0.1504267662 0.0000214618
-0.0119229686 0.4729300826 0.0000000000 0.0000000000 0.0000000000 -770.1282395035 0.1504267662 0.0000214618
-0.0313272192 0.4658170057 0.0000000000 0.0000000000 0.0000000000 -741.5761151027 0.1504267662 0.0000214618
-0.0504209463 0.4579081250 0.0000000000 0.0000000000 0.0000000000 -708.0986280164 0.1504267662 0.0000214618
-0.0691715284 0.4492169526 0.0000000000 0.0000000000 0.0000000000 -669.8805503257 0.1504267662 0.0000214618
-0.0875469305 0.4397583373 0.0000000000 0.0000000000 0.0000000000 -627.1716592854 0.1504267662 0.0000214618
-0.1055157585 0.4295484389 0.0000000000 0.0000000000 0.0000000000 -580.2817644140 0.1504267662 0.0000214618
-0.1230473130 0.4186047008 0.0000000000 0.0000000000 0.0000000000 -529.5735593480 0.1504267662 0.0000214618
-0.1401116417 0.4069458203 0.0000000000 0.0000000000 0.0000000000 -475.4549935509 0.1504267662 0.0000214618
-0.1566795903 0.3945917164 0.0000000000 0.0000000000 0.0000000000 -418.3721332106 0.1504267662 0.0000214618
-0.1727228529 0.3815634958 0.0000000000 0.0000000000 0.0000000000 -358.8026027565 0.1504267662 0.0000214618
-0.1882140198 0.3678834170 0.0000000000 0.0000000000 0.0000000000 -297.2493034529 0.1504267662 0.0000214618
-0.2174351893 0.3386622474 0.0000000000 0.0000000000 0.0000000000 -170.2923362951 0.1504267662 0.0000214618
-0.2311152680 0.3231710806 0.0000000000 0.0000000000 0.0000000000 -105.9657319532 0.1504267662 0.0000214618
-0.2441434886 0.3071278180 0.0000000000 0.0000000000 0.0000000000 -41.7979856204 0.1504267662 0.0000214618
-0.2564975926 0.2905598693 0.0000000000 0.0000000000 0.0000000000 21.6710813625 0.1504267662 0.0000214618
-0.2681564731 0.2734955407 0.0000000000 0.0000000000 0.0000000000 83.9102655014 0.1504267662 0.0000214618
-0.2791002111 0.2559639862 0.0000000000 0.0000000000 0.0000000000 144.4014552650 0.1504267662 0.0000214618
-0.2893101095 0.2379951581 0.0000000000 0.0000000000 0.0000000000 202.6437493060 0.1504267662 0.0000214618
-0.2987687249 0.2196197560 0.0000000000 0.0000000000 0.0000000000 258.1572634339 0.1504267662 0.0000214618
-0.3074598972 0.2008691739 0.0000000000 0.0000000000 0.0000000000 310.4866681172 0.1504267662 0.0000214618
-0.3153687779 0.1817754469 0.0000000000 0.0000000000 0.0000000000 359.2044847162 0.1504267662 0.0000214618
-0.3224818547 0.1623711962 0.0000000000 0.0000000000 0.0000000000 403.9141522374 0.1504267662 0.0000214618
-0.3287869751 0.1426895737 0.0000000000 0.0000000000 0.0000000000 444.2528613674 0.1504267662 0.0000214618
-0.3342733669 0.1227642051 0.0000000000 0.0000000000 0.0000000000 479.8941441528 0.1504267662 0.0000214618
-0.3389316565 0.1026291327 0.0000000000 0.0000000000 0.0000000000 510.5502011935 0.1504267662 0.0000214618
-0.3427538856 0.0823187567 0.0000000000 0.0000000000 0.0000000000 535.9739520700 0.1504267662 0.0000214618
-0.3457335237 0.0618677772 0.0000000000 0.0000000000 0.0000000000 555.9607892146 0.1504267662 0.0000214618
-0.3478654804 0.0413111343 0.0000000000 0.0000000000 0.0000000000 570.3500335474 0.1504267662 0.0000214618
-0.3491461130 0.0206839487 0.0000000000 0.0000000000 0.0000000000 579.0260662782 0.1504267662 0.0000214618
-0.3495732338 0.0000214615 0.0000000000 0.0000000000 0.0000000000 581.9191650151 0.1504267662 0.0000214618
-0.3491461130 -0.0206410256 0.0000000000 0.0000000000 0.0000000000 579.0059821528 0.1504267662 0.0000214618
-0.3478654803 -0.0412682112 0.0000000000 0.0000000000 0.0000000000 570.3097563877 0.1504267662 0.0000214618
-0.3457335237 -0.0618248541 0.0000000000 0.0000000000 0.0000000000 555.9001415970 0.1504267662 0.0000214618
-0.3427538855 -0.0822758336 0.0000000000 0.0000000000 0.0000000000 535.8927673736 0.1504267662 0.0000214618
-0.3389316565 -0.1025862096 0.0000000000 0.0000000000 0.0000000000 510.4484420370 0.1504267662 0.0000214618
-0.3342733668 -0.1227212820 0.0000000000 0.0000000000 0.0000000000 479.7720573639 0.1504267662 0.0000214618
-0.3287869750 -0.1426466506 0.0000000000 0.0000000000 0.0000000000 444.1111650117 0.1504267662 0.0000214618
-0.3224818546 -0.1623282731 0.0000000000 0.0000000000 0.0000000000 403.7542468714 0.1504267662 0.0000214618
-0.3153687778 -0.1817325237 0.0000000000 0.0000000000 0.0000000000 359.0286746757 0.1504267662 0.0000214618
-0.3074598971 -0.2008262508 0.0000000000 0.0000000000 0.0000000000 310.2983711673 0.1504267662 0.0000214618
-0.2987687247 -0.2195768329 0.0000000000 0.0000000000 0.0000000000 257.9611770927 0.1504267662 0.0000214618
-0.2893101093 -0.2379522350 0.0000000000 0.0000000000 0.0000000000 202.4459334773 0.1504267662 0.0000214618
-0.2791002109 -0.2559210630 0.0000000000 0.0000000000 0.0000000000 144.2092853511 0.1504267662 0.0000214618
-0.2681564728 -0.2734526175 0.0000000000 0.0000000000 0.0000000000 83.7322136486 0.1504267662 0.0000214618
-0.2564975923 -0.2905169461 0.0000000000 0.0000000000 0.0000000000 21.5162996578 0.1504267662 0.0000214618
-0.2441434884 -0.3070848948 0.0000000000 0.0000000000 0.0000000000 -41.9202745027 0.1504267662 0.0000214618
-0.2311152678 -0.3231281574 0.0000000000 0.0000000000 0.0000000000 -106.0469874717 0.1504267662 0.0000214618
-0.2174351890 -0.3386193242 0.0000000000 0.0000000000 0.0000000000 -170.3255012105 0.1504267662 0.0000214618
-0.1882140195 -0.3678404938 0.0000000000 0.0000000000 0.0000000000 -297.1744577980 0.1504267662 0.0000214618
-0.1727228526 -0.3815205725 0.0000000000 0.0000000000 0.0000000000 -358.6735002696 0.1504267662 0.0000214618
-0.1566795900 -0.3945487931 0.0000000000 0.0000000000 0.0000000000 -418.1924164418 0.1504267662 0.0000214618
-0.1401116413 -0.4069028970 0.0000000000 0.0000000000 0.0000000000 -475.2307541548 0.1504267662 0.0000214618
-0.1230473127 -0.4185617775 0.0000000000 0.0000000000 0.0000000000 -529.3128123713 0.1504267662 0.0000214618
-0.1055157582 -0.4295055156 0.0000000000 0.0000000000 0.0000000000 -579.9938918997 0.1504267662 0.0000214618
-0.0875469301 -0.4397154140 0.0000000000 0.0000000000 0.0000000000 -626.8667525864 0.1504267662 0.0000214618
-0.0691715280 -0.4491740293 0.0000000000 0.0000000000 0.0000000000 -669.5683392555 0.1504267662 0.0000214618
-0.0504209459 -0.4578652017 0.0000000000 0.0000000000 0.0000000000 -707.7868105639 0.1504267662 0.0000214618
-0.0313272189 -0.4657740824 0.0000000000 0.0000000000 0.0000000000 -741.2686679805 0.1504267662 0.0000214618
-0.0119229682 -0.4728871592 0.0000000000 0.0000000000 0.0000000000 -769.8252371156 0.1504267662 0.0000214618
0.0077586543 -0.4791922796 0.0000000000 0.0000000000 0.0000000000 -793.3368901200 0.1504267662 0.0000214618
0.0276840229 -0.4846786713 0.0000000000 0.0000000000 0.0000000000 -811.7541074462 0.1504267662 0.0000214618
0.0478190953 -0.4893369610 0.0000000000 0.0000000000 0.0000000000 -825.0977730758 0.1504267662 0.0000214618
0.0681294713 -0.4931591900 0.0000000000 0.0000000000 0.0000000000 -833.4628512141 0.1504267662 0.0000214618
0.0885804508 -0.4961388282 0.0000000000 0.0000000000 0.0000000000 -837.0239535450 0.1504267662 0.0000214618
0.1091370937 -0.4982707848 0.0000000000 0.0000000000 0.0000000000 -836.0384104814 0.1504267662 0.0000214618
0.1297642793 -0.4995514175 0.0000000000 0.0000000000 0.0000000000 -830.8400963424 0.1504267662 0.0000214618
0.1504267665 -0.4999785382 0.0000000000 0.0000000000 0.0000000000 -821.8287962772 0.1504267662 0.0000214618
0.1710892536 -0.4995514174 0.0000000000 0.0000000000 0.0000000000 -809.4667860786 0.1504267662 0.0000214618
0.1917164392 -0.4982707847 0.0000000000 0.0000000000 0.0000000000 -794.2476675999 0.1504267662 0.0000214618
0.2122730821 -0.4961388281 0.0000000000 0.0000000000 0.0000000000 -776.7030716754 0.1504267662 0.0000214618
0.2327240616 -0.4931591899 0.0000000000 0.0000000000 0.0000000000 -757.3760305389 0.1504267662 0.0000214618
0.2530344376 -0.4893369608 0.0000000000 0.0000000000 0.0000000000 -736.8045370529 0.1504267662 0.0000214618
0.2731695100 -0.4846786711 0.0000000000 0.0000000000 0.0000000000 -715.5063350438 0.1504267662 0.0000214618
0.2930948786 -0.4791922794 0.0000000000 0.0000000000 0.0000000000 -693.9638631111 0.1504267662 0.0000214618
0.3127765011 -0.4728871590 0.0000000000 0.0000000000 0.0000000000 -672.6115029664 0.1504267662 0.0000214618
0.3321807518 -0.4657740822 0.0000000000 0.0000000000 0.0000000000 -651.8281690201 0.1504267662 0.0000214618
0.3512744788 -0.4578652014 0.0000000000 0.0000000000 0.0000000000 -631.9277702097 0.1504267662 0.0000214618
0.3700250609 -0.4491740290 0.0000000000 0.0000000000 0.0000000000 -613.1679431395 0.1504267662 0.0000214618
0.3884004630 -0.4397154137 0.0000000000 0.0000000000 0.0000000000 -595.7376430412 0.1504267662 0.0000214618
0.4063692910 -0.4295055153 0.0000000000 0.0000000000 0.0000000000 -579.8138509997 0.1504267662 0.0000214618
0.4239008455 -0.4185617772 0.0000000000 0.0000000000 0.0000000000 -565.5008404919 0.1504267662 0.0000214618
0.4409651741 -0.4069028967 0.0000000000 0.0000000000 0.0000000000 -553.0451743541 0.1504267662 0.0000214618
0.4575331228 -0.3945487927 0.0000000000 0.0000000000 0.0000000000 -542.4600905700 0.1504267662 0.0000214618
0.4735763854 -0.3815205721 0.0000000000 0.0000000000 0.0000000000 -534.3527027959 0.1504267662 0.0000214618
0.4890675522 -0.3678404933 0.0000000000 0.0000000000 0.0000000000 -528.0789287527 0.1504267662 0.0000214618
0.6981676909 -0.5101193385 0.0000000000 0.7695929818 0.1165138902 -530.1489804590 0.1483787867 0.0000102144
0.7177748916 -0.4892007718 0.0000000000 0.6824831706 0.0917371663 -538.5442039163 0.1492960989 0.0000147863
0.7362714475 -0.4675993664 0.0000000000 0.6018799061 0.0646651567 -548.7865241830 0.1498978353 0.0000179846
0.7536860073 -0.4453451898 0.0000000000 0.5285864642 0.0378134882 -560.4054814164 0.1502376721 0.0000199490
0.7700710755 -0.4224690750 0.0000000000 0.4612871010 0.0137630285 -572.5184827405 0.1503919945 0.0000209682
0.7854791231 -0.3990026832 0.0000000000 0.3970436551 -0.0054669057 -583.7855057571 0.1504359735 0.0000213738
0.7999468940 -0.3749785477 0.0000000000 0.3325157855 -0.0188631795 -592.5352965628 0.1504278410 0.0000214519
0.8134907182 -0.3504300704 0.0000000000 0.2651982415 -0.0264810183 -597.0208152785 0.1504041728 0.0000214005
0.8261097414 -0.3253914751 0.0000000000 0.1940859055 -0.0291674450 -595.7371729547 0.1503830903 0.0000213288
0.8377921954 -0.2998977368 0.0000000000 0.1196656847 -0.0281600027 -587.7069760440 0.1503705033 0.0000212811
0.8485212041 -0.2739845038 0.0000000000 0.0435018770 -0.0247526977 -572.6617825572 0.1503658925 0.0000212640
0.8582788203 -0.2476880266 0.0000000000 -0.0322739037 -0.0200997160 -551.0933617779 0.1503663225 0.0000212694
0.8670483680 -0.2210450943 0.0000000000 -0.1053953867 -0.0151315851 -524.1850585789 0.1503687635 0.0000212861
0.8748155205 -0.1940929785 0.0000000000 -0.1737726585 -0.0105310036 -493.6528653263 0.1503711506 0.0000213050
0.8815684778 -0.1668693797 0.0000000000 -0.2356853922 -0.0067319656 -461.5341661713 0.1503725436 0.0000213204
0.8872976125 -0.1394123744 0.0000000000 -0.2898585676 -0.0039303691 -429.9655079478 0.1503727575 0.0000213306
0.8919950183 -0.1117603609 0.0000000000 -0.3354164153 -0.0021100947 -400.9881349396 0.1503718986 0.0000213384
0.8956543126 -0.0839520055 0.0000000000 -0.3717355532 -0.0010938999 -376.4074795969 0.1503701552 0.0000213513
0.8982708699 -0.0560261918 0.0000000000 -0.3982730516 -0.0006224910 -357.7095557666 0.1503680220 0.0000213781
0.8998424499 -0.0280219771 0.0000000000 -0.4144873305 -0.0004453347 -346.0115265711 0.1503669213 0.0000214183
0.9003692887 0.0000214400 0.0000000000 -0.4199260401 -0.0003838701 -342.0169819874 0.1503692887 0.0000214397
0.8998423581 0.0280648549 0.0000000000 -0.4144109834 -0.0003219440 -345.9704398049 0.1503668295 0.0000214589
0.8982699402 0.0560690652 0.0000000000 -0.3981299999 -0.0001420797 -357.6273752805 0.1503670924 0.0000214948
0.8956523823 0.0839948819 0.0000000000 -0.3715424922 0.0003357614 -376.2834418118 0.1503682249 0.0000215246
0.8919921480 0.1118032488 0.0000000000 -0.3351934075 0.0013622861 -400.8209723228 0.1503690283 0.0000215489
0.8872940346 0.1394552782 0.0000000000 -0.2896260699 0.0031953100 -429.7547551184 0.1503691798 0.0000215726
0.8815649235 0.1669122972 0.0000000000 -0.2354629830 0.0060086202 -461.2817059534 0.1503689894 0.0000215965
0.8748133881 0.1941359017 0.0000000000 -0.1735785046 0.0098135007 -493.3642979331 0.1503690184 0.0000216176
0.8670493756 0.2210880112 0.0000000000 -0.1052448762 0.0144095947 -523.8707818417 0.1503697713 0.0000216302
0.8582842502 0.2477309252 0.0000000000 -0.0321766073 0.0193608208 -550.7689512379 0.1503717526 0.0000216285
0.8485311898 0.2740273768 0.0000000000 0.0435470246 0.0239856941 -572.3468380730 0.1503758784 0.0000216084
0.8378054894 0.2999405845 0.0000000000 0.1196766697 0.0273578515 -587.4218410087 0.1503837975 0.0000215661
0.8261240755 0.3254343058 0.0000000000 0.1941037613 0.0283298740 -595.4979438341 0.1503974247 0.0000215013
0.8135035111 0.3504728961 0.0000000000 0.2652879777 0.0256180814 -596.8342819579 0.1504169661 0.0000214247
0.7999559216 0.3750213778 0.0000000000 0.3327529844 0.0180001676 -592.3960991024 0.1504368689 0.0000213777
0.7854828956 0.3990455149 0.0000000000 0.3974794173 0.0046472300 -583.6770716428 0.1504397463 0.0000214574
0.7700689092 0.4225118821 0.0000000000 0.4619001634 -0.0144837922 -572.4171584474 0.1503898285 0.0000218384
0.7536779431 0.4453879116 0.0000000000 0.5292567291 -0.0383858180 -560.2856725125 0.1502296084 0.0000227724
0.7362581844 0.4676418997 0.0000000000 0.6024218043 -0.0650679407 -548.6262116662 0.1498845726 0.0000245483
0.7177578040 0.4892429721 0.0000000000 0.6827354936 -0.0919890636 -538.3365642346 0.1492790117 0.0000274135
0.6981488955 0.5101610337 0.0000000000 0.7694965895 -0.1166564135 -529.8876815064 0.1483599916 0.0000314804
0.6534000467 0.5518361987 0.0000000000 0.9610229973 -0.1532870480 -518.2554759500 0.1454388681 0.0000432656
0.6282503690 0.5723634474 0.0000000000 1.0583180968 -0.1620297948 -515.0559722136 0.1435259406 0.0000503962
0.6021645342 0.5919129701 0.0000000000 1.1482103797 -0.1634404586 -513.2472004464 0.1415049997 0.0000575880
0.5752840812 0.6104510592 0.0000000000 1.2279934755 -0.1580838325 -512.4126950692 0.1394764697 0.0000645212
0.5477139864 0.6279458913 0.0000000000 1.2960893315 -0.1468660623 -512.1663230304 0.1375028679 0.0000710326
0.5195310651 0.6443675238 0.0000000000 1.3519856618 -0.1308423611 -512.2041461587 0.1356172784 0.0000770580
0.4907981209 0.6596878895 0.0000000000 1.3960688316 -0.1110751950 -512.2954154866 0.1338375762 0.0000825760
0.4615728146 0.6738808163 0.0000000000 1.4293774159 -0.0885267472 -512.2593253831 0.1321753730 0.0000875799
0.4319108997 0.6869220642 0.0000000000 1.4533285102 -0.0639965749 -511.9415753742 0.1306393313 0.0000920692
0.4018671325 0.6987893639 0.0000000000 1.4694685189 -0.0381023341 -511.1968028142 0.1292361547 0.0000960478
0.3714956650 0.7094624533 0.0000000000 1.4792810370 -0.0112929886 -509.8782658270 0.1279710632 0.0000995220
0.3408503018 0.7189231110 0.0000000000 1.4840634143 0.0161189849 -507.8341275479 0.1268481337 0.0001024992
0.3099846638 0.7271551870 0.0000000000 1.4848676077 0.0439185684 -504.9087687741 0.1258705485 0.0001049875
0.2789522859 0.7341446292 0.0000000000 1.4824915263 0.0719512501 -500.9473546149 0.1250407794 0.0001069952
0.2478066678 0.7398795076 0.0000000000 1.4775037147 0.1000932680 -495.8019867683 0.1243607253 0.0001085300
0.2166012906 0.7443500341 0.0000000000 1.4702853302 0.1282308600 -489.3380429191 0.1238318173 0.0001095993
0.1853896053 0.7475485797 0.0000000000 1.4610769918 0.1562480384 -481.4396761882 0.1234550963 0.0001102100
0.1542250004 0.7494696869 0.0000000000 1.4500224234 0.1840211821 -472.0138528677 0.1232312699 0.0001103681
0.1231607498 0.7501100793 0.0000000000 1.4372046924 0.2114183702 -460.9926769727 0.1231607499 0.0001100793
0.0922499440 0.7494686675 0.0000000000 1.4226737064 0.2383015316 -448.3340399478 0.1232436749 0.0001093487
0.0615454061 0.7475465507 0.0000000000 1.4064654096 0.2645298946 -434.0208246287 0.1234799154 0.0001081809
0.0310995918 0.7443470151 0.0000000000 1.3886140170 0.2899636765 -418.0589904649 0.1238690655 0.0001065803
0.0009644751 0.7398755287 0.0000000000 1.3691589076 0.3144673637 -400.4748922100 0.1244104179 0.0001045512
-0.0288085825 0.7341397316 0.0000000000 1.3481477244 0.3379122480 -381.3121611691 0.1251029243 0.0001020977
-0.0581689792 0.7271494236 0.0000000000 1.3256369846 0.3601780997 -360.6284284092 0.1259451364 0.0000992242
-0.0870670406 0.7189165473 0.0000000000 1.3016912064 0.3811539948 -338.4921094607 0.1269351278 0.0000959355
-0.1154542124 0.7094551678 0.0000000000 1.2763812833 0.4007383848 -314.9794105466 0.1280703896 0.0000922366
-0.1432832849 0.6987814491 0.0000000000 1.2497826031 0.4188385239 -290.1716632100 0.1293476932 0.0000881331
-0.1705086618 0.6869136263 0.0000000000 1.2219732334 0.4353693708 -264.1530492700 0.1307629069 0.0000836314
-0.1970866960 0.6738719749 0.0000000000 1.1930323639 0.4502520615 -237.0087421629 0.1323107458 0.0000787386
-0.2229761181 0.6596787765 0.0000000000 1.1630391194 0.4634120236 -208.8234709460 0.1339844269 0.0000734632
-0.2481386061 0.6443582816 0.0000000000 1.1320718072 0.4747767539 -179.6804794879 0.1357751809 0.0000678159
-0.2725398781 0.6279366725 0.0000000000 1.1002073295 0.4842731123 -149.6604237119 0.1376712407 0.0000618139
-0.2961531096 0.6104420350 0.0000000000 1.0675191737 0.4918230302 -118.8381203127 0.1396545021 0.0000554971
-0.3189679612 0.5919043537 0.0000000000 1.0340717704 0.4973340955 -87.2738304287 0.1416915735 0.0000489718
-0.3410048311 0.5723555209 0.0000000000 0.9999147871 0.5006811288 -55.0015965156 0.1437195974 0.0000424699
-0.3623233093 0.5518293048 0.0000000000 0.9650918113 0.5016846623 -22.0309762198 0.1456378696 0.0000363720
-0.4031314104 0.5079882758 0.0000000000 0.8938208841 0.4956977865 45.8542154026 0.1486615228 0.0000270973
-0.4227077821 0.4847488139 0.0000000000 0.8577878499 0.4882496479 80.4627049997 0.1496052692 0.0000243857
-0.4416786472 0.4606823649 0.0000000000 0.8219269997 0.4776746834 115.1097651592 0.1501767350 0.0000228306
-0.4599283278 0.4358297095 0.0000000000 0.7866198581 0.4640112718 149.3966465165 0.1504582103 0.0000220982
-0.4773218476 0.4102329547 0.0000000000 0.7522230767 0.4473904627 182.9295596673 0.1505530112 0.0000218363
-0.4937389639 0.3839355673 0.0000000000 0.7190406670 0.4279828831 215.3647675325 0.1505515020 0.0000217807
-0.5090905196 0.3569823268 0.0000000000 0.6873259640 0.4059601392 246.4180360259 0.1505147939 0.0000217823
-0.5233178928 0.3294192212 0.0000000000 0.6572972668 0.3814817338 275.8520030869 0.1504753437 0.0000217798
-0.5363842279 0.3012933270 0.0000000000 0.6291522124 0.3546995625 303.4594325465 0.1504457672 0.0000217588
-0.5482653047 0.2726526995 0.0000000000 0.6030753207 0.3257675885 329.0518923467 0.1504280115 0.0000217218
-0.5589433942 0.2435462772 0.0000000000 0.5792399062 0.2948494107 352.4548947207 0.1504195372 0.0000216756
-0.5684039767 0.2140237940 0.0000000000 0.5578070959 0.2621222032 373.5071615058 0.1504166352 0.0000216261
-0.5766341236 0.1841356930 0.0000000000 0.5389237115 0.2277779441 392.0618636158 0.1504160759 0.0000215779
-0.5836217304 0.1539330396 0.0000000000 0.5227198971 0.1920228395 407.9885979010 0.1504159037 0.0000215332
-0.5893553945 0.1234674348 0.0000000000 0.5093071625 0.1550754054 421.1753109344 0.1504155831 0.0000214924
-0.5938249123 0.0927909280 0.0000000000 0.4987773709 0.1171637406 431.5295773368 0.1504155226 0.0000214548
-0.5970221456 0.0619559291 0.0000000000 0.4912026688 0.0785228144 438.9790447717 0.1504162242 0.0000214203
-0.5989417382 0.0310151196 0.0000000000 0.4866356918 0.0393924507 443.4714186079 0.1504175806 0.0000213892
-0.5995811740 0.0000213614 0.0000000000 0.4851091664 0.0000160267 444.9746189071 0.1504188260 0.0000213617
-0.5989393031 -0.0309723990 0.0000000000 0.4866336663 -0.0393610056 443.4780794560 0.1504200157 0.0000213320
-0.5970177614 -0.0619132141 0.0000000000 0.4911991706 -0.0784930316 438.9918375967 0.1504206083 0.0000212953
-0.5938195601 -0.0927482100 0.0000000000 0.4987733997 -0.1171361714 431.5475267318 0.1504208747 0.0000212638
-0.5893501711 -0.1234247048 0.0000000000 0.5093035752 -0.1550500343 421.1973953890 0.1504208064 0.0000212382
-0.5836176078 -0.1538902968 0.0000000000 0.5227170564 -0.1919992274 408.0140026048 0.1504200262 0.0000212101
-0.5766317686 -0.1840929431 0.0000000000 0.5389213152 -0.2277554902 392.0901206758 0.1504184307 0.0000211726
-0.5684034754 -0.2139810404 0.0000000000 0.5578040897 -0.2621006069 373.5382124104 0.1504171364 0.0000211282