 TITLE = "Tecplot data"
 VARIABLES = "X", "Y", "Z" "U", "V", "p", "dispX", "dispY"
 ZONE SOLUTIONTIME=88.900000, NODES=26114 , ELEMENTS=25916, DATAPACKING=POINT, ZONETYPE=FEQUADRILATERAL
0.6146839565 -1.3124372959 0.0000000000 0.0000000000 0.0000000000 -147.4562233821 0.2611305659 -1.6659906865
0.6146839568 -2.0195440768 0.0000000000 0.0000000000 0.0000000000 -2412.8308211117 0.2611305659 -1.6659906865
-0.0924228248 -1.3124372960 0.0000000000 0.0000000000 0.0000000000 593.4769619725 0.2611305659 -1.6659906865
-0.0924228245 -2.0195440773 0.0000000000 0.0000000000 0.0000000000 33.5174360859 0.2611305659 -1.6659906865
0.7854890223 -1.1291826904 0.0000000000 0.1609287666 -0.2214052067 -130.2824457345 0.2551589364 -1.6595127764
0.7977502890 -2.1880617576 0.0000000000 1.0823890869 0.5003782477 -1136.8783729793 0.2674202027 -1.6577316721
-0.2721103349 -1.1356751297 0.0000000000 0.1791233280 0.1112085035 598.3597418134 0.2582197512 -1.6660052154
-0.2676716369 -2.1969245678 0.0000000000 1.2759672467 -0.8341404880 259.9392319696 0.2626584487 -1.6665944817
1.2828697336 -0.5563701685 0.0000000000 0.3368782306 -0.2367244411 -119.5447919025 0.2222095619 -1.6170303404
1.3584664459 -2.6716172828 0.0000000000 1.0406324062 -0.0287689435 -404.8637099562 0.2978062734 -1.6109571118
-0.8165637622 -0.6024813823 0.0000000000 0.5158009521 -0.0225494491 475.2583066998 0.2440964099 -1.6631415537
-0.7871712749 -2.7274267187 0.0000000000 1.0882509380 -0.3610223994 236.9733447111 0.2734888963 -1.6667665464
4.2627887339 1.9376184665 0.0000000000 0.7963410456 0.3409088600 -73.8731054258 0.0627887339 -1.3623815335
4.6420854920 -4.6440915618 0.0000000000 1.1995893362 0.0601588461 -159.2810569015 0.4420854920 -1.3440915618
20.0000000000 4.7000000000 0.0000000000 1.0878941116 0.0597604484 0.3569325116 0.0000000000 0.0000000000
20.0000000000 -4.7000000000 0.0000000000 1.0538645732 -0.0439231801 -0.0159050548 0.0000000000 0.0000000000
-10.0000000000 15.0000000000 0.0000000000 1.0000000000 0.0000000000 135.3425609057 0.0000000000 0.0000000000
20.0000000000 15.0000000000 0.0000000000 1.0494183587 0.0000000000 0.0391246228 0.0000000000 0.0000000000
20.0000000000 -15.0000000000 0.0000000000 1.0507736061 0.0000000000 0.0313608119 0.0000000000 0.0000000000
-10.0000000000 -15.0000000000 0.0000000000 1.0000000000 0.0000000000 85.2653825544 0.0000000000 0.0000000000
0.6276565021 -2.0060770551 0.0000000000 0.0000000000 0.0000000000 -2364.4847911911 0.2611305659 -1.6659906865
0.6401164277 -1.9921343919 0.0000000000 0.0000000000 0.0000000000 -2288.4745471896 0.2611305659 -1.6659906865
0.6520463074 -1.9777355871 0.0000000000 0.0000000000 0.0000000000 -2222.3599140132 0.2611305659 -1.6659906865
0.6634294560 -1.9629007790 0.0000000000 0.0000000000 0.0000000000 -2146.4831424806 0.2611305659 -1.6659906865
0.6742499532 -1.9476507152 0.0000000000 0.0000000000 0.0000000000 -2071.1211154376 0.2611305659 -1.6659906865
0.6844926657 -1.9320067245 0.0000000000 0.0000000000 0.0000000000 -1991.6636849042 0.2611305659 -1.6659906865
0.6941432680 -1.9159906862 0.0000000000 0.0000000000 0.0000000000 -1911.1885049784 0.2611305659 -1.6659906865
0.7031882628 -1.8996250004 0.0000000000 0.0000000000 0.0000000000 -1828.7797954561 0.2611305659 -1.6659906865
0.7116150000 -1.8829325558 0.0000000000 0.0000000000 0.0000000000 -1745.6132116137 0.2611305659 -1.6659906865
0.7194116940 -1.8659366984 0.0000000000 0.0000000000 0.0000000000 -1661.7475892431 0.2611305659 -1.6659906865
0.7265674403 -1.8486611984 0.0000000000 0.0000000000 0.0000000000 -1577.8177003572 0.2611305659 -1.6659906865
0.7330722312 -1.8311302172 0.0000000000 0.0000000000 0.0000000000 -1494.1295107193 0.2611305659 -1.6659906865
0.7389169689 -1.8133682734 0.0000000000 0.0000000000 0.0000000000 -1411.1410697833 0.2611305659 -1.6659906865
0.7440934791 -1.7954002088 0.0000000000 0.0000000000 0.0000000000 -1329.2015130879 0.2611305659 -1.6659906865
0.7485945221 -1.7772511532 0.0000000000 0.0000000000 0.0000000000 -1248.6902746021 0.2611305659 -1.6659906865
0.7524138026 -1.7589464898 0.0000000000 0.0000000000 0.0000000000 -1169.9398163848 0.2611305659 -1.6659906865
0.7555459791 -1.7405118193 0.0000000000 0.0000000000 0.0000000000 -1093.2764206807 0.2611305659 -1.6659906865
0.7579866709 -1.7219729243 0.0000000000 0.0000000000 0.0000000000 -1018.9962540242 0.2611305659 -1.6659906865
0.7597324645 -1.7033557331 0.0000000000 0.0000000000 0.0000000000 -947.3768245743 0.2611305659 -1.6659906865
0.7607809183 -1.6846862834 0.0000000000 0.0000000000 0.0000000000 -878.6683522628 0.2611305659 -1.6659906865
0.7611305659 -1.6659906863 0.0000000000 0.0000000000 0.0000000000 -813.0956240012 0.2611305659 -1.6659906865
0.7607809183 -1.6472950891 0.0000000000 0.0000000000 0.0000000000 -750.8530887940 0.2611305659 -1.6659906865
0.7597324645 -1.6286256395 0.0000000000 0.0000000000 0.0000000000 -692.1027631712 0.2611305659 -1.6659906865
0.7579866708 -1.6100084483 0.0000000000 0.0000000000 0.0000000000 -636.9695767270 0.2611305659 -1.6659906865
0.7555459790 -1.5914695532 0.0000000000 0.0000000000 0.0000000000 -585.5374652611 0.2611305659 -1.6659906865
0.7524138025 -1.5730348827 0.0000000000 0.0000000000 0.0000000000 -537.8447595668 0.2611305659 -1.6659906865
0.7485945220 -1.5547302193 0.0000000000 0.0000000000 0.0000000000 -493.8805645216 0.2611305659 -1.6659906865
0.7440934790 -1.5365811638 0.0000000000 0.0000000000 0.0000000000 -453.5818121934 0.2611305659 -1.6659906865
0.7389169688 -1.5186130991 0.0000000000 0.0000000000 0.0000000000 -416.8327146249 0.2611305659 -1.6659906865
0.7330722310 -1.5008511554 0.0000000000 0.0000000000 0.0000000000 -383.4653371211 0.2611305659 -1.6659906865
0.7265674402 -1.4833201742 0.0000000000 0.0000000000 0.0000000000 -353.2649588287 0.2611305659 -1.6659906865
0.7194116938 -1.4660446742 0.0000000000 0.0000000000 0.0000000000 -325.9735791021 0.2611305659 -1.6659906865
0.7116149998 -1.4490488168 0.0000000000 0.0000000000 0.0000000000 -301.3045926749 0.2611305659 -1.6659906865
0.7031882626 -1.4323563722 0.0000000000 0.0000000000 0.0000000000 -278.9418262302 0.2611305659 -1.6659906865
0.6941432677 -1.4159906864 0.0000000000 0.0000000000 0.0000000000 -258.5743470500 0.2611305659 -1.6659906865
0.6844926655 -1.3999746481 0.0000000000 0.0000000000 0.0000000000 -239.8638063765 0.2611305659 -1.6659906865
0.6742499530 -1.3843306574 0.0000000000 0.0000000000 0.0000000000 -222.5439576183 0.2611305659 -1.6659906865
0.6634294557 -1.3690805936 0.0000000000 0.0000000000 0.0000000000 -206.2600755437 0.2611305659 -1.6659906865
0.6520463071 -1.3542457855 0.0000000000 0.0000000000 0.0000000000 -190.9050793994 0.2611305659 -1.6659906865
0.6401164274 -1.3398469808 0.0000000000 0.0000000000 0.0000000000 -175.9989558892 0.2611305659 -1.6659906865
0.6276565018 -1.3259043176 0.0000000000 0.0000000000 0.0000000000 -161.8461333223 0.2611305659 -1.6659906865
0.5997713517 -1.2981287311 0.0000000000 0.0000000000 0.0000000000 -132.5094140953 0.2611305659 -1.6659906865
0.5842801848 -1.2844486523 0.0000000000 0.0000000000 0.0000000000 -117.1104130191 0.2611305659 -1.6659906865
0.5682369222 -1.2714204317 0.0000000000 0.0000000000 0.0000000000 -102.0797294312 0.2611305659 -1.6659906865
0.5516689736 -1.2590663278 0.0000000000 0.0000000000 0.0000000000 -86.7900966914 0.2611305659 -1.6659906865
0.5346046449 -1.2474074473 0.0000000000 0.0000000000 0.0000000000 -71.5301257205 0.2611305659 -1.6659906865
0.5170730904 -1.2364637093 0.0000000000 0.0000000000 0.0000000000 -56.0487751087 0.2611305659 -1.6659906865
0.4991042624 -1.2262538108 0.0000000000 0.0000000000 0.0000000000 -40.4361141030 0.2611305659 -1.6659906865
0.4807288603 -1.2167951955 0.0000000000 0.0000000000 0.0000000000 -24.5888643308 0.2611305659 -1.6659906865
0.4619782782 -1.2081040231 0.0000000000 0.0000000000 0.0000000000 -8.5275570364 0.2611305659 -1.6659906865
0.4428845511 -1.2001951424 0.0000000000 0.0000000000 0.0000000000 7.7938223083 0.2611305659 -1.6659906865
0.4234803004 -1.1930820656 0.0000000000 0.0000000000 0.0000000000 24.3767206428 0.2611305659 -1.6659906865
0.4037986780 -1.1867769452 0.0000000000 0.0000000000 0.0000000000 41.2443534910 0.2611305659 -1.6659906865
0.3838733094 -1.1812905535 0.0000000000 0.0000000000 0.0000000000 58.4037369460 0.2611305659 -1.6659906865
0.3637382369 -1.1766322638 0.0000000000 0.0000000000 0.0000000000 75.8683920296 0.2611305659 -1.6659906865
0.3434278610 -1.1728100348 0.0000000000 0.0000000000 0.0000000000 93.6457191127 0.2611305659 -1.6659906865
0.3229768814 -1.1698303966 0.0000000000 0.0000000000 0.0000000000 111.7446370028 0.2611305659 -1.6659906865
0.3024202385 -1.1676984400 0.0000000000 0.0000000000 0.0000000000 130.1715148125 0.2611305659 -1.6659906865
0.2817930529 -1.1664178073 0.0000000000 0.0000000000 0.0000000000 148.9326871563 0.2611305659 -1.6659906865
0.2611305658 -1.1659906865 0.0000000000 0.0000000000 0.0000000000 168.0331744929 0.2611305659 -1.6659906865
0.2404680787 -1.1664178073 0.0000000000 0.0000000000 0.0000000000 187.4774647171 0.2611305659 -1.6659906865
0.2198408931 -1.1676984400 0.0000000000 0.0000000000 0.0000000000 207.2690854285 0.2611305659 -1.6659906865
0.1992842502 -1.1698303966 0.0000000000 0.0000000000 0.0000000000 227.4107839751 0.2611305659 -1.6659906865
0.1788332707 -1.1728100348 0.0000000000 0.0000000000 0.0000000000 247.9043187933 0.2611305659 -1.6659906865
0.1585228947 -1.1766322638 0.0000000000 0.0000000000 0.0000000000 268.7504053693 0.2611305659 -1.6659906865
0.1383878222 -1.1812905535 0.0000000000 0.0000000000 0.0000000000 289.9485240690 0.2611305659 -1.6659906865
0.1184624537 -1.1867769453 0.0000000000 0.0000000000 0.0000000000 311.4967449814 0.2611305659 -1.6659906865
0.0987808312 -1.1930820657 0.0000000000 0.0000000000 0.0000000000 333.3914870774 0.2611305659 -1.6659906865
0.0793765805 -1.2001951425 0.0000000000 0.0000000000 0.0000000000 355.6272544548 0.2611305659 -1.6659906865
0.0602828535 -1.2081040232 0.0000000000 0.0000000000 0.0000000000 378.1963294812 0.2611305659 -1.6659906865
0.0415322714 -1.2167951956 0.0000000000 0.0000000000 0.0000000000 401.0884381081 0.2611305659 -1.6659906865
0.0231568693 -1.2262538109 0.0000000000 0.0000000000 0.0000000000 424.2903886073 0.2611305659 -1.6659906865
0.0051880412 -1.2364637094 0.0000000000 0.0000000000 0.0000000000 447.7856944563 0.2611305659 -1.6659906865
-0.0123435133 -1.2474074474 0.0000000000 0.0000000000 0.0000000000 471.5541856906 0.2611305659 -1.6659906865
-0.0294078419 -1.2590663279 0.0000000000 0.0000000000 0.0000000000 495.5716072351 0.2611305659 -1.6659906865
-0.0459757906 -1.2714204319 0.0000000000 0.0000000000 0.0000000000 519.8091895915 0.2611305659 -1.6659906865
-0.0620190531 -1.2844486525 0.0000000000 0.0000000000 0.0000000000 544.2331682286 0.2611305659 -1.6659906865
-0.0775102200 -1.2981287312 0.0000000000 0.0000000000 0.0000000000 568.8042363262 0.2611305659 -1.6659906865
-0.1067313895 -1.3273499008 0.0000000000 0.0000000000 0.0000000000 618.1992980498 0.2611305659 -1.6659906865
-0.1204114683 -1.3428410677 0.0000000000 0.0000000000 0.0000000000 642.9124437267 0.2611305659 -1.6659906865
-0.1334396889 -1.3588843303 0.0000000000 0.0000000000 0.0000000000 667.5514197023 0.2611305659 -1.6659906865
-0.1457937928 -1.3754522789 0.0000000000 0.0000000000 0.0000000000 692.0467112676 0.2611305659 -1.6659906865
-0.1574526733 -1.3925166076 0.0000000000 0.0000000000 0.0000000000 716.3271446431 0.2611305659 -1.6659906865
-0.1683964114 -1.4100481621 0.0000000000 0.0000000000 0.0000000000 740.3237755873 0.2611305659 -1.6659906865
-0.1786063098 -1.4280169901 0.0000000000 0.0000000000 0.0000000000 763.9740340703 0.2611305659 -1.6659906865
-0.1880649251 -1.4463923922 0.0000000000 0.0000000000 0.0000000000 787.2247895776 0.2611305659 -1.6659906865
-0.1967560975 -1.4651429743 0.0000000000 0.0000000000 0.0000000000 810.0325393124 0.2611305659 -1.6659906865
-0.2046649782 -1.4842367014 0.0000000000 0.0000000000 0.0000000000 832.3588022826 0.2611305659 -1.6659906865
-0.2117780550 -1.5036409521 0.0000000000 0.0000000000 0.0000000000 854.1592889125 0.2611305659 -1.6659906865
-0.2180831754 -1.5233225745 0.0000000000 0.0000000000 0.0000000000 875.3666852101 0.2611305659 -1.6659906865
-0.2235695671 -1.5432479431 0.0000000000 0.0000000000 0.0000000000 895.8688255444 0.2611305659 -1.6659906865
-0.2282278568 -1.5633830156 0.0000000000 0.0000000000 0.0000000000 915.4860730103 0.2611305659 -1.6659906865
-0.2320500858 -1.5836933915 0.0000000000 0.0000000000 0.0000000000 933.9530011568 0.2611305659 -1.6659906865
-0.2350297240 -1.6041443710 0.0000000000 0.0000000000 0.0000000000 950.9091993229 0.2611305659 -1.6659906865
-0.2371616806 -1.6247010139 0.0000000000 0.0000000000 0.0000000000 965.9020501304 0.2611305659 -1.6659906865
-0.2384423133 -1.6453281996 0.0000000000 0.0000000000 0.0000000000 978.4013293427 0.2611305659 -1.6659906865
-0.2388694341 -1.6659906867 0.0000000000 0.0000000000 0.0000000000 987.8226509056 0.2611305659 -1.6659906865
-0.2384423133 -1.6866531738 0.0000000000 0.0000000000 0.0000000000 993.5551791068 0.2611305659 -1.6659906865
-0.2371616806 -1.7072803594 0.0000000000 0.0000000000 0.0000000000 994.9890334477 0.2611305659 -1.6659906865
-0.2350297239 -1.7278370023 0.0000000000 0.0000000000 0.0000000000 991.5390493425 0.2611305659 -1.6659906865
-0.2320500858 -1.7482879818 0.0000000000 0.0000000000 0.0000000000 982.6632665187 0.2611305659 -1.6659906865
-0.2282278567 -1.7685983578 0.0000000000 0.0000000000 0.0000000000 967.8760050313 0.2611305659 -1.6659906865
-0.2235695670 -1.7887334303 0.0000000000 0.0000000000 0.0000000000 946.7563062398 0.2611305659 -1.6659906865
-0.2180831753 -1.8086587988 0.0000000000 0.0000000000 0.0000000000 918.9528567614 0.2611305659 -1.6659906865
-0.2117780549 -1.8283404213 0.0000000000 0.0000000000 0.0000000000 884.1864628207 0.2611305659 -1.6659906865
-0.2046649780 -1.8477446720 0.0000000000 0.0000000000 0.0000000000 842.2509110217 0.2611305659 -1.6659906865
-0.1967560973 -1.8668383990 0.0000000000 0.0000000000 0.0000000000 793.0127935529 0.2611305659 -1.6659906865
-0.1880649249 -1.8855889811 0.0000000000 0.0000000000 0.0000000000 736.4106576233 0.2611305659 -1.6659906865
-0.1786063096 -1.9039643832 0.0000000000 0.0000000000 0.0000000000 672.4536909165 0.2611305659 -1.6659906865
-0.1683964112 -1.9219332112 0.0000000000 0.0000000000 0.0000000000 601.2200472148 0.2611305659 -1.6659906865
-0.1574526731 -1.9394647657 0.0000000000 0.0000000000 0.0000000000 522.8548748818 0.2611305659 -1.6659906865
-0.1457937926 -1.9565290944 0.0000000000 0.0000000000 0.0000000000 437.5680480788 0.2611305659 -1.6659906865
-0.1334396886 -1.9730970430 0.0000000000 0.0000000000 0.0000000000 345.6316438323 0.2611305659 -1.6659906865
-0.1204114680 -1.9891403056 0.0000000000 0.0000000000 0.0000000000 247.3770959327 0.2611305659 -1.6659906865
-0.1067313893 -2.0046314725 0.0000000000 0.0000000000 0.0000000000 143.1921583320 0.2611305659 -1.6659906865
-0.0775102197 -2.0338526420 0.0000000000 0.0000000000 0.0000000000 -81.1570850727 0.2611305659 -1.6659906865
-0.0620190528 -2.0475327208 0.0000000000 0.0000000000 0.0000000000 -200.2961341983 0.2611305659 -1.6659906865
-0.0459757902 -2.0605609413 0.0000000000 0.0000000000 0.0000000000 -323.3231234580 0.2611305659 -1.6659906865
-0.0294078416 -2.0729150453 0.0000000000 0.0000000000 0.0000000000 -449.6246742001 0.2611305659 -1.6659906865
-0.0123435129 -2.0845739258 0.0000000000 0.0000000000 0.0000000000 -578.5551561276 0.2611305659 -1.6659906865
0.0051880416 -2.0955176638 0.0000000000 0.0000000000 0.0000000000 -709.4415854751 0.2611305659 -1.6659906865
0.0231568696 -2.1057275622 0.0000000000 0.0000000000 0.0000000000 -841.5886202618 0.2611305659 -1.6659906865
0.0415322717 -2.1151861776 0.0000000000 0.0000000000 0.0000000000 -974.2837915133 0.2611305659 -1.6659906865
0.0602828538 -2.1238773499 0.0000000000 0.0000000000 0.0000000000 -1106.8028433646 0.2611305659 -1.6659906865
0.0793765809 -2.1317862306 0.0000000000 0.0000000000 0.0000000000 -1238.4152248999 0.2611305659 -1.6659906865
0.0987808316 -2.1388993074 0.0000000000 0.0000000000 0.0000000000 -1368.3896691762 0.2611305659 -1.6659906865
0.1184624541 -2.1452044278 0.0000000000 0.0000000000 0.0000000000 -1495.9998570720 0.2611305659 -1.6659906865
0.1383878226 -2.1506908195 0.0000000000 0.0000000000 0.0000000000 -1620.5301118932 0.2611305659 -1.6659906865
0.1585228951 -2.1553491092 0.0000000000 0.0000000000 0.0000000000 -1741.2810859303 0.2611305659 -1.6659906865
0.1788332711 -2.1591713382 0.0000000000 0.0000000000 0.0000000000 -1857.5753756442 0.2611305659 -1.6659906865
0.1992842506 -2.1621509764 0.0000000000 0.0000000000 0.0000000000 -1968.7630139321 0.2611305659 -1.6659906865
0.2198408935 -2.1642829330 0.0000000000 0.0000000000 0.0000000000 -2074.2267812665 0.2611305659 -1.6659906865
0.2404680791 -2.1655635657 0.0000000000 0.0000000000 0.0000000000 -2173.3872924020 0.2611305659 -1.6659906865
0.2611305662 -2.1659906865 0.0000000000 0.0000000000 0.0000000000 -2265.7078101336 0.2611305659 -1.6659906865
0.2817930533 -2.1655635657 0.0000000000 0.0000000000 0.0000000000 -2350.6987369402 0.2611305659 -1.6659906865
0.3024202390 -2.1642829330 0.0000000000 0.0000000000 0.0000000000 -2427.9217842296 0.2611305659 -1.6659906865
0.3229768819 -2.1621509763 0.0000000000 0.0000000000 0.0000000000 -2496.9936315875 0.2611305659 -1.6659906865
0.3434278614 -2.1591713381 0.0000000000 0.0000000000 0.0000000000 -2557.5894303813 0.2611305659 -1.6659906865
0.3637382373 -2.1553491091 0.0000000000 0.0000000000 0.0000000000 -2609.4450854726 0.2611305659 -1.6659906865
0.3838733098 -2.1506908194 0.0000000000 0.0000000000 0.0000000000 -2652.3604921609 0.2611305659 -1.6659906865
0.4037986783 -2.1452044276 0.0000000000 0.0000000000 0.0000000000 -2686.1990893774 0.2611305659 -1.6659906865
0.4234803008 -2.1388993072 0.0000000000 0.0000000000 0.0000000000 -2710.8916681718 0.2611305659 -1.6659906865
0.4428845515 -2.1317862304 0.0000000000 0.0000000000 0.0000000000 -2726.4331642035 0.2611305659 -1.6659906865
0.4619782785 -2.1238773497 0.0000000000 0.0000000000 0.0000000000 -2732.8792434342 0.2611305659 -1.6659906865
0.4807288606 -2.1151861773 0.0000000000 0.0000000000 0.0000000000 -2730.3702811111 0.2611305659 -1.6659906865
0.4991042627 -2.1057275619 0.0000000000 0.0000000000 0.0000000000 -2719.0302846952 0.2611305659 -1.6659906865
0.5170730907 -2.0955176635 0.0000000000 0.0000000000 0.0000000000 -2699.2477297922 0.2611305659 -1.6659906865
0.5346046453 -2.0845739254 0.0000000000 0.0000000000 0.0000000000 -2670.9665537670 0.2611305659 -1.6659906865
0.5516689739 -2.0729150449 0.0000000000 0.0000000000 0.0000000000 -2635.2081863462 0.2611305659 -1.6659906865
0.5682369225 -2.0605609410 0.0000000000 0.0000000000 0.0000000000 -2591.2421024636 0.2611305659 -1.6659906865
0.5842801851 -2.0475327204 0.0000000000 0.0000000000 0.0000000000 -2540.5683746362 0.2611305659 -1.6659906865
0.5997713520 -2.0338526416 0.0000000000 0.0000000000 0.0000000000 -2485.0630275100 0.2611305659 -1.6659906865
0.8168457048 -2.1672670630 0.0000000000 1.0384610229 0.5037539558 -1114.6530299633 0.2670568006 -1.6571375101
0.8351660342 -2.1457705933 0.0000000000 0.9945925628 0.5047662684 -1090.6728550289 0.2666872415 -1.6565550352
0.8526861889 -2.1236038283 0.0000000000 0.9509264452 0.5034277235 -1064.9024291866 0.2663125768 -1.6559864773
0.8693826774 -2.1008001610 0.0000000000 0.9076472228 0.4998244733 -1037.5824913442 0.2659343422 -1.6554350222
0.8852332472 -2.0773941950 0.0000000000 0.8649246332 0.4940463424 -1008.9021734905 0.2655541662 -1.6549041519
0.9002167539 -2.0534214814 0.0000000000 0.8229230094 0.4861997848 -979.0630372712 0.2651736042 -1.6543974244
0.9143131035 -2.0289183529 0.0000000000 0.7817976605 0.4764032051 -948.2640443632 0.2647940505 -1.6539183533
0.9275032388 -2.0039217965 0.0000000000 0.7416936653 0.4647854381 -916.7019764715 0.2644166935 -1.6534703257
0.9397691545 -1.9784693459 0.0000000000 0.7027443521 0.4514833018 -884.5688027742 0.2640425033 -1.6530565419
0.9510939379 -1.9525989868 0.0000000000 0.6650700465 0.4366392349 -852.0497716766 0.2636722459 -1.6526799689
0.9614618261 -1.9263490682 0.0000000000 0.6287770228 0.4203990007 -819.3216152028 0.2633065145 -1.6523433003
0.9708582688 -1.8997582189 0.0000000000 0.5939566850 0.4029096133 -786.5510604521 0.2629457710 -1.6520489228
0.9792699906 -1.8728652660 0.0000000000 0.5606849700 0.3843175602 -753.8936488143 0.2625903861 -1.6517988855
0.9866850456 -1.8457091568 0.0000000000 0.5290219626 0.3647673534 -721.4928599729 0.2622406757 -1.6515948733
0.9930928628 -1.8183288831 0.0000000000 0.4990117121 0.3444003997 -689.4795085784 0.2618969286 -1.6514381830
0.9984842820 -1.7907634093 0.0000000000 0.4706822451 0.3233541388 -657.9713705524 0.2615594270 -1.6513297043
1.0028515798 -1.7630516030 0.0000000000 0.4440457773 0.3017613869 -627.0729947138 0.2612284601 -1.6512699037
1.0061884880 -1.7352321704 0.0000000000 0.4190991291 0.2797498113 -596.8756615330 0.2609043305 -1.6512588137
1.0084902041 -1.7073435946 0.0000000000 0.3958243527 0.2574414698 -567.4574603072 0.2605873561 -1.6512960248
1.0097533941 -1.6794240786 0.0000000000 0.3741895726 0.2349523633 -538.8834659102 0.2602778655 -1.6513806832
1.0099761887 -1.6515114915 0.0000000000 0.3541500365 0.2123919656 -511.2060047453 0.2599761887 -1.6515114918
1.0091581723 -1.6236433206 0.0000000000 0.3356493616 0.1898627170 -484.4650063191 0.2596826437 -1.6516867166
1.0073003659 -1.5958566266 0.0000000000 0.3186209563 0.1674594889 -458.6884432322 0.2593975180 -1.6519041971
1.0044052060 -1.5681880060 0.0000000000 0.3029895936 0.1452690645 -433.8928706503 0.2591210486 -1.6521613633
1.0004765201 -1.5406735587 0.0000000000 0.2886731180 0.1233697344 -410.0840881009 0.2588534005 -1.6524552585
0.9955195003 -1.5133488641 0.0000000000 0.2755842787 0.1018311805 -387.2579590856 0.2585946454 -1.6527825697
0.9895406777 -1.4862489665 0.0000000000 0.2636326823 0.0807148738 -365.4014261391 0.2583447437 -1.6531396672
0.9825478973 -1.4594083712 0.0000000000 0.2527268084 0.0600751080 -344.4937292904 0.2581035276 -1.6535226552
0.9745502942 -1.4328610532 0.0000000000 0.2427758868 0.0399602693 -324.5077525731 0.2578706900 -1.6539274342
0.9655582713 -1.4066404787 0.0000000000 0.2336911592 0.0204126977 -305.4112901067 0.2576457736 -1.6543497753
0.9555834755 -1.3807796401 0.0000000000 0.2253857296 0.0014634169 -287.1679056151 0.2574281641 -1.6547854086
0.9446387734 -1.3553111027 0.0000000000 0.2177720997 -0.0168842129 -269.7370969495 0.2572170815 -1.6552301211
0.9327382229 -1.3302670600 0.0000000000 0.2107570853 -0.0346881586 -253.0738234791 0.2570115720 -1.6556798645
0.9198970420 -1.3056793959 0.0000000000 0.2042355620 -0.0521197890 -237.1281117544 0.2568104969 -1.6561308673
0.9061315745 -1.2815797486 0.0000000000 0.1980872773 -0.0695216207 -221.8460959377 0.2566125217 -1.6565797487
0.8914592581 -1.2579995742 0.0000000000 0.1921834551 -0.0874363052 -207.1738261960 0.2564161088 -1.6570236317
0.8758986013 -1.2349702085 0.0000000000 0.1864094675 -0.1065523789 -193.0639395402 0.2562195207 -1.6574602521
0.8594691751 -1.2125229270 0.0000000000 0.1807038450 -0.1275128726 -179.4829772148 0.2560208403 -1.6578880662
0.8421916088 -1.1906890104 0.0000000000 0.1751025352 -0.1505743635 -166.4149957926 0.2558179970 -1.6583063619
0.8240875394 -1.1694998304 0.0000000000 0.1697648001 -0.1751912769 -153.8569844811 0.2556087471 -1.6587153889
0.8051793394 -1.1489869560 0.0000000000 0.1649641170 -0.1996971554 -141.8102502418 0.2553904355 -1.6591165094
0.7629695302 -1.1080522205 0.0000000000 0.1578436238 -0.2379092889 -117.8897282890 0.2550083515 -1.6598451536
0.7395712078 -1.0878586816 0.0000000000 0.1560541158 -0.2429290030 -105.8396688792 0.2548467795 -1.6601717328
0.7153374991 -1.0686341441 0.0000000000 0.1553031342 -0.2347853652 -93.8773247628 0.2546779646 -1.6604895262
0.6903123886 -1.0504110657 0.0000000000 0.1551286452 -0.2149809164 -81.7626424217 0.2545047771 -1.6607976037
0.6645409676 -1.0332208494 0.0000000000 0.1551005588 -0.1877635484 -69.2573066765 0.2543298491 -1.6610957082
0.6380695478 -1.0170934182 0.0000000000 0.1549985080 -0.1584302971 -56.1681072202 0.2541557611 -1.6613838840
0.6109457056 -1.0020570586 0.0000000000 0.1548398359 -0.1313290860 -42.3914770440 0.2539851609 -1.6616623721
0.5832182461 -0.9881383197 0.0000000000 0.1547693435 -0.1086629401 -27.9286840948 0.2538208045 -1.6619315562
0.5549371106 -0.9753619143 0.0000000000 0.1549180104 -0.0905619486 -12.8554730890 0.2536655422 -1.6621919093
0.5261532454 -0.9637506210 0.0000000000 0.1553315505 -0.0760058164 2.7323616737 0.2535222676 -1.6624439371
0.4969184464 -0.9533251966 0.0000000000 0.1559849772 -0.0637883675 18.7605607080 0.2533938446 -1.6626881279
0.4672851943 -0.9441043015 0.0000000000 0.1568304202 -0.0530128368 35.1874932943 0.2532830262 -1.6629249134
0.4373064913 -0.9361044415 0.0000000000 0.1578279110 -0.0431376183 51.9943096681 0.2531923761 -1.6631546409
0.4070357066 -0.9293399191 0.0000000000 0.1589504207 -0.0338454559 69.1723608308 0.2531242001 -1.6633775531
0.3765264353 -0.9238227977 0.0000000000 0.1601786337 -0.0249307118 86.7167857125 0.2530804927 -1.6635937753
0.3458323720 -0.9195628743 0.0000000000 0.1614968956 -0.0162444751 104.6249732254 0.2530628987 -1.6638033091
0.3150071986 -0.9165676633 0.0000000000 0.1628917401 -0.0076716656 122.8964281792 0.2530726896 -1.6640060331
0.2841044835 -0.9148423915 0.0000000000 0.1643513138 0.0008809149 141.5326169774 0.2531107529 -1.6642017103
0.2531775905 -0.9143900022 0.0000000000 0.1658649524 0.0094923198 160.5367450696 0.2531775907 -1.6643900022
0.2222795936 -0.9152111690 0.0000000000 0.1674228499 0.0182327140 179.9135718821 0.2532733244 -1.6645704878
0.1914631962 -0.9173043156 0.0000000000 0.1690158142 0.0271671024 199.6692714756 0.2533977055 -1.6647426853
0.1607806532 -0.9206656388 0.0000000000 0.1706350849 0.0363581567 219.8113305645 0.2535501268 -1.6649060736
0.1302836951 -0.9252891342 0.0000000000 0.1722722855 0.0458687446 240.3484662290 0.2537296380 -1.6650601118
0.1000234537 -0.9311666227 0.0000000000 0.1739195984 0.0557649378 261.2905082679 0.2539349605 -1.6652042567
0.0700503904 -0.9382877777 0.0000000000 0.1755696535 0.0661187494 282.6482206933 0.2541645060 -1.6653379771
0.0404142267 -0.9466401555 0.0000000000 0.1772140447 0.0770063120 304.4332212598 0.2544163950 -1.6654607673
0.0111638772 -0.9562092289 0.0000000000 0.1788419463 0.0885018384 326.6583494380 0.2546884793 -1.6655721601
-0.0176526130 -0.9669784272 0.0000000000 0.1804461235 0.1006927368 349.3387990293 0.2549783651 -1.6656717432
-0.0459881279 -0.9789291815 0.0000000000 0.1820411732 0.1137583505 372.4938295393 0.2552834408 -1.6657591764
-0.0737965359 -0.9920409765 0.0000000000 0.1836753775 0.1280840689 396.1471152941 0.2556009060 -1.6658342128
-0.1010327387 -1.0062914079 0.0000000000 0.1853911822 0.1442059105 420.3206179687 0.2559278062 -1.6658967212
-0.1276527160 -1.0216562420 0.0000000000 0.1871112628 0.1622831460 445.0162300808 0.2562610710 -1.6659467077
-0.1536135622 -1.0381094772 0.0000000000 0.1885163571 0.1810573826 470.1885865086 0.2565975566 -1.6659843357
-0.1788735163 -1.0556234034 0.0000000000 0.1890587746 0.1968536895 495.7300408603 0.2569340954 -1.6660099412
-0.2033919852 -1.0741686592 0.0000000000 0.1882032488 0.2035780292 521.4886206973 0.2572675495 -1.6660240411
-0.2271295585 -1.0937142847 0.0000000000 0.1858059972 0.1942796728 547.3006696606 0.2575948700 -1.6660273357
-0.2500480185 -1.1142277730 0.0000000000 0.1823926281 0.1638042714 572.9939079617 0.2579131604 -1.6660207058
-0.2932806243 -1.1580204875 0.0000000000 0.1774252388 0.0406262201 623.1414835681 0.2585123089 -1.6659816660
-0.3135243034 -1.1812272863 0.0000000000 0.1784796684 -0.0399052655 647.0655089164 0.2587887480 -1.6659517145
-0.3328079537 -1.2052571122 0.0000000000 0.1828368319 -0.1210925546 669.8896238173 0.2590474285 -1.6659166465
-0.3510993709 -1.2300702123 0.0000000000 0.1903401198 -0.1952447847 691.4370835047 0.2592871672 -1.6658778237
-0.3683676091 -1.2556255036 0.0000000000 0.2003534624 -0.2580921690 711.6089543916 0.2595072497 -1.6658366220
-0.3845830317 -1.2818806041 0.0000000000 0.2121211047 -0.3090088756 730.3885334817 0.2597074342 -1.6657943907
-0.3997173798 -1.3087918747 0.0000000000 0.2250590467 -0.3499665155 747.8357746814 0.2598879337 -1.6657524192
-0.4137438593 -1.3363144685 0.0000000000 0.2388733946 -0.3840324404 764.0557201553 0.2600493772 -1.6657119099
-0.4266372425 -1.3644023894 0.0000000000 0.2535245982 -0.4141384057 779.1451007151 0.2601927526 -1.6656739576
-0.4383739792 -1.3930085583 0.0000000000 0.2691212316 -0.4424375828 793.1454673969 0.2603193370 -1.6656395359
-0.4489323108 -1.4220848871 0.0000000000 0.2858195764 -0.4701923661 806.0254031338 0.2604306206 -1.6656094887
-0.4582923806 -1.4515823601 0.0000000000 0.3037641603 -0.4979635191 817.6907820099 0.2605282313 -1.6655845281
-0.4664363345 -1.4814511202 0.0000000000 0.3230684016 -0.5258808232 828.0076054335 0.2606138650 -1.6655652353
-0.4733484073 -1.5116405589 0.0000000000 0.3438185844 -0.5538663117 836.8231651500 0.2606892267 -1.6655520652
-0.4790149929 -1.5420994088 0.0000000000 0.3660846950 -0.5817704061 843.9792455544 0.2607559847 -1.6655453513
-0.4834246972 -1.5727758380 0.0000000000 0.3899286893 -0.6094337155 849.3176234139 0.2608157376 -1.6655453111
-0.4865683746 -1.6036175437 0.0000000000 0.4154075169 -0.6367039100 852.6809210694 0.2608699951 -1.6655520525
-0.4884391504 -1.6345718478 0.0000000000 0.4425720004 -0.6634331501 853.9119068439 0.2609201684 -1.6655655782
-0.4890324316 -1.6655857917 0.0000000000 0.4714636928 -0.6894712319 852.8532003492 0.2609675684 -1.6655857914
-0.4883459082 -1.6966062314 0.0000000000 0.5021113928 -0.7146607627 849.3481355210 0.2610134106 -1.6656125004
-0.4863795481 -1.7275799332 0.0000000000 0.5345281811 -0.7388355822 843.2427437264 0.2610588217 -1.6656454238
-0.4831355858 -1.7584536692 0.0000000000 0.5687092232 -0.7618216240 834.3884865130 0.2611048490 -1.6656841955
-0.4786185065 -1.7891743138 0.0000000000 0.6046302813 -0.7834391127 822.6453370802 0.2611524710 -1.6657283707