 TITLE = "Tecplot data"
 VARIABLES = "X", "Y", "Z" "U", "V", "p", "dispX", "dispY"
 ZONE SOLUTIONTIME=141.900000, NODES=26114 , ELEMENTS=25916, DATAPACKING=POINT, ZONETYPE=FEQUADRILATERAL
0.4084089067 0.4084089067 0.0000000000 0.0013632816 0.0013632816 -370.1539554613 0.0548555161 0.0548555161
0.4084089070 -0.2986978742 0.0000000000 0.0013632816 0.0013632816 -518.1056585176 0.0548555161 0.0548555161
-0.2986978746 0.4084089066 0.0000000000 0.0013632816 0.0013632816 -90.8316618969 0.0548555161 0.0548555161
-0.2986978743 -0.2986978747 0.0000000000 0.0013632816 0.0013632816 -270.9388832882 0.0548555161 0.0548555161
0.5806104257 0.5806663090 0.0000000000 0.1619971965 -0.0509685523 -369.8903276981 0.0502803398 0.0503362231
0.5758093027 -0.4847598085 0.0000000000 0.4831369967 0.0168200943 -494.5373622765 0.0454792165 0.0455702770
-0.4851475195 0.5756753272 0.0000000000 0.8289976765 0.4604585152 97.0135449451 0.0451825666 0.0453452415
-0.4804432073 -0.4799595364 0.0000000000 0.9301367396 -0.5191522572 -14.4855893890 0.0498868783 0.0503705497
1.1005512824 1.1006255215 0.0000000000 1.1837615328 0.0609714044 -99.4169038244 0.0398911107 0.0399653496
1.0927941745 -1.0281894784 0.0000000000 1.2230866661 0.2057026855 -261.3032961547 0.0321340020 0.0324706926
-1.0293121871 1.0924739706 0.0000000000 0.9345813343 0.1527366762 103.2153579355 0.0313479850 0.0318137991
-1.0219667320 -1.0207412506 0.0000000000 0.9801169039 -0.1647158049 52.7916927740 0.0386934392 0.0399189217
4.2205883341 3.3180728369 0.0000000000 0.9967017016 -0.0120167648 28.0364432310 0.0205883341 0.0180728369
4.2123653878 -3.2890298555 0.0000000000 1.0420065753 0.0111478180 22.5948154348 0.0123653878 0.0109701445
20.0000000000 4.7000000000 0.0000000000 1.0412099864 0.0308016628 0.0751103815 0.0000000000 0.0000000000
20.0000000000 -4.7000000000 0.0000000000 1.0420484809 -0.0356352799 0.2287886946 0.0000000000 0.0000000000
-10.0000000000 15.0000000000 0.0000000000 1.0000000000 0.0000000000 38.4042681555 0.0000000000 0.0000000000
20.0000000000 15.0000000000 0.0000000000 1.0319753350 0.0000000000 0.0252160640 0.0000000000 0.0000000000
20.0000000000 -15.0000000000 0.0000000000 1.0316664450 0.0000000000 0.0231525192 0.0000000000 0.0000000000
-10.0000000000 -15.0000000000 0.0000000000 1.0000000000 0.0000000000 27.8149893994 0.0000000000 0.0000000000
0.4213814523 -0.2852308525 0.0000000000 0.0013632816 0.0013632816 -515.0572106405 0.0548555161 0.0548555161
0.4338413779 -0.2712881893 0.0000000000 0.0013632816 0.0013632816 -513.2169099974 0.0548555161 0.0548555161
0.4457712576 -0.2568893846 0.0000000000 0.0013632816 0.0013632816 -512.6138748085 0.0548555161 0.0548555161
0.4571544062 -0.2420545764 0.0000000000 0.0013632816 0.0013632816 -513.0979660094 0.0548555161 0.0548555161
0.4679749035 -0.2268045127 0.0000000000 0.0013632816 0.0013632816 -514.5360946694 0.0548555161 0.0548555161
0.4782176159 -0.2111605219 0.0000000000 0.0013632816 0.0013632816 -516.7247089237 0.0548555161 0.0548555161
0.4878682182 -0.1951444836 0.0000000000 0.0013632816 0.0013632816 -519.4881849202 0.0548555161 0.0548555161
0.4969132130 -0.1787787978 0.0000000000 0.0013632816 0.0013632816 -522.6509429857 0.0548555161 0.0548555161
0.5053399502 -0.1620863532 0.0000000000 0.0013632816 0.0013632816 -526.0490930453 0.0548555161 0.0548555161
0.5131366442 -0.1450904958 0.0000000000 0.0013632816 0.0013632816 -529.5088283111 0.0548555161 0.0548555161
0.5202923905 -0.1278149958 0.0000000000 0.0013632816 0.0013632816 -532.8386286642 0.0548555161 0.0548555161
0.5267971814 -0.1102840146 0.0000000000 0.0013632816 0.0013632816 -535.8208932271 0.0548555161 0.0548555161
0.5326419191 -0.0925220708 0.0000000000 0.0013632816 0.0013632816 -538.2134023119 0.0548555161 0.0548555161
0.5378184293 -0.0745540062 0.0000000000 0.0013632816 0.0013632816 -539.7564759805 0.0548555161 0.0548555161
0.5423194723 -0.0564049506 0.0000000000 0.0013632816 0.0013632816 -540.1870407656 0.0548555161 0.0548555161
0.5461387528 -0.0381002872 0.0000000000 0.0013632816 0.0013632816 -539.2571995418 0.0548555161 0.0548555161
0.5492709293 -0.0196656167 0.0000000000 0.0013632816 0.0013632816 -536.7556234987 0.0548555161 0.0548555161
0.5517116211 -0.0011267217 0.0000000000 0.0013632816 0.0013632816 -532.5288334273 0.0548555161 0.0548555161
0.5534574147 0.0174904695 0.0000000000 0.0013632816 0.0013632816 -526.4994970262 0.0548555161 0.0548555161
0.5545058685 0.0361599192 0.0000000000 0.0013632816 0.0013632816 -518.6788839778 0.0548555161 0.0548555161
0.5548555161 0.0548555163 0.0000000000 0.0013632816 0.0013632816 -509.1714541667 0.0548555161 0.0548555161
0.5545058685 0.0735511135 0.0000000000 0.0013632816 0.0013632816 -498.1705943291 0.0548555161 0.0548555161
0.5534574147 0.0922205631 0.0000000000 0.0013632816 0.0013632816 -485.9460498416 0.0548555161 0.0548555161
0.5517116210 0.1108377543 0.0000000000 0.0013632816 0.0013632816 -472.8246606348 0.0548555161 0.0548555161
0.5492709292 0.1293766494 0.0000000000 0.0013632816 0.0013632816 -459.1674601075 0.0548555161 0.0548555161
0.5461387527 0.1478113199 0.0000000000 0.0013632816 0.0013632816 -445.3458119886 0.0548555161 0.0548555161
0.5423194722 0.1661159832 0.0000000000 0.0013632816 0.0013632816 -431.7205653562 0.0548555161 0.0548555161
0.5378184292 0.1842650388 0.0000000000 0.0013632816 0.0013632816 -418.6247487656 0.0548555161 0.0548555161
0.5326419190 0.2022331035 0.0000000000 0.0013632816 0.0013632816 -406.3539436618 0.0548555161 0.0548555161
0.5267971812 0.2199950472 0.0000000000 0.0013632816 0.0013632816 -395.1585758123 0.0548555161 0.0548555161
0.5202923904 0.2375260284 0.0000000000 0.0013632816 0.0013632816 -385.2464368972 0.0548555161 0.0548555161
0.5131366440 0.2548015284 0.0000000000 0.0013632816 0.0013632816 -376.7759224760 0.0548555161 0.0548555161
0.5053399500 0.2717973858 0.0000000000 0.0013632816 0.0013632816 -369.8682919518 0.0548555161 0.0548555161
0.4969132128 0.2884898303 0.0000000000 0.0013632816 0.0013632816 -364.5830921607 0.0548555161 0.0548555161
0.4878682180 0.3048555162 0.0000000000 0.0013632816 0.0013632816 -360.9517387251 0.0548555161 0.0548555161
0.4782176157 0.3208715545 0.0000000000 0.0013632816 0.0013632816 -358.9024627989 0.0548555161 0.0548555161
0.4679749032 0.3365155452 0.0000000000 0.0013632816 0.0013632816 -358.3745805259 0.0548555161 0.0548555161
0.4571544060 0.3517656090 0.0000000000 0.0013632816 0.0013632816 -359.1093150795 0.0548555161 0.0548555161
0.4457712573 0.3666004171 0.0000000000 0.0013632816 0.0013632816 -361.0201600973 0.0548555161 0.0548555161
0.4338413776 0.3809992218 0.0000000000 0.0013632816 0.0013632816 -363.5901143722 0.0548555161 0.0548555161
0.4213814520 0.3949418850 0.0000000000 0.0013632816 0.0013632816 -366.9409874823 0.0548555161 0.0548555161
0.3934963019 0.4227174715 0.0000000000 0.0013632816 0.0013632816 -374.3381082299 0.0548555161 0.0548555161
0.3780051350 0.4363975503 0.0000000000 0.0013632816 0.0013632816 -378.0008657274 0.0548555161 0.0548555161
0.3619618724 0.4494257708 0.0000000000 0.0013632816 0.0013632816 -381.7644706552 0.0548555161 0.0548555161
0.3453939238 0.4617798748 0.0000000000 0.0013632816 0.0013632816 -385.2900996926 0.0548555161 0.0548555161
0.3283295951 0.4734387553 0.0000000000 0.0013632816 0.0013632816 -389.0018448785 0.0548555161 0.0548555161
0.3107980406 0.4843824933 0.0000000000 0.0013632816 0.0013632816 -392.9694621597 0.0548555161 0.0548555161
0.2928292126 0.4945923918 0.0000000000 0.0013632816 0.0013632816 -397.5026043004 0.0548555161 0.0548555161
0.2744538105 0.5040510071 0.0000000000 0.0013632816 0.0013632816 -402.7380673521 0.0548555161 0.0548555161
0.2557032284 0.5127421795 0.0000000000 0.0013632816 0.0013632816 -408.8341832202 0.0548555161 0.0548555161
0.2366095013 0.5206510602 0.0000000000 0.0013632816 0.0013632816 -415.8432647453 0.0548555161 0.0548555161
0.2172052506 0.5277641370 0.0000000000 0.0013632816 0.0013632816 -423.7870851072 0.0548555161 0.0548555161
0.1975236282 0.5340692574 0.0000000000 0.0013632816 0.0013632816 -432.6234789866 0.0548555161 0.0548555161
0.1775982596 0.5395556491 0.0000000000 0.0013632816 0.0013632816 -442.2691689739 0.0548555161 0.0548555161
0.1574631871 0.5442139388 0.0000000000 0.0013632816 0.0013632816 -452.5830144765 0.0548555161 0.0548555161
0.1371528112 0.5480361678 0.0000000000 0.0013632816 0.0013632816 -463.3668665765 0.0548555161 0.0548555161
0.1167018317 0.5510158060 0.0000000000 0.0013632816 0.0013632816 -474.3580128913 0.0548555161 0.0548555161
0.0961451888 0.5531477626 0.0000000000 0.0013632816 0.0013632816 -485.2317528294 0.0548555161 0.0548555161
0.0755180031 0.5544283953 0.0000000000 0.0013632816 0.0013632816 -495.6057748356 0.0548555161 0.0548555161
0.0548555160 0.5548555161 0.0000000000 0.0013632816 0.0013632816 -505.0509902015 0.0548555161 0.0548555161
0.0341930289 0.5544283953 0.0000000000 0.0013632816 0.0013632816 -513.1054638317 0.0548555161 0.0548555161
0.0135658433 0.5531477626 0.0000000000 0.0013632816 0.0013632816 -519.2917523713 0.0548555161 0.0548555161
-0.0069907996 0.5510158060 0.0000000000 0.0013632816 0.0013632816 -523.1355585289 0.0548555161 0.0548555161
-0.0274417791 0.5480361678 0.0000000000 0.0013632816 0.0013632816 -524.1846398264 0.0548555161 0.0548555161
-0.0477521551 0.5442139388 0.0000000000 0.0013632816 0.0013632816 -522.0264106507 0.0548555161 0.0548555161
-0.0678872276 0.5395556491 0.0000000000 0.0013632816 0.0013632816 -516.3032266280 0.0548555161 0.0548555161
-0.0878125961 0.5340692573 0.0000000000 0.0013632816 0.0013632816 -506.7245375305 0.0548555161 0.0548555161
-0.1074942186 0.5277641369 0.0000000000 0.0013632816 0.0013632816 -493.0755524721 0.0548555161 0.0548555161
-0.1268984693 0.5206510601 0.0000000000 0.0013632816 0.0013632816 -475.2223748191 0.0548555161 0.0548555161
-0.1459921963 0.5127421794 0.0000000000 0.0013632816 0.0013632816 -453.1138621122 0.0548555161 0.0548555161
-0.1647427784 0.5040510070 0.0000000000 0.0013632816 0.0013632816 -426.7806460953 0.0548555161 0.0548555161
-0.1831181805 0.4945923917 0.0000000000 0.0013632816 0.0013632816 -396.3318488479 0.0548555161 0.0548555161
-0.2010870085 0.4843824932 0.0000000000 0.0013632816 0.0013632816 -361.9500470757 0.0548555161 0.0548555161
-0.2186185631 0.4734387552 0.0000000000 0.0013632816 0.0013632816 -323.8849962075 0.0548555161 0.0548555161
-0.2356828917 0.4617798747 0.0000000000 0.0013632816 0.0013632816 -282.4465473891 0.0548555161 0.0548555161
-0.2522508403 0.4494257707 0.0000000000 0.0013632816 0.0013632816 -237.9970972298 0.0548555161 0.0548555161
-0.2682941029 0.4363975501 0.0000000000 0.0013632816 0.0013632816 -190.9438208596 0.0548555161 0.0548555161
-0.2837852698 0.4227174713 0.0000000000 0.0013632816 0.0013632816 -141.7308685623 0.0548555161 0.0548555161
-0.3130064393 0.3934963018 0.0000000000 0.0013632816 0.0013632816 -38.7414042052 0.0548555161 0.0548555161
-0.3266865181 0.3780051349 0.0000000000 0.0013632816 0.0013632816 14.0300888658 0.0548555161 0.0548555161
-0.3397147387 0.3619618723 0.0000000000 0.0013632816 0.0013632816 66.9651453944 0.0548555161 0.0548555161
-0.3520688426 0.3453939237 0.0000000000 0.0013632816 0.0013632816 119.5445112265 0.0548555161 0.0548555161
-0.3637277231 0.3283295950 0.0000000000 0.0013632816 0.0013632816 171.2531106872 0.0548555161 0.0548555161
-0.3746714612 0.3107980405 0.0000000000 0.0013632816 0.0013632816 221.5853025856 0.0548555161 0.0548555161
-0.3848813596 0.2928292125 0.0000000000 0.0013632816 0.0013632816 270.0496710439 0.0548555161 0.0548555161
-0.3943399749 0.2744538104 0.0000000000 0.0013632816 0.0013632816 316.1734051494 0.0548555161 0.0548555161
-0.4030311473 0.2557032283 0.0000000000 0.0013632816 0.0013632816 359.5063194866 0.0548555161 0.0548555161
-0.4109400280 0.2366095012 0.0000000000 0.0013632816 0.0013632816 399.6245548068 0.0548555161 0.0548555161
-0.4180531048 0.2172052505 0.0000000000 0.0013632816 0.0013632816 436.1339814612 0.0548555161 0.0548555161
-0.4243582252 0.1975236281 0.0000000000 0.0013632816 0.0013632816 468.6733132776 0.0548555161 0.0548555161
-0.4298446169 0.1775982595 0.0000000000 0.0013632816 0.0013632816 496.9169289702 0.0548555161 0.0548555161
-0.4345029066 0.1574631870 0.0000000000 0.0013632816 0.0013632816 520.5773923416 0.0548555161 0.0548555161
-0.4383251356 0.1371528111 0.0000000000 0.0013632816 0.0013632816 539.4076605769 0.0548555161 0.0548555161
-0.4413047738 0.1167018316 0.0000000000 0.0013632816 0.0013632816 553.2029705790 0.0548555161 0.0548555161
-0.4434367304 0.0961451887 0.0000000000 0.0013632816 0.0013632816 561.8023954259 0.0548555161 0.0548555161
-0.4447173631 0.0755180030 0.0000000000 0.0013632816 0.0013632816 565.0900658072 0.0548555161 0.0548555161
-0.4451444839 0.0548555159 0.0000000000 0.0013632816 0.0013632816 562.9960541115 0.0548555161 0.0548555161
-0.4447173631 0.0341930288 0.0000000000 0.0013632816 0.0013632816 555.4969212894 0.0548555161 0.0548555161
-0.4434367304 0.0135658432 0.0000000000 0.0013632816 0.0013632816 542.6159284372 0.0548555161 0.0548555161
-0.4413047737 -0.0069907997 0.0000000000 0.0013632816 0.0013632816 524.4229161344 0.0548555161 0.0548555161
-0.4383251356 -0.0274417792 0.0000000000 0.0013632816 0.0013632816 501.0338549853 0.0548555161 0.0548555161
-0.4345029065 -0.0477521552 0.0000000000 0.0013632816 0.0013632816 472.6100707167 0.0548555161 0.0548555161
-0.4298446168 -0.0678872277 0.0000000000 0.0013632816 0.0013632816 439.3571468312 0.0548555161 0.0548555161
-0.4243582251 -0.0878125962 0.0000000000 0.0013632816 0.0013632816 401.5235074679 0.0548555161 0.0548555161
-0.4180531047 -0.1074942187 0.0000000000 0.0013632816 0.0013632816 359.3986829658 0.0548555161 0.0548555161
-0.4109400278 -0.1268984694 0.0000000000 0.0013632816 0.0013632816 313.3112607090 0.0548555161 0.0548555161
-0.4030311471 -0.1459921964 0.0000000000 0.0013632816 0.0013632816 263.6265240687 0.0548555161 0.0548555161
-0.3943399747 -0.1647427785 0.0000000000 0.0013632816 0.0013632816 210.7437824328 0.0548555161 0.0548555161
-0.3848813594 -0.1831181806 0.0000000000 0.0013632816 0.0013632816 155.0933951884 0.0548555161 0.0548555161
-0.3746714609 -0.2010870086 0.0000000000 0.0013632816 0.0013632816 97.1334918473 0.0548555161 0.0548555161
-0.3637277229 -0.2186185631 0.0000000000 0.0013632816 0.0013632816 37.3463891533 0.0548555161 0.0548555161
-0.3520688424 -0.2356828918 0.0000000000 0.0013632816 0.0013632816 -23.7652960802 0.0548555161 0.0548555161
-0.3397147384 -0.2522508404 0.0000000000 0.0013632816 0.0013632816 -85.6828423783 0.0548555161 0.0548555161
-0.3266865178 -0.2682941030 0.0000000000 0.0013632816 0.0013632816 -147.8759343995 0.0548555161 0.0548555161
-0.3130064390 -0.2837852699 0.0000000000 0.0013632816 0.0013632816 -209.8074994974 0.0548555161 0.0548555161
-0.2837852695 -0.3130064394 0.0000000000 0.0013632816 0.0013632816 -330.7353792252 0.0548555161 0.0548555161
-0.2682941026 -0.3266865182 0.0000000000 0.0013632816 0.0013632816 -388.6721269954 0.0548555161 0.0548555161
-0.2522508400 -0.3397147387 0.0000000000 0.0013632816 0.0013632816 -444.2403912188 0.0548555161 0.0548555161
-0.2356828914 -0.3520688427 0.0000000000 0.0013632816 0.0013632816 -496.9542239881 0.0548555161 0.0548555161
-0.2186185627 -0.3637277232 0.0000000000 0.0013632816 0.0013632816 -546.3575004515 0.0548555161 0.0548555161
-0.2010870082 -0.3746714612 0.0000000000 0.0013632816 0.0013632816 -592.0312938782 0.0548555161 0.0548555161
-0.1831181802 -0.3848813596 0.0000000000 0.0013632816 0.0013632816 -633.6015233896 0.0548555161 0.0548555161
-0.1647427781 -0.3943399750 0.0000000000 0.0013632816 0.0013632816 -670.7467619143 0.0548555161 0.0548555161
-0.1459921960 -0.4030311473 0.0000000000 0.0013632816 0.0013632816 -703.2060328693 0.0548555161 0.0548555161
-0.1268984689 -0.4109400280 0.0000000000 0.0013632816 0.0013632816 -730.7863519661 0.0548555161 0.0548555161
-0.1074942182 -0.4180531048 0.0000000000 0.0013632816 0.0013632816 -753.3696881813 0.0548555161 0.0548555161
-0.0878125957 -0.4243582252 0.0000000000 0.0013632816 0.0013632816 -770.9189315297 0.0548555161 0.0548555161
-0.0678872272 -0.4298446169 0.0000000000 0.0013632816 0.0013632816 -783.4823753006 0.0548555161 0.0548555161
-0.0477521547 -0.4345029066 0.0000000000 0.0013632816 0.0013632816 -791.1961620801 0.0548555161 0.0548555161
-0.0274417787 -0.4383251356 0.0000000000 0.0013632816 0.0013632816 -794.2841252745 0.0548555161 0.0548555161
-0.0069907992 -0.4413047738 0.0000000000 0.0013632816 0.0013632816 -793.0545022772 0.0548555161 0.0548555161
0.0135658437 -0.4434367304 0.0000000000 0.0013632816 0.0013632816 -787.8931203443 0.0548555161 0.0548555161
0.0341930293 -0.4447173631 0.0000000000 0.0013632816 0.0013632816 -779.2528733679 0.0548555161 0.0548555161
0.0548555164 -0.4451444839 0.0000000000 0.0013632816 0.0013632816 -767.6396115776 0.0548555161 0.0548555161
0.0755180035 -0.4447173631 0.0000000000 0.0013632816 0.0013632816 -753.5949360082 0.0548555161 0.0548555161
0.0961451892 -0.4434367304 0.0000000000 0.0013632816 0.0013632816 -737.6767725749 0.0548555161 0.0548555161
0.1167018321 -0.4413047737 0.0000000000 0.0013632816 0.0013632816 -720.4389467675 0.0548555161 0.0548555161
0.1371528116 -0.4383251355 0.0000000000 0.0013632816 0.0013632816 -702.4111931682 0.0548555161 0.0548555161
0.1574631875 -0.4345029065 0.0000000000 0.0013632816 0.0013632816 -684.0811136252 0.0548555161 0.0548555161
0.1775982600 -0.4298446168 0.0000000000 0.0013632816 0.0013632816 -665.8793996161 0.0548555161 0.0548555161
0.1975236286 -0.4243582250 0.0000000000 0.0013632816 0.0013632816 -648.1693842195 0.0548555161 0.0548555161
0.2172052510 -0.4180531046 0.0000000000 0.0013632816 0.0013632816 -631.2411996984 0.0548555161 0.0548555161
0.2366095017 -0.4109400278 0.0000000000 0.0013632816 0.0013632816 -615.3104917897 0.0548555161 0.0548555161
0.2557032287 -0.4030311471 0.0000000000 0.0013632816 0.0013632816 -600.5198810549 0.0548555161 0.0548555161
0.2744538108 -0.3943399747 0.0000000000 0.0013632816 0.0013632816 -586.9430577103 0.0548555161 0.0548555161
0.2928292129 -0.3848813593 0.0000000000 0.0013632816 0.0013632816 -574.5883249667 0.0548555161 0.0548555161
0.3107980410 -0.3746714609 0.0000000000 0.0013632816 0.0013632816 -563.4100982114 0.0548555161 0.0548555161
0.3283295955 -0.3637277228 0.0000000000 0.0013632816 0.0013632816 -553.3206898505 0.0548555161 0.0548555161
0.3453939241 -0.3520688423 0.0000000000 0.0013632816 0.0013632816 -544.2356695624 0.0548555161 0.0548555161
0.3619618727 -0.3397147384 0.0000000000 0.0013632816 0.0013632816 -536.0874712598 0.0548555161 0.0548555161
0.3780051353 -0.3266865178 0.0000000000 0.0013632816 0.0013632816 -528.9349526886 0.0548555161 0.0548555161
0.3934963022 -0.3130064390 0.0000000000 0.0013632816 0.0013632816 -522.8102862724 0.0548555161 0.0548555161
0.5954621734 -0.4647262528 0.0000000000 0.3779895782 0.0007546547 -490.4486363619 0.0456732691 0.0454033001
0.6143578171 -0.4439649152 0.0000000000 0.2880386426 -0.0203574145 -487.0009833826 0.0458790244 0.0452506429
0.6324689841 -0.4225042118 0.0000000000 0.2180968173 -0.0470242813 -484.6276301241 0.0460953720 0.0451131392
0.6497694787 -0.4003736000 0.0000000000 0.1708706846 -0.0794844636 -483.7644723943 0.0463211436 0.0449915388
0.6662342007 -0.3776035392 0.0000000000 0.1455545708 -0.1172516705 -484.7507581281 0.0465551197 0.0448865040
0.6818391854 -0.3542254516 0.0000000000 0.1376616407 -0.1589472039 -487.7665742612 0.0467960358 0.0447986054
0.6965616424 -0.3302716798 0.0000000000 0.1405602691 -0.2025843813 -492.8251683106 0.0470425893 0.0447283198
0.7103799921 -0.3057754440 0.0000000000 0.1477643117 -0.2460823659 -499.8019774078 0.0472934467 0.0446760268
0.7232739015 -0.2807707964 0.0000000000 0.1544966300 -0.2876705058 -508.4489561449 0.0475472504 0.0446420075
0.7352243183 -0.2552925751 0.0000000000 0.1579512969 -0.3260591804 -518.3834642665 0.0478026263 0.0446264427
0.7462135024 -0.2293763558 0.0000000000 0.1567869173 -0.3604580067 -529.0851828579 0.0480581908 0.0446294121
0.7562250566 -0.2030584023 0.0000000000 0.1505625965 -0.3905220094 -539.9267852065 0.0483125588 0.0446508938
0.7652439550 -0.1763756160 0.0000000000 0.1393772881 -0.4162419980 -550.2303320996 0.0485643506 0.0446907645
0.7732565693 -0.1493654834 0.0000000000 0.1236556777 -0.4377956158 -559.3258780655 0.0488121995 0.0447488001
0.7802506936 -0.1220660231 0.0000000000 0.1040040926 -0.4554021648 -566.5970858196 0.0490547594 0.0448246770
0.7862155665 -0.0945157311 0.0000000000 0.0811178877 -0.4692212987 -571.5123801778 0.0492907115 0.0449179739
0.7911418916 -0.0667535254 0.0000000000 0.0557367713 -0.4793091982 -573.6472193368 0.0495187718 0.0450281739
0.7950218554 -0.0388186895 0.0000000000 0.0286340003 -0.4856221145 -572.7030178722 0.0497376980 0.0451546672
0.7978491437 -0.0107508151 0.0000000000 0.0006197081 -0.4880478023 -568.5248859392 0.0499462958 0.0452967548
0.7996189545 0.0174102563 0.0000000000 -0.0274576502 -0.4864479516 -561.1168137850 0.0501434259 0.0454536517
0.8003280097 0.0456244915 0.0000000000 -0.0547209091 -0.4807022298 -550.6507745159 0.0503280097 0.0456244912
0.7999745641 0.0738517261 0.0000000000 -0.0802887664 -0.4707511928 -537.4656728718 0.0504990355 0.0458083301
0.7985584115 0.1020517232 0.0000000000 -0.1033164358 -0.4566384738 -522.0527456287 0.0506555636 0.0460041528
0.7960808893 0.1301842348 0.0000000000 -0.1230518003 -0.4385520888 -505.0255465406 0.0507967319 0.0462108774
0.7925448797 0.1582090614 0.0000000000 -0.1389041011 -0.4168615131 -487.0749201816 0.0509217601 0.0464273615
0.7879548093 0.1860861133 0.0000000000 -0.1505180040 -0.3921429594 -468.9123778006 0.0510299545 0.0466524077
0.7823166454 0.2137754715 0.0000000000 -0.1578399754 -0.3651818242 -451.2087254937 0.0511207113 0.0468847708
0.7756378903 0.2412374479 0.0000000000 -0.1611575070 -0.3369403441 -434.5377499619 0.0511935207 0.0471231638
0.7679275731 0.2684326466 0.0000000000 -0.1610870067 -0.3084816333 -419.3358459097 0.0512479688 0.0473662655
0.7591962386 0.2953220237 0.0000000000 -0.1584858751 -0.2808493750 -405.8864168095 0.0512837409 0.0476127270
0.7494559343 0.3218669478 0.0000000000 -0.1542719940 -0.2549153927 -394.3324017221 0.0513006229 0.0478611793
0.7387201943 0.3480292590 0.0000000000 -0.1491542458 -0.2312235816 -384.7124432306 0.0512985024 0.0481102406
0.7270040211 0.3737713283 0.0000000000 -0.1433153723 -0.2098743742 -377.0079941491 0.0512773703 0.0483585238
0.7143238650 0.3990561156 0.0000000000 -0.1361410732 -0.1905016392 -371.1822312781 0.0512373200 0.0486046442
0.7006976007 0.4238472270 0.0000000000 -0.1261333240 -0.1723823182 -367.1900803485 0.0511785479 0.0488472268
0.6861445015 0.4481089714 0.0000000000 -0.1111304170 -0.1546779658 -364.9476208927 0.0511013521 0.0490849139
0.6706852120 0.4718064161 0.0000000000 -0.0888357885 -0.1367419971 -364.2728620915 0.0510061313 0.0493163725
0.6543417172 0.4949054409 0.0000000000 -0.0574674517 -0.1183713638 -364.8378999087 0.0508933824 0.0495403017
0.6371373103 0.5173727912 0.0000000000 -0.0162199844 -0.0998854892 -366.1772133186 0.0507636985 0.0497554397
0.6190965578 0.5391761296 0.0000000000 0.0346932216 -0.0819915467 -367.7642289923 0.0506177655 0.0499605711
0.6002452628 0.5602840867 0.0000000000 0.0944134069 -0.0654942888 -369.1192694171 0.0504563590 0.0501545333
0.5580310725 0.6023144773 0.0000000000 0.2452387396 -0.0372790654 -370.0092830938 0.0500698938 0.0505215443
0.5345685552 0.6230023580 0.0000000000 0.3371634633 -0.0253927690 -369.2205275599 0.0498441269 0.0506893068
0.5102640578 0.6426937097 0.0000000000 0.4374560851 -0.0140102817 -367.7826449141 0.0496045233 0.0508383276
0.4851602741 0.6613540863 0.0000000000 0.5448433781 -0.0016656064 -365.9632676094 0.0493526626 0.0509675482
0.4593013272 0.6789509004 0.0000000000 0.6564474321 0.0127805749 -364.0121833454 0.0490902087 0.0510760416
0.4327326865 0.6954534852 0.0000000000 0.7679230278 0.0298265568 -362.1020099811 0.0488188997 0.0511630194
0.4055010806 0.7108331508 0.0000000000 0.8742854657 0.0493056090 -360.2974460271 0.0485405360 0.0512278373
0.3776544097 0.7250632369 0.0000000000 0.9709689881 0.0705810102 -358.5614885412 0.0482569682 0.0512700005
0.3492416538 0.7381191617 0.0000000000 1.0546491855 0.0928148352 -356.7909036656 0.0479700854 0.0512891667
0.3203127798 0.7499784658 0.0000000000 1.1236123349 0.1152011760 -354.8581324515 0.0476818020 0.0512851497
0.2909186470 0.7606208523 0.0000000000 1.1776966631 0.1371174926 -352.6409394125 0.0473940452 0.0512579210
0.2611109099 0.7700282219 0.0000000000 1.2179505924 0.1581892806 -350.0347004257 0.0471087418 0.0512076101
0.2309419203 0.7781847043 0.0000000000 1.2461729168 0.1782835080 -346.9514434350 0.0468278051 0.0511345048
0.2004646284 0.7850766836 0.0000000000 1.2644682923 0.1974556706 -343.3119861086 0.0465531219 0.0510390496
0.1697324822 0.7906928206 0.0000000000 1.2749001182 0.2158771308 -339.0364281082 0.0462865397 0.0509218430
0.1387993271 0.7950240693 0.0000000000 1.2792712758 0.2337645980 -334.0365417435 0.0460298538 0.0507836344
0.1077193039 0.7980636890 0.0000000000 1.2790240390 0.2513249819 -328.2119500657 0.0457847949 0.0506253192
0.0765467478 0.7998072521 0.0000000000 1.2752291621 0.2687201598 -321.4504810305 0.0455530173 0.0504479333
0.0453360867 0.8002526465 0.0000000000 1.2686289693 0.2860500058 -313.6319526031 0.0453360869 0.0502526465
0.0141417397 0.7994000739 0.0000000000 1.2597044325 0.3033490077 -304.6340677179 0.0451354705 0.0500407551
-0.0169819838 0.7972520429 0.0000000000 1.2487455981 0.3205912990 -294.3390604904 0.0449525254 0.0498136731
-0.0479809840 0.7938133580 0.0000000000 1.2359139160 0.3376998457 -282.6400400705 0.0447884896 0.0495729232
-0.0788014702 0.7890911040 0.0000000000 1.2212919426 0.3545569019 -269.4463962052 0.0446444727 0.0493201264
-0.1093900584 0.7830946252 0.0000000000 1.2049201297 0.3710140953 -254.6879992020 0.0445214485 0.0490569912
-0.1396938685 0.7758355014 0.0000000000 1.1868224839 0.3869014063 -238.3181779319 0.0444202470 0.0487853020
-0.1696606193 0.7673275187 0.0000000000 1.1670235324 0.4020348498 -220.3155929395 0.0443415491 0.0485069069
-0.1992387213 0.7575866367 0.0000000000 1.1455589235 0.4162229395 -200.6851698771 0.0442858807 0.0482237055
-0.2283773688 0.7466309508 0.0000000000 1.1224815699 0.4292721140 -179.4582581577 0.0442536093 0.0479376349
-0.2570266282 0.7344806519 0.0000000000 1.0978647661 0.4409913127 -156.6921589093 0.0442449404 0.0476506570
-0.2851375255 0.7211579811 0.0000000000 1.0718032947 0.4511958614 -132.4691415198 0.0442599163 0.0473647448
-0.3126621301 0.7066871813 0.0000000000 1.0444132101 0.4597107833 -106.8950466543 0.0442984148 0.0470818680
-0.3395536367 0.6910944455 0.0000000000 1.0158307606 0.4663736206 -80.0975574765 0.0443601503 0.0468039798
-0.3657664439 0.6744078614 0.0000000000 0.9862107526 0.4710368218 -52.2242092079 0.0444446749 0.0465330028
-0.3912562303 0.6566573531 0.0000000000 0.9557245557 0.4735697349 -23.4401986183 0.0445513814 0.0462708152
-0.4159800271 0.6378746198 0.0000000000 0.9245578856 0.4738602330 6.0739517690 0.0446795076 0.0460192379
-0.4398962876 0.6180930720 0.0000000000 0.8929084563 0.4718159965 36.1248259919 0.0448281410 0.0457800210
-0.4629649538 0.5973477644 0.0000000000 0.8609835675 0.4673654702 66.5086003737 0.0449962251 0.0455548315
-0.5064070892 0.5531138949 0.0000000000 0.7971699887 0.4510667746 127.4225078638 0.0453858440 0.0451527163
-0.5267084348 0.5297030326 0.0000000000 0.7657220961 0.4391837718 157.5153545510 0.0456046165 0.0449786044
-0.5460180481 0.5054836615 0.0000000000 0.7348756835 0.4248247644 187.0713369832 0.0458373341 0.0448241272
-0.5643041892 0.4804979817 0.0000000000 0.7048503226 0.4080263732 215.8713716701 0.0460823489 0.0446903703
-0.5815369327 0.4547893943 0.0000000000 0.6758613674 0.3888460122 243.7002076578 0.0463379261 0.0445782759
-0.5976882089 0.4284024218 0.0000000000 0.6481179683 0.3673611409 270.3484689268 0.0466022570 0.0444886352
-0.6127318420 0.4013826277 0.0000000000 0.6218212163 0.3436683623 295.6145592204 0.0468734715 0.0444220831
-0.6266435853 0.3737765349 0.0000000000 0.5971624315 0.3178823850 319.3064215842 0.0471496513 0.0443790935
-0.6394011512 0.3456315436 0.0000000000 0.5743216022 0.2901348665 341.2431490228 0.0474288439 0.0443599754
-0.6509842396 0.3169958487 0.0000000000 0.5534659775 0.2605731502 361.2564455507 0.0477090765 0.0443648711
-0.6613745613 0.2879183563 0.0000000000 0.5347488149 0.2293589095 379.1919378658 0.0479883701 0.0443937546
-0.6705558585 0.2584486002 0.0000000000 0.5183082825 0.1966667144 394.9103374942 0.0482647534 0.0444464323
-0.6785139219 0.2286366588 0.0000000000 0.5042665231 0.1626825339 408.2884533040 0.0485362777 0.0445225437
-0.6852366042 0.1985330708 0.0000000000 0.4927288888 0.1276021856 419.2200557297 0.0488010298 0.0446215644
-0.6907138308 0.1681887523 0.0000000000 0.4837833458 0.0916297327 427.6165951818 0.0490571468 0.0447428099
-0.6949376064 0.1376549132 0.0000000000 0.4775000250 0.0549758252 433.4077737914 0.0493028285 0.0448854401
-0.6979020189 0.1069829747 0.0000000000 0.4739308653 0.0178559911 436.5419615767 0.0495363509 0.0450484659
-0.6996032407 0.0762244865 0.0000000000 0.4731093022 -0.0195110909 436.9864448632 0.0497560781 0.0452307561
-0.7000395257 0.0454310452 0.0000000000 0.4750499955 -0.0569052893 434.7275040274 0.0499604743 0.0454310455
-0.6992112047 0.0146542132 0.0000000000 0.4797486609 -0.0941066555 429.7703454787 0.0501481141 0.0456479442
-0.6971206767 -0.0160545618 0.0000000000 0.4871820533 -0.1308969899 422.1389112645 0.0503176931 0.0458799476
-0.6937723980 -0.0466440264 0.0000000000 0.4973081288 -0.1670613413 411.8755829767 0.0504680368 0.0461254473
-0.6891728687 -0.0770632004 0.0000000000 0.5100664324 -0.2023894566 399.0407984520 0.0505981088 0.0463827426
-0.6833306160 -0.1072614544 0.0000000000 0.5253787152 -0.2366772110 383.7125765866 0.0507070179 0.0466500526
-0.6762561751 -0.1371885865 0.0000000000 0.5431497406 -0.2697280380 365.9859326062 0.0507940243 0.0469255292
-0.6679620673 -0.1667948983 0.0000000000 0.5632682196 -0.3013543554 345.9721647566 0.0508585444 0.0472072702