 TITLE = "Tecplot data"
 VARIABLES = "X", "Y", "Z" "U", "V", "p", "dispX", "dispY"
 ZONE SOLUTIONTIME=106.900000, NODES=26114 , ELEMENTS=25916, DATAPACKING=POINT, ZONETYPE=FEQUADRILATERAL
0.4089830317 0.4089830318 0.0000000000 0.0009919831 0.0009919831 -466.4589018665 0.0554296411 0.0554296411
0.4089830320 -0.2981237492 0.0000000000 0.0009919831 0.0009919831 -426.2888580043 0.0554296411 0.0554296411
-0.2981237496 0.4089830316 0.0000000000 0.0009919831 0.0009919831 -132.1476436744 0.0554296411 0.0554296411
-0.2981237493 -0.2981237496 0.0000000000 0.0009919831 0.0009919831 -227.3082476043 0.0554296411 0.0554296411
0.5811366663 0.5811931345 0.0000000000 0.2633976584 -0.0472280527 -473.9334295219 0.0508065805 0.0508630486
0.5762852942 -0.4842828640 0.0000000000 0.3757686231 -0.0137980635 -400.5650899724 0.0459552079 0.0460472215
-0.4846746328 0.5761499165 0.0000000000 0.8403168682 0.4655382252 67.8088846956 0.0456554532 0.0458198308
-0.4799210847 -0.4794323517 0.0000000000 0.9188859134 -0.5146886549 16.0893046975 0.0504090010 0.0508977345
1.1009687880 1.1010438041 0.0000000000 1.1150971818 0.0061839684 -107.0977636492 0.0403086163 0.0403836322
1.0931304932 -1.0278496359 0.0000000000 1.2722619958 0.1705364307 -251.0289473441 0.0324703206 0.0328105351
-1.0289840950 1.0928069380 0.0000000000 0.9380575997 0.1512449059 86.3079653448 0.0316760772 0.0321467665
-1.0215617614 -1.0203234539 0.0000000000 0.9767925305 -0.1662537194 69.7180714265 0.0390984098 0.0403367184
4.2208038143 3.3182619896 0.0000000000 1.0006230761 -0.0240714246 26.0437228006 0.0208038143 0.0182619896
4.2124948055 -3.2889150406 0.0000000000 1.0390833339 -0.0010797602 27.3951897341 0.0124948055 0.0110849594
20.0000000000 4.7000000000 0.0000000000 1.0440588344 0.0326255428 0.1179726962 0.0000000000 0.0000000000
20.0000000000 -4.7000000000 0.0000000000 1.0410316664 -0.0358872661 0.1841161522 0.0000000000 0.0000000000
-10.0000000000 15.0000000000 0.0000000000 1.0000000000 0.0000000000 35.4743750556 0.0000000000 0.0000000000
20.0000000000 15.0000000000 0.0000000000 1.0329228001 0.0000000000 0.0265667471 0.0000000000 0.0000000000
20.0000000000 -15.0000000000 0.0000000000 1.0324064772 0.0000000000 0.0244937911 0.0000000000 0.0000000000
-10.0000000000 -15.0000000000 0.0000000000 1.0000000000 0.0000000000 31.9739287731 0.0000000000 0.0000000000
0.4219555773 -0.2846567275 0.0000000000 0.0009919831 0.0009919831 -423.7174790322 0.0554296411 0.0554296411
0.4344155029 -0.2707140642 0.0000000000 0.0009919831 0.0009919831 -422.3452859878 0.0554296411 0.0554296411
0.4463453826 -0.2563152595 0.0000000000 0.0009919831 0.0009919831 -422.2682936025 0.0554296411 0.0554296411
0.4577285312 -0.2414804514 0.0000000000 0.0009919831 0.0009919831 -423.3156900001 0.0554296411 0.0554296411
0.4685490285 -0.2262303876 0.0000000000 0.0009919831 0.0009919831 -425.3534127478 0.0554296411 0.0554296411
0.4787917409 -0.2105863969 0.0000000000 0.0009919831 0.0009919831 -428.1543250945 0.0554296411 0.0554296411
0.4884423432 -0.1945703586 0.0000000000 0.0009919831 0.0009919831 -431.5315082983 0.0554296411 0.0554296411
0.4974873380 -0.1782046727 0.0000000000 0.0009919831 0.0009919831 -435.3101806906 0.0554296411 0.0554296411
0.5059140752 -0.1615122282 0.0000000000 0.0009919831 0.0009919831 -439.3504972883 0.0554296411 0.0554296411
0.5137107692 -0.1445163708 0.0000000000 0.0009919831 0.0009919831 -443.5236775414 0.0554296411 0.0554296411
0.5208665156 -0.1272408708 0.0000000000 0.0009919831 0.0009919831 -447.7008026351 0.0554296411 0.0554296411
0.5273713064 -0.1097098896 0.0000000000 0.0009919831 0.0009919831 -451.7373419685 0.0554296411 0.0554296411
0.5332160441 -0.0919479458 0.0000000000 0.0009919831 0.0009919831 -455.4683715159 0.0554296411 0.0554296411
0.5383925543 -0.0739798812 0.0000000000 0.0009919831 0.0009919831 -458.7102103253 0.0554296411 0.0554296411
0.5428935973 -0.0558308256 0.0000000000 0.0009919831 0.0009919831 -461.2703127735 0.0554296411 0.0554296411
0.5467128778 -0.0375261622 0.0000000000 0.0009919831 0.0009919831 -462.9625078457 0.0554296411 0.0554296411
0.5498450543 -0.0190914917 0.0000000000 0.0009919831 0.0009919831 -463.6258863559 0.0554296411 0.0554296411
0.5522857461 -0.0005525967 0.0000000000 0.0009919831 0.0009919831 -463.1444033019 0.0554296411 0.0554296411
0.5540315397 0.0180645946 0.0000000000 0.0009919831 0.0009919831 -461.4645044073 0.0554296411 0.0554296411
0.5550799935 0.0367340442 0.0000000000 0.0009919831 0.0009919831 -458.6080198754 0.0554296411 0.0554296411
0.5554296411 0.0554296413 0.0000000000 0.0009919831 0.0009919831 -454.6782422845 0.0554296411 0.0554296411
0.5550799935 0.0741252385 0.0000000000 0.0009919831 0.0009919831 -449.8579855411 0.0554296411 0.0554296411
0.5540315397 0.0927946881 0.0000000000 0.0009919831 0.0009919831 -444.3996587449 0.0554296411 0.0554296411
0.5522857461 0.1114118794 0.0000000000 0.0009919831 0.0009919831 -438.6084441497 0.0554296411 0.0554296411
0.5498450542 0.1299507744 0.0000000000 0.0009919831 0.0009919831 -432.8206846993 0.0554296411 0.0554296411
0.5467128777 0.1483854449 0.0000000000 0.0009919831 0.0009919831 -427.3797680145 0.0554296411 0.0554296411
0.5428935972 0.1666901083 0.0000000000 0.0009919831 0.0009919831 -422.6122205018 0.0554296411 0.0554296411
0.5383925542 0.1848391638 0.0000000000 0.0009919831 0.0009919831 -418.8054869898 0.0554296411 0.0554296411
0.5332160440 0.2028072285 0.0000000000 0.0009919831 0.0009919831 -416.1897667080 0.0554296411 0.0554296411
0.5273713062 0.2205691722 0.0000000000 0.0009919831 0.0009919831 -414.9230318830 0.0554296411 0.0554296411
0.5208665154 0.2381001534 0.0000000000 0.0009919831 0.0009919831 -415.0827756941 0.0554296411 0.0554296411
0.5137107690 0.2553756534 0.0000000000 0.0009919831 0.0009919831 -416.6593667580 0.0554296411 0.0554296411
0.5059140750 0.2723715108 0.0000000000 0.0009919831 0.0009919831 -419.5611944186 0.0554296411 0.0554296411
0.4974873378 0.2890639554 0.0000000000 0.0009919831 0.0009919831 -423.6147435499 0.0554296411 0.0554296411
0.4884423430 0.3054296412 0.0000000000 0.0009919831 0.0009919831 -428.5906491656 0.0554296411 0.0554296411
0.4787917407 0.3214456795 0.0000000000 0.0009919831 0.0009919831 -434.2011443320 0.0554296411 0.0554296411
0.4685490282 0.3370896702 0.0000000000 0.0009919831 0.0009919831 -440.1633625433 0.0554296411 0.0554296411
0.4577285310 0.3523397340 0.0000000000 0.0009919831 0.0009919831 -446.1590108620 0.0554296411 0.0554296411
0.4463453823 0.3671745421 0.0000000000 0.0009919831 0.0009919831 -451.9765628192 0.0554296411 0.0554296411
0.4344155027 0.3815733468 0.0000000000 0.0009919831 0.0009919831 -457.3410117047 0.0554296411 0.0554296411
0.4219555770 0.3955160101 0.0000000000 0.0009919831 0.0009919831 -462.2357012184 0.0554296411 0.0554296411
0.3940704269 0.4232915965 0.0000000000 0.0009919831 0.0009919831 -470.6714574351 0.0554296411 0.0554296411
0.3785792600 0.4369716753 0.0000000000 0.0009919831 0.0009919831 -474.2325782046 0.0554296411 0.0554296411
0.3625359974 0.4499998959 0.0000000000 0.0009919831 0.0009919831 -477.6151106354 0.0554296411 0.0554296411
0.3459680488 0.4623539998 0.0000000000 0.0009919831 0.0009919831 -480.9394170802 0.0554296411 0.0554296411
0.3289037201 0.4740128803 0.0000000000 0.0009919831 0.0009919831 -484.5951198585 0.0554296411 0.0554296411
0.3113721656 0.4849566184 0.0000000000 0.0009919831 0.0009919831 -488.7646905868 0.0554296411 0.0554296411
0.2934033376 0.4951665168 0.0000000000 0.0009919831 0.0009919831 -493.6709506059 0.0554296411 0.0554296411
0.2750279355 0.5046251321 0.0000000000 0.0009919831 0.0009919831 -499.4070433470 0.0554296411 0.0554296411
0.2562773534 0.5133163045 0.0000000000 0.0009919831 0.0009919831 -506.0384469490 0.0554296411 0.0554296411
0.2371836263 0.5212251852 0.0000000000 0.0009919831 0.0009919831 -513.5619014529 0.0554296411 0.0554296411
0.2177793757 0.5283382620 0.0000000000 0.0009919831 0.0009919831 -521.9457895989 0.0554296411 0.0554296411
0.1980977532 0.5346433824 0.0000000000 0.0009919831 0.0009919831 -531.1138667327 0.0554296411 0.0554296411
0.1781723846 0.5401297741 0.0000000000 0.0009919831 0.0009919831 -540.9489754529 0.0554296411 0.0554296411
0.1580373121 0.5447880638 0.0000000000 0.0009919831 0.0009919831 -551.2792076652 0.0554296411 0.0554296411
0.1377269362 0.5486102929 0.0000000000 0.0009919831 0.0009919831 -561.8743922468 0.0554296411 0.0554296411
0.1172759567 0.5515899310 0.0000000000 0.0009919831 0.0009919831 -572.4422980206 0.0554296411 0.0554296411
0.0967193138 0.5537218876 0.0000000000 0.0009919831 0.0009919831 -582.6323604160 0.0554296411 0.0554296411
0.0760921282 0.5550025203 0.0000000000 0.0009919831 0.0009919831 -592.0428435569 0.0554296411 0.0554296411
0.0554296410 0.5554296411 0.0000000000 0.0009919831 0.0009919831 -600.2329487583 0.0554296411 0.0554296411
0.0347671539 0.5550025203 0.0000000000 0.0009919831 0.0009919831 -606.7378632690 0.0554296411 0.0554296411
0.0141399683 0.5537218876 0.0000000000 0.0009919831 0.0009919831 -611.0861950973 0.0554296411 0.0554296411
-0.0064166746 0.5515899310 0.0000000000 0.0009919831 0.0009919831 -612.8181540910 0.0554296411 0.0554296411
-0.0268676541 0.5486102928 0.0000000000 0.0009919831 0.0009919831 -611.5033007172 0.0554296411 0.0554296411
-0.0471780301 0.5447880638 0.0000000000 0.0009919831 0.0009919831 -606.7565926896 0.0554296411 0.0554296411
-0.0673131025 0.5401297741 0.0000000000 0.0009919831 0.0009919831 -598.2518650569 0.0554296411 0.0554296411
-0.0872384711 0.5346433823 0.0000000000 0.0009919831 0.0009919831 -585.7321613342 0.0554296411 0.0554296411
-0.1069200936 0.5283382619 0.0000000000 0.0009919831 0.0009919831 -569.0167114770 0.0554296411 0.0554296411
-0.1263243443 0.5212251851 0.0000000000 0.0009919831 0.0009919831 -548.0046383257 0.0554296411 0.0554296411
-0.1454180713 0.5133163044 0.0000000000 0.0009919831 0.0009919831 -522.6757071027 0.0554296411 0.0554296411
-0.1641686534 0.5046251320 0.0000000000 0.0009919831 0.0009919831 -493.0885696256 0.0554296411 0.0554296411
-0.1825440555 0.4951665167 0.0000000000 0.0009919831 0.0009919831 -459.3770168233 0.0554296411 0.0554296411
-0.2005128835 0.4849566183 0.0000000000 0.0009919831 0.0009919831 -421.7447470629 0.0554296411 0.0554296411
-0.2180444380 0.4740128802 0.0000000000 0.0009919831 0.0009919831 -380.4591056709 0.0554296411 0.0554296411
-0.2351087667 0.4623539997 0.0000000000 0.0009919831 0.0009919831 -335.8441710186 0.0554296411 0.0554296411
-0.2516767153 0.4499998957 0.0000000000 0.0009919831 0.0009919831 -288.2734739584 0.0554296411 0.0554296411
-0.2677199779 0.4369716751 0.0000000000 0.0009919831 0.0009919831 -238.1625565912 0.0554296411 0.0554296411
-0.2832111448 0.4232915964 0.0000000000 0.0009919831 0.0009919831 -185.9615159493 0.0554296411 0.0554296411
-0.3124323143 0.3940704268 0.0000000000 0.0009919831 0.0009919831 -77.2182604654 0.0554296411 0.0554296411
-0.3261123931 0.3785792599 0.0000000000 0.0009919831 0.0009919831 -21.6838417868 0.0554296411 0.0554296411
-0.3391406137 0.3625359974 0.0000000000 0.0009919831 0.0009919831 33.9384758123 0.0554296411 0.0554296411
-0.3514947176 0.3459680487 0.0000000000 0.0009919831 0.0009919831 89.1309400616 0.0554296411 0.0554296411
-0.3631535981 0.3289037201 0.0000000000 0.0009919831 0.0009919831 143.3807476541 0.0554296411 0.0554296411
-0.3740973361 0.3113721655 0.0000000000 0.0009919831 0.0009919831 196.1851349166 0.0554296411 0.0554296411
-0.3843072345 0.2934033375 0.0000000000 0.0009919831 0.0009919831 247.0560315506 0.0554296411 0.0554296411
-0.3937658499 0.2750279354 0.0000000000 0.0009919831 0.0009919831 295.5243287227 0.0554296411 0.0554296411
-0.4024570223 0.2562773533 0.0000000000 0.0009919831 0.0009919831 341.1438106607 0.0554296411 0.0554296411
-0.4103659030 0.2371836263 0.0000000000 0.0009919831 0.0009919831 383.4947860299 0.0554296411 0.0554296411
-0.4174789798 0.2177793756 0.0000000000 0.0009919831 0.0009919831 422.1874387751 0.0554296411 0.0554296411
-0.4237841001 0.1980977531 0.0000000000 0.0009919831 0.0009919831 456.8649033199 0.0554296411 0.0554296411
-0.4292704919 0.1781723845 0.0000000000 0.0009919831 0.0009919831 487.2060586637 0.0554296411 0.0554296411
-0.4339287816 0.1580373120 0.0000000000 0.0009919831 0.0009919831 512.9280303680 0.0554296411 0.0554296411
-0.4377510106 0.1377269361 0.0000000000 0.0009919831 0.0009919831 533.7883877457 0.0554296411 0.0554296411
-0.4407306488 0.1172759566 0.0000000000 0.0009919831 0.0009919831 549.5870244711 0.0554296411 0.0554296411
-0.4428626054 0.0967193137 0.0000000000 0.0009919831 0.0009919831 560.1677131946 0.0554296411 0.0554296411
-0.4441432381 0.0760921281 0.0000000000 0.0009919831 0.0009919831 565.4193277251 0.0554296411 0.0554296411
-0.4445703589 0.0554296409 0.0000000000 0.0009919831 0.0009919831 565.2767293630 0.0554296411 0.0554296411
-0.4441432380 0.0347671538 0.0000000000 0.0009919831 0.0009919831 559.7213166080 0.0554296411 0.0554296411
-0.4428626053 0.0141399682 0.0000000000 0.0009919831 0.0009919831 548.7812394767 0.0554296411 0.0554296411
-0.4407306487 -0.0064166747 0.0000000000 0.0009919831 0.0009919831 532.5312809183 0.0554296411 0.0554296411
-0.4377510105 -0.0268676542 0.0000000000 0.0009919831 0.0009919831 511.0924083543 0.0554296411 0.0554296411
-0.4339287815 -0.0471780302 0.0000000000 0.0009919831 0.0009919831 484.6309983264 0.0554296411 0.0554296411
-0.4292704918 -0.0673131026 0.0000000000 0.0009919831 0.0009919831 453.3577368515 0.0554296411 0.0554296411
-0.4237841000 -0.0872384712 0.0000000000 0.0009919831 0.0009919831 417.5261976220 0.0554296411 0.0554296411
-0.4174789796 -0.1069200937 0.0000000000 0.0009919831 0.0009919831 377.4310998226 0.0554296411 0.0554296411
-0.4103659028 -0.1263243444 0.0000000000 0.0009919831 0.0009919831 333.4062471535 0.0554296411 0.0554296411
-0.4024570221 -0.1454180714 0.0000000000 0.0009919831 0.0009919831 285.8221495618 0.0554296411 0.0554296411
-0.3937658497 -0.1641686535 0.0000000000 0.0009919831 0.0009919831 235.0833290186 0.0554296411 0.0554296411
-0.3843072344 -0.1825440556 0.0000000000 0.0009919831 0.0009919831 181.6253101847 0.0554296411 0.0554296411
-0.3740973359 -0.2005128836 0.0000000000 0.0009919831 0.0009919831 125.9112957721 0.0554296411 0.0554296411
-0.3631535979 -0.2180444381 0.0000000000 0.0009919831 0.0009919831 68.4285246800 0.0554296411 0.0554296411
-0.3514947174 -0.2351087668 0.0000000000 0.0009919831 0.0009919831 9.6843085261 0.0554296411 0.0554296411
-0.3391406134 -0.2516767154 0.0000000000 0.0009919831 0.0009919831 -49.7982608799 0.0554296411 0.0554296411
-0.3261123928 -0.2677199780 0.0000000000 0.0009919831 0.0009919831 -109.4849440389 0.0554296411 0.0554296411
-0.3124323140 -0.2832111449 0.0000000000 0.0009919831 0.0009919831 -168.8353405837 0.0554296411 0.0554296411
-0.2832111445 -0.3124323144 0.0000000000 0.0009919831 0.0009919831 -284.3674080759 0.0554296411 0.0554296411
-0.2677199776 -0.3261123931 0.0000000000 0.0009919831 0.0009919831 -339.4876669467 0.0554296411 0.0554296411
-0.2516767150 -0.3391406137 0.0000000000 0.0009919831 0.0009919831 -392.1615475306 0.0554296411 0.0554296411
-0.2351087663 -0.3514947177 0.0000000000 0.0009919831 0.0009919831 -441.9062503356 0.0554296411 0.0554296411
-0.2180444377 -0.3631535981 0.0000000000 0.0009919831 0.0009919831 -488.2710583044 0.0554296411 0.0554296411
-0.2005128832 -0.3740973362 0.0000000000 0.0009919831 0.0009919831 -530.8451043277 0.0554296411 0.0554296411
-0.1825440551 -0.3843072346 0.0000000000 0.0009919831 0.0009919831 -569.2654165857 0.0554296411 0.0554296411
-0.1641686530 -0.3937658499 0.0000000000 0.0009919831 0.0009919831 -603.2251029169 0.0554296411 0.0554296411
-0.1454180709 -0.4024570223 0.0000000000 0.0009919831 0.0009919831 -632.4814662764 0.0554296411 0.0554296411
-0.1263243439 -0.4103659030 0.0000000000 0.0009919831 0.0009919831 -656.8637606565 0.0554296411 0.0554296411
-0.1069200932 -0.4174789798 0.0000000000 0.0009919831 0.0009919831 -676.2802048859 0.0554296411 0.0554296411
-0.0872384707 -0.4237841002 0.0000000000 0.0009919831 0.0009919831 -690.7237789949 0.0554296411 0.0554296411
-0.0673131022 -0.4292704919 0.0000000000 0.0009919831 0.0009919831 -700.2762477812 0.0554296411 0.0554296411
-0.0471780297 -0.4339287816 0.0000000000 0.0009919831 0.0009919831 -705.1098074621 0.0554296411 0.0554296411
-0.0268676537 -0.4377510106 0.0000000000 0.0009919831 0.0009919831 -705.4857560971 0.0554296411 0.0554296411
-0.0064166742 -0.4407306488 0.0000000000 0.0009919831 0.0009919831 -701.7496698040 0.0554296411 0.0554296411
0.0141399687 -0.4428626054 0.0000000000 0.0009919831 0.0009919831 -694.3227423672 0.0554296411 0.0554296411
0.0347671543 -0.4441432381 0.0000000000 0.0009919831 0.0009919831 -683.6892220073 0.0554296411 0.0554296411
0.0554296414 -0.4445703589 0.0000000000 0.0009919831 0.0009919831 -670.3802416709 0.0554296411 0.0554296411
0.0760921286 -0.4441432380 0.0000000000 0.0009919831 0.0009919831 -654.9547525738 0.0554296411 0.0554296411
0.0967193142 -0.4428626053 0.0000000000 0.0009919831 0.0009919831 -637.9786710986 0.0554296411 0.0554296411
0.1172759571 -0.4407306487 0.0000000000 0.0009919831 0.0009919831 -620.0036687402 0.0554296411 0.0554296411
0.1377269366 -0.4377510105 0.0000000000 0.0009919831 0.0009919831 -601.5471886646 0.0554296411 0.0554296411
0.1580373125 -0.4339287815 0.0000000000 0.0009919831 0.0009919831 -583.0752415136 0.0554296411 0.0554296411
0.1781723850 -0.4292704918 0.0000000000 0.0009919831 0.0009919831 -564.9892507462 0.0554296411 0.0554296411
0.1980977536 -0.4237841000 0.0000000000 0.0009919831 0.0009919831 -547.6178085799 0.0554296411 0.0554296411
0.2177793760 -0.4174789796 0.0000000000 0.0009919831 0.0009919831 -531.2134184625 0.0554296411 0.0554296411
0.2371836267 -0.4103659028 0.0000000000 0.0009919831 0.0009919831 -515.9536010647 0.0554296411 0.0554296411
0.2562773538 -0.4024570221 0.0000000000 0.0009919831 0.0009919831 -501.9443055072 0.0554296411 0.0554296411
0.2750279359 -0.3937658497 0.0000000000 0.0009919831 0.0009919831 -489.2242123358 0.0554296411 0.0554296411
0.2934033380 -0.3843072343 0.0000000000 0.0009919831 0.0009919831 -477.7679851690 0.0554296411 0.0554296411
0.3113721660 -0.3740973359 0.0000000000 0.0009919831 0.0009919831 -467.4946692651 0.0554296411 0.0554296411
0.3289037205 -0.3631535978 0.0000000000 0.0009919831 0.0009919831 -458.2822838893 0.0554296411 0.0554296411
0.3459680491 -0.3514947173 0.0000000000 0.0009919831 0.0009919831 -450.0100186871 0.0554296411 0.0554296411
0.3625359978 -0.3391406133 0.0000000000 0.0009919831 0.0009919831 -442.5928172682 0.0554296411 0.0554296411
0.3785792603 -0.3261123927 0.0000000000 0.0009919831 0.0009919831 -436.0687816025 0.0554296411 0.0554296411
0.3940704272 -0.3124323140 0.0000000000 0.0009919831 0.0009919831 -430.5122168981 0.0554296411 0.0554296411
0.5959401958 -0.4642510560 0.0000000000 0.2752312928 -0.0266866763 -395.5842184316 0.0461512916 0.0458784970
0.6148379930 -0.4434913160 0.0000000000 0.1917888328 -0.0445740133 -391.3268014696 0.0463592003 0.0457242421
0.6329514243 -0.4220320518 0.0000000000 0.1300089737 -0.0686841458 -388.2507509346 0.0465778122 0.0455852992
0.6502542818 -0.3999027126 0.0000000000 0.0921413809 -0.0999179519 -386.8137073023 0.0468059467 0.0454624262
0.6667214527 -0.3771337512 0.0000000000 0.0765661441 -0.1381297798 -387.3272865033 0.0470423716 0.0453562920
0.6823289589 -0.3537565835 0.0000000000 0.0778588605 -0.1818497443 -389.8969522664 0.0472858092 0.0452674735
0.6970539963 -0.3298035474 0.0000000000 0.0887775910 -0.2286806634 -394.4615008091 0.0475349432 0.0451964522
0.7108749715 -0.3053078589 0.0000000000 0.1027580533 -0.2760153547 -400.8732028426 0.0477884261 0.0451436119
0.7237715373 -0.2803035673 0.0000000000 0.1152581438 -0.3215811737 -408.9231222338 0.0480448862 0.0451092366
0.7357246269 -0.2548255089 0.0000000000 0.1236872124 -0.3636674375 -418.3071608627 0.0483029348 0.0450935089
0.7467164857 -0.2289092585 0.0000000000 0.1267799807 -0.4011737942 -428.6003255598 0.0485611741 0.0450965094
0.7567307022 -0.2025910802 0.0000000000 0.1241086372 -0.4335811782 -439.2799859498 0.0488182043 0.0451182159
0.7657522359 -0.1759078766 0.0000000000 0.1158127458 -0.4608439684 -449.7830861819 0.0490726314 0.0451585039
0.7737674442 -0.1488971366 0.0000000000 0.1024080266 -0.4832106662 -459.5656173974 0.0493230744 0.0452171469
0.7807641072 -0.1215968822 0.0000000000 0.0846204627 -0.5010287914 -468.1467828087 0.0495681729 0.0452938179
0.7867314495 -0.0940456137 0.0000000000 0.0632643118 -0.5145952508 -475.1360165031 0.0498065945 0.0453880913
0.7916601615 -0.0662822547 0.0000000000 0.0391774104 -0.5240813454 -480.2483660315 0.0500370418 0.0454994446
0.7955424167 -0.0383460949 0.0000000000 0.0132020548 -0.5295263498 -483.3143679352 0.0502582592 0.0456272619
0.7983718882 -0.0102767333 0.0000000000 -0.0138121287 -0.5308751379 -484.2876194188 0.0504690403 0.0457708366
0.8001437622 0.0178859801 0.0000000000 -0.0410045233 -0.5280345800 -483.2496281651 0.0506682336 0.0459293755
0.8008547493 0.0461020035 0.0000000000 -0.0675119046 -0.5209318663 -480.4091214700 0.0508547493 0.0461020031
0.8005030936 0.0743311621 0.0000000000 -0.0924937193 -0.5095668017 -476.0924382086 0.0510275650 0.0462877661
0.7990885792 0.1025332087 0.0000000000 -0.1151734184 -0.4940549112 -470.7226628749 0.0511857314 0.0464856383
0.7966125345 0.1306678839 0.0000000000 -0.1348904841 -0.4746584298 -464.7872862131 0.0513283771 0.0466945265
0.7930778335 0.1586949762 0.0000000000 -0.1511528527 -0.4517999270 -458.7969144112 0.0514547139 0.0469132763
0.7884888955 0.1865743835 0.0000000000 -0.1636739504 -0.4260515160 -453.2403353831 0.0515640406 0.0471406779
0.7828516815 0.2142661736 0.0000000000 -0.1723748439 -0.3980943476 -448.5431981430 0.0516557474 0.0473754729
0.7761736884 0.2417306451 0.0000000000 -0.1773343395 -0.3686501507 -445.0374897167 0.0517293188 0.0476163610
0.7684639410 0.2689283881 0.0000000000 -0.1786823333 -0.3383979041 -442.9460239333 0.0517843368 0.0478620071
0.7597329809 0.2958203447 0.0000000000 -0.1764547325 -0.3078996829 -442.3806984028 0.0518204833 0.0481110481
0.7499928533 0.3223678691 0.0000000000 -0.1704552130 -0.2775634046 -443.3476680744 0.0518375419 0.0483621007
0.7392570911 0.3485327871 0.0000000000 -0.1601858841 -0.2476611401 -445.7504708793 0.0518353993 0.0486137687
0.7275406968 0.3742774550 0.0000000000 -0.1448990107 -0.2184003636 -449.3863471125 0.0518140460 0.0488646505
0.7148601216 0.3995648182 0.0000000000 -0.1237773282 -0.1900205989 -453.9407226518 0.0517735765 0.0491133468
0.7012332420 0.4243584684 0.0000000000 -0.0961848093 -0.1628730671 -458.9940722994 0.0517141893 0.0493584683
0.6866793349 0.4486227005 0.0000000000 -0.0618800803 -0.1374465400 -464.0554554867 0.0516361856 0.0495986430
0.6712190488 0.4723225678 0.0000000000 -0.0210882244 -0.1143264876 -468.6245027698 0.0515399681 0.0498325241
0.6548743740 0.4954239362 0.0000000000 0.0256142746 -0.0941009575 -472.2666601268 0.0514260392 0.0500587970
0.6376686098 0.5178935381 0.0000000000 0.0775682910 -0.0772390164 -474.6781875635 0.0512949980 0.0502761867
0.6196263300 0.5396990235 0.0000000000 0.1343606982 -0.0639649563 -475.7224896231 0.0511475377 0.0504834650
0.6007733457 0.5608090106 0.0000000000 0.1960844556 -0.0541475594 -475.4274441697 0.0509844419 0.0506794572
0.5585551105 0.6028432424 0.0000000000 0.3455841954 -0.0417354271 -471.3261441194 0.0505939319 0.0510503094
0.5350902304 0.6235328789 0.0000000000 0.4368676857 -0.0368290372 -467.9059167326 0.0503658020 0.0512198277
0.5107832252 0.6432257903 0.0000000000 0.5369503808 -0.0307299970 -464.0896204896 0.0501236908 0.0513704082
0.4856768055 0.6618875193 0.0000000000 0.6436165420 -0.0220377727 -460.1684921701 0.0498691940 0.0515009813
0.4598151118 0.6794854689 0.0000000000 0.7528338537 -0.0100168586 -456.3326218407 0.0496039933 0.0516106102
0.4332436315 0.6959889641 0.0000000000 0.8595845035 0.0053670495 -452.6617519276 0.0493298447 0.0516984982
0.4060091123 0.7113693080 0.0000000000 0.9589614244 0.0236114863 -449.1354194709 0.0490485676 0.0517639946
0.3781594735 0.7255998355 0.0000000000 1.0470739659 0.0439204161 -445.6637956325 0.0487620319 0.0518065990
0.3497437150 0.7386559608 0.0000000000 1.1215343009 0.0654307985 -442.1262319647 0.0484721466 0.0518259658
0.3208118238 0.7505152229 0.0000000000 1.1815223050 0.0873804017 -438.4016607131 0.0481808460 0.0518219068
0.2914146793 0.7611573244 0.0000000000 1.2275430075 0.1092054530 -434.3836724908 0.0478900775 0.0517943931
0.2616039562 0.7705641675 0.0000000000 1.2610214405 0.1305715220 -429.9821120727 0.0476017881 0.0517435556
0.2314320263 0.7787198847 0.0000000000 1.2838657029 0.1513516214 -425.1167107499 0.0473179110 0.0516696852
0.2009518595 0.7856108650 0.0000000000 1.2980920313 0.1715724162 -419.7079846170 0.0470403530 0.0515732310
0.1702169232 0.7912257753 0.0000000000 1.3055600299 0.1913499831 -413.6691314526 0.0467709807 0.0514547977
0.1392810816 0.7955555774 0.0000000000 1.3078254167 0.2108314534 -406.9011218230 0.0465116082 0.0513151426
0.1081984935 0.7985935402 0.0000000000 1.3060905955 0.2301513621 -399.2917745167 0.0462639846 0.0511551704
0.0770235117 0.8003352467 0.0000000000 1.3012219008 0.2494047915 -390.7184474897 0.0460297811 0.0509759279
0.0458105802 0.8007785973 0.0000000000 1.2938029120 0.2686350537 -381.0532553542 0.0458105803 0.0507785973
0.0146141334 0.7999238070 0.0000000000 1.2842002494 0.2878318295 -370.1695088833 0.0456078643 0.0505644882
-0.0165115048 0.7977733993 0.0000000000 1.2726269660 0.3069356454 -357.9482448721 0.0454230045 0.0503350296
-0.0475122218 0.7943321947 0.0000000000 1.2591961253 0.3258454450 -344.2840746642 0.0452572518 0.0500917600
-0.0783342153 0.7896072949 0.0000000000 1.2439623186 0.3444271091 -329.0899515293 0.0451117276 0.0498363173
-0.1089240910 0.7836080621 0.0000000000 1.2269518035 0.3625217213 -312.3007426847 0.0449874158 0.0495704281
-0.1392289604 0.7763460947 0.0000000000 1.2081832182 0.3799530321 -293.8756655975 0.0448851551 0.0492958953
-0.1691965348 0.7678351984 0.0000000000 1.1876810930 0.3965339711 -273.7997283867 0.0448056335 0.0490145866
-0.1987752195 0.7580913523 0.0000000000 1.1654841485 0.4120722471 -252.0843335444 0.0447493826 0.0487284211
-0.2279142047 0.7471326724 0.0000000000 1.1416499612 0.4263751520 -228.7671927151 0.0447167734 0.0484393564
-0.2565635549 0.7349793700 0.0000000000 1.1162571595 0.4392536908 -203.9116781825 0.0447080138 0.0481493750
-0.2846742954 0.7216537067 0.0000000000 1.0894059713 0.4505261434 -177.6057147624 0.0447231464 0.0478604704
-0.3121984971 0.7071799463 0.0000000000 1.0612176799 0.4600211357 -149.9602981198 0.0447620479 0.0475746330
-0.3390893575 0.6915843021 0.0000000000 1.0318333609 0.4675802759 -121.1077125450 0.0448244295 0.0472938364
-0.3653012801 0.6748948819 0.0000000000 1.0014121499 0.4730603965 -91.1995118709 0.0449098386 0.0470200233
-0.3907899497 0.6571416295 0.0000000000 0.9701292057 0.4763354278 -60.4043201328 0.0450176620 0.0467550916
-0.4155124055 0.6383562632 0.0000000000 0.9381734856 0.4772979259 -28.9055026527 0.0451471292 0.0465008813
-0.4394271104 0.6185722117 0.0000000000 0.9057454100 0.4758602735 3.1012471937 0.0452973182 0.0462591607
-0.4624940174 0.5978245472 0.0000000000 0.8730544772 0.4719555694 35.4103655057 0.0454671614 0.0460316144
-0.5059320750 0.5535864691 0.0000000000 0.8077530768 0.4565842868 100.0788793130 0.0458608582 0.0456252906
-0.5262311309 0.5301737846 0.0000000000 0.7755855877 0.4450914972 131.9998645916 0.0460819204 0.0454493564
-0.5455383085 0.5059527967 0.0000000000 0.7440366236 0.4310791231 163.3511247880 0.0463170737 0.0452932624
-0.5638218853 0.4809657170 0.0000000000 0.7133259776 0.4145875636 193.9139510585 0.0465646528 0.0451581056
-0.5810519539 0.4552559564 0.0000000000 0.6836689457 0.3956777651 223.4737710119 0.0468229049 0.0450448380
-0.5972004635 0.4288680457 0.0000000000 0.6552743741 0.3744304642 251.8221547360 0.0470900024 0.0449542591
-0.6122412581 0.4018475550 0.0000000000 0.6283428351 0.3509452801 278.7586855022 0.0473640554 0.0448870104
-0.6261501108 0.3742410123 0.0000000000 0.6030649439 0.3253396750 304.0926874902 0.0476431257 0.0448435709
-0.6389047547 0.3460958209 0.0000000000 0.5796198240 0.2977477983 327.6448070153 0.0479252404 0.0448242527
-0.6504849102 0.3174601773 0.0000000000 0.5581737244 0.2683192275 349.2484466521 0.0482084060 0.0448291996
-0.6608723087 0.2883829871 0.0000000000 0.5388787883 0.2372176168 368.7510525422 0.0484906226 0.0448583855
-0.6700507133 0.2589137824 0.0000000000 0.5218719738 0.2046192691 386.0152546358 0.0487698987 0.0449116145
-0.6780059348 0.2291026376 0.0000000000 0.5072741335 0.1707116457 400.9198595525 0.0490442647 0.0449885225
-0.6847258463 0.1990000859 0.0000000000 0.4951892634 0.1356918237 413.3606973145 0.0493117878 0.0450885796
-0.6902003923 0.1686570364 0.0000000000 0.4857039244 0.0997649025 423.2513246756 0.0495705853 0.0452110940
-0.6944215965 0.1381246901 0.0000000000 0.4788868129 0.0631423552 430.5235846079 0.0498188383 0.0453552170
-0.6973835650 0.1074544579 0.0000000000 0.4747884276 0.0260403281 435.1280130536 0.0500548048 0.0455199490
-0.6990824870 0.0766978775 0.0000000000 0.4734407826 -0.0113220808 437.0340798662 0.0502768318 0.0457041471
-0.6995166329 0.0459065324 0.0000000000 0.4748571560 -0.0487245174 436.2302594652 0.0504833671 0.0459065327
-0.6986863480 0.0151319706 0.0000000000 0.4790319356 -0.0859470067 432.7239545939 0.0506729708 0.0461257016
-0.6965940451 -0.0155743762 0.0000000000 0.4859406079 -0.1227715211 426.5412956982 0.0508443246 0.0463601332
-0.6932441929 -0.0461612714 0.0000000000 0.4955399163 -0.1589834799 417.7268328117 0.0509962418 0.0466082023
-0.6886433023 -0.0765777526 0.0000000000 0.5077682405 -0.1943731972 406.3431394850 0.0511276752 0.0468681905
-0.6827999097 -0.1067732088 0.0000000000 0.5225462024 -0.2287373084 392.4703257008 0.0512377242 0.0471382981
-0.6757245581 -0.1366974577 0.0000000000 0.5397774679 -0.2618801933 376.2054434337 0.0513256412 0.0474166579
-0.6674297751 -0.1663008208 0.0000000000 0.5593496836 -0.2936153961 357.6617658934 0.0513908366 0.0477013477