 TITLE = "Tecplot data"
 VARIABLES = "X", "Y", "Z" "U", "V", "p", "dispX", "dispY"
 ZONE SOLUTIONTIME=84.900000, NODES=26114 , ELEMENTS=25916, DATAPACKING=POINT, ZONETYPE=FEQUADRILATERAL
0.5764605133 -0.4865041884 0.0000000000 0.0000000000 0.0000000000 -930.2967687469 0.2229071228 -0.8400575790
0.5764605136 -1.1936109694 0.0000000000 0.0000000000 0.0000000000 -493.9300877690 0.2229071228 -0.8400575790
-0.1306462679 -0.4865041886 0.0000000000 0.0000000000 0.0000000000 905.7749334583 0.2229071228 -0.8400575790
-0.1306462677 -1.1936109698 0.0000000000 0.0000000000 0.0000000000 151.6431811269 0.2229071228 -0.8400575790
0.7500619017 -0.3064766121 0.0000000000 0.3696669402 -0.1509446313 -589.5145684248 0.2197318158 -0.8368066980
0.7557295334 -1.3663834998 0.0000000000 -0.2130220680 -0.2358614501 -516.1896894379 0.2253994471 -0.8360534143
-0.3090717582 -0.3098188433 0.0000000000 0.6318688199 0.2964865587 547.3073643266 0.2212583278 -0.8401489290
-0.3069290183 -1.3705043447 0.0000000000 0.4371342892 -0.6802162073 188.4841888926 0.2234010673 -0.8401742585
1.2628004336 0.2449652524 0.0000000000 0.4123511343 -0.2109469878 -245.4216076588 0.2021402619 -0.8156949194
1.2978921742 -1.8736168187 0.0000000000 0.7818944749 0.5181095069 -232.8411165234 0.2372320016 -0.8129566477
-0.8474800570 0.2215386076 0.0000000000 0.7452523663 0.1376940302 284.7635521180 0.2131801151 -0.8391215638
-0.8335869796 -1.9001384948 0.0000000000 0.8773508283 -0.3869963309 230.2117170567 0.2270731916 -0.8394783225
4.3183647365 2.6104120403 0.0000000000 1.0971703575 -0.0540419831 -86.2258017435 0.1183647365 -0.6895879597
4.4946518198 -3.9845410048 0.0000000000 1.1483114635 0.0175981962 -53.4744319720 0.2946518198 -0.6845410048
20.0000000000 4.7000000000 0.0000000000 1.0501560392 0.0359584390 -0.0048446250 0.0000000000 0.0000000000
20.0000000000 -4.7000000000 0.0000000000 1.0858514337 -0.0523367919 0.5848033883 0.0000000000 0.0000000000
-10.0000000000 15.0000000000 0.0000000000 1.0000000000 0.0000000000 70.6156363014 0.0000000000 0.0000000000
20.0000000000 15.0000000000 0.0000000000 1.0495911790 0.0000000000 0.0259884481 0.0000000000 0.0000000000
20.0000000000 -15.0000000000 0.0000000000 1.0466998829 0.0000000000 0.0258367092 0.0000000000 0.0000000000
-10.0000000000 -15.0000000000 0.0000000000 1.0000000000 0.0000000000 87.8482779555 0.0000000000 0.0000000000
0.5894330589 -1.1801439477 0.0000000000 0.0000000000 0.0000000000 -488.4258772626 0.2229071228 -0.8400575790
0.6018929846 -1.1662012844 0.0000000000 0.0000000000 0.0000000000 -482.7677599499 0.2229071228 -0.8400575790
0.6138228642 -1.1518024797 0.0000000000 0.0000000000 0.0000000000 -477.0132570384 0.2229071228 -0.8400575790
0.6252060128 -1.1369676716 0.0000000000 0.0000000000 0.0000000000 -471.3547341804 0.2229071228 -0.8400575790
0.6360265101 -1.1217176078 0.0000000000 0.0000000000 0.0000000000 -465.9264943922 0.2229071228 -0.8400575790
0.6462692225 -1.1060736170 0.0000000000 0.0000000000 0.0000000000 -460.8713228958 0.2229071228 -0.8400575790
0.6559198248 -1.0900575788 0.0000000000 0.0000000000 0.0000000000 -456.3155915757 0.2229071228 -0.8400575790
0.6649648197 -1.0736918929 0.0000000000 0.0000000000 0.0000000000 -452.3751040575 0.2229071228 -0.8400575790
0.6733915568 -1.0569994483 0.0000000000 0.0000000000 0.0000000000 -449.1536785101 0.2229071228 -0.8400575790
0.6811882508 -1.0400035909 0.0000000000 0.0000000000 0.0000000000 -446.7445434794 0.2229071228 -0.8400575790
0.6883439972 -1.0227280910 0.0000000000 0.0000000000 0.0000000000 -445.2320643122 0.2229071228 -0.8400575790
0.6948487880 -1.0051971098 0.0000000000 0.0000000000 0.0000000000 -444.6935370958 0.2229071228 -0.8400575790
0.7006935257 -0.9874351660 0.0000000000 0.0000000000 0.0000000000 -445.2007171310 0.2229071228 -0.8400575790
0.7058700360 -0.9694671013 0.0000000000 0.0000000000 0.0000000000 -446.8205393205 0.2229071228 -0.8400575790
0.7103710789 -0.9513180458 0.0000000000 0.0000000000 0.0000000000 -449.6149216324 0.2229071228 -0.8400575790
0.7141903594 -0.9330133824 0.0000000000 0.0000000000 0.0000000000 -453.6396429009 0.2229071228 -0.8400575790
0.7173225359 -0.9145787119 0.0000000000 0.0000000000 0.0000000000 -458.9427253499 0.2229071228 -0.8400575790
0.7197632277 -0.8960398169 0.0000000000 0.0000000000 0.0000000000 -465.5626889222 0.2229071228 -0.8400575790
0.7215090214 -0.8774226256 0.0000000000 0.0000000000 0.0000000000 -473.5274458373 0.2229071228 -0.8400575790
0.7225574752 -0.8587531760 0.0000000000 0.0000000000 0.0000000000 -482.8537486487 0.2229071228 -0.8400575790
0.7229071228 -0.8400575788 0.0000000000 0.0000000000 0.0000000000 -493.5479935994 0.2229071228 -0.8400575790
0.7225574751 -0.8213619817 0.0000000000 0.0000000000 0.0000000000 -505.6067866792 0.2229071228 -0.8400575790
0.7215090213 -0.8026925321 0.0000000000 0.0000000000 0.0000000000 -519.0190170827 0.2229071228 -0.8400575790
0.7197632277 -0.7840753408 0.0000000000 0.0000000000 0.0000000000 -533.7649819973 0.2229071228 -0.8400575790
0.7173225358 -0.7655364458 0.0000000000 0.0000000000 0.0000000000 -549.8187131510 0.2229071228 -0.8400575790
0.7141903593 -0.7471017753 0.0000000000 0.0000000000 0.0000000000 -567.1421216706 0.2229071228 -0.8400575790
0.7103710788 -0.7287971119 0.0000000000 0.0000000000 0.0000000000 -585.6900066144 0.2229071228 -0.8400575790
0.7058700359 -0.7106480563 0.0000000000 0.0000000000 0.0000000000 -605.3946195841 0.2229071228 -0.8400575790
0.7006935256 -0.6926799917 0.0000000000 0.0000000000 0.0000000000 -626.1835554267 0.2229071228 -0.8400575790
0.6948487879 -0.6749180479 0.0000000000 0.0000000000 0.0000000000 -647.9430991282 0.2229071228 -0.8400575790
0.6883439970 -0.6573870667 0.0000000000 0.0000000000 0.0000000000 -670.5748177853 0.2229071228 -0.8400575790
0.6811882506 -0.6401115668 0.0000000000 0.0000000000 0.0000000000 -693.9020134802 0.2229071228 -0.8400575790
0.6733915567 -0.6231157094 0.0000000000 0.0000000000 0.0000000000 -717.8290673205 0.2229071228 -0.8400575790
0.6649648195 -0.6064232648 0.0000000000 0.0000000000 0.0000000000 -742.0891203939 0.2229071228 -0.8400575790
0.6559198246 -0.5900575790 0.0000000000 0.0000000000 0.0000000000 -766.6734533805 0.2229071228 -0.8400575790
0.6462692223 -0.5740415407 0.0000000000 0.0000000000 0.0000000000 -791.1423940631 0.2229071228 -0.8400575790
0.6360265099 -0.5583975499 0.0000000000 0.0000000000 0.0000000000 -815.7772406307 0.2229071228 -0.8400575790
0.6252060126 -0.5431474862 0.0000000000 0.0000000000 0.0000000000 -839.6942576989 0.2229071228 -0.8400575790
0.6138228639 -0.5283126781 0.0000000000 0.0000000000 0.0000000000 -863.9909930635 0.2229071228 -0.8400575790
0.6018929843 -0.5139138733 0.0000000000 0.0000000000 0.0000000000 -886.4641711168 0.2229071228 -0.8400575790
0.5894330586 -0.4999712101 0.0000000000 0.0000000000 0.0000000000 -910.6941517569 0.2229071228 -0.8400575790
0.5615479085 -0.4721956237 0.0000000000 0.0000000000 0.0000000000 -955.3670131594 0.2229071228 -0.8400575790
0.5460567416 -0.4585155449 0.0000000000 0.0000000000 0.0000000000 -976.8915441574 0.2229071228 -0.8400575790
0.5300134791 -0.4454873243 0.0000000000 0.0000000000 0.0000000000 -998.1312613975 0.2229071228 -0.8400575790
0.5134455304 -0.4331332204 0.0000000000 0.0000000000 0.0000000000 -1017.4561251900 0.2229071228 -0.8400575790
0.4963812018 -0.4214743399 0.0000000000 0.0000000000 0.0000000000 -1035.2641058105 0.2229071228 -0.8400575790
0.4788496472 -0.4105306018 0.0000000000 0.0000000000 0.0000000000 -1050.9763411954 0.2229071228 -0.8400575790
0.4608808192 -0.4003207034 0.0000000000 0.0000000000 0.0000000000 -1064.3710914106 0.2229071228 -0.8400575790
0.4425054171 -0.3908620881 0.0000000000 0.0000000000 0.0000000000 -1074.9729266015 0.2229071228 -0.8400575790
0.4237548350 -0.3821709157 0.0000000000 0.0000000000 0.0000000000 -1082.3284766949 0.2229071228 -0.8400575790
0.4046611080 -0.3742620350 0.0000000000 0.0000000000 0.0000000000 -1085.8830155709 0.2229071228 -0.8400575790
0.3852568573 -0.3671489582 0.0000000000 0.0000000000 0.0000000000 -1085.0438354492 0.2229071228 -0.8400575790
0.3655752348 -0.3608438378 0.0000000000 0.0000000000 0.0000000000 -1079.1662654141 0.2229071228 -0.8400575790
0.3456498662 -0.3553574460 0.0000000000 0.0000000000 0.0000000000 -1067.5826304725 0.2229071228 -0.8400575790
0.3255147938 -0.3506991564 0.0000000000 0.0000000000 0.0000000000 -1049.6210121851 0.2229071228 -0.8400575790
0.3052044178 -0.3468769273 0.0000000000 0.0000000000 0.0000000000 -1024.6375172743 0.2229071228 -0.8400575790
0.2847534383 -0.3438972892 0.0000000000 0.0000000000 0.0000000000 -992.0505483034 0.2229071228 -0.8400575790
0.2641967954 -0.3417653325 0.0000000000 0.0000000000 0.0000000000 -951.3800027385 0.2229071228 -0.8400575790
0.2435696098 -0.3404846998 0.0000000000 0.0000000000 0.0000000000 -902.2867409660 0.2229071228 -0.8400575790
0.2229071227 -0.3400575790 0.0000000000 0.0000000000 0.0000000000 -844.6098611205 0.2229071228 -0.8400575790
0.2022446355 -0.3404846998 0.0000000000 0.0000000000 0.0000000000 -778.3975336695 0.2229071228 -0.8400575790
0.1816174499 -0.3417653325 0.0000000000 0.0000000000 0.0000000000 -703.9276341835 0.2229071228 -0.8400575790
0.1610608070 -0.3438972892 0.0000000000 0.0000000000 0.0000000000 -621.7146859170 0.2229071228 -0.8400575790
0.1406098275 -0.3468769274 0.0000000000 0.0000000000 0.0000000000 -532.5008946283 0.2229071228 -0.8400575790
0.1202994515 -0.3506991564 0.0000000000 0.0000000000 0.0000000000 -437.2307815832 0.2229071228 -0.8400575790
0.1001643791 -0.3553574461 0.0000000000 0.0000000000 0.0000000000 -337.0110719720 0.2229071228 -0.8400575790
0.0802390105 -0.3608438378 0.0000000000 0.0000000000 0.0000000000 -233.0596108748 0.2229071228 -0.8400575790
0.0605573880 -0.3671489582 0.0000000000 0.0000000000 0.0000000000 -126.6487432128 0.2229071228 -0.8400575790
0.0411531374 -0.3742620351 0.0000000000 0.0000000000 0.0000000000 -19.0493963012 0.2229071228 -0.8400575790
0.0220594103 -0.3821709158 0.0000000000 0.0000000000 0.0000000000 88.5181706863 0.2229071228 -0.8400575790
0.0033088282 -0.3908620882 0.0000000000 0.0000000000 0.0000000000 194.9223022489 0.2229071228 -0.8400575790
-0.0150665739 -0.4003207035 0.0000000000 0.0000000000 0.0000000000 299.1439846233 0.2229071228 -0.8400575790
-0.0330354019 -0.4105306019 0.0000000000 0.0000000000 0.0000000000 400.2867562313 0.2229071228 -0.8400575790
-0.0505669564 -0.4214743400 0.0000000000 0.0000000000 0.0000000000 497.5743985531 0.2229071228 -0.8400575790
-0.0676312851 -0.4331332205 0.0000000000 0.0000000000 0.0000000000 590.3398333977 0.2229071228 -0.8400575790
-0.0841992337 -0.4454873244 0.0000000000 0.0000000000 0.0000000000 678.0093274787 0.2229071228 -0.8400575790
-0.1002424963 -0.4585155450 0.0000000000 0.0000000000 0.0000000000 760.0859252022 0.2229071228 -0.8400575790
-0.1157336632 -0.4721956238 0.0000000000 0.0000000000 0.0000000000 836.1351698802 0.2229071228 -0.8400575790
-0.1449548327 -0.5014167933 0.0000000000 0.0000000000 0.0000000000 968.6699009011 0.2229071228 -0.8400575790
-0.1586349114 -0.5169079602 0.0000000000 0.0000000000 0.0000000000 1024.5302477109 0.2229071228 -0.8400575790
-0.1716631320 -0.5329512228 0.0000000000 0.0000000000 0.0000000000 1073.1134806435 0.2229071228 -0.8400575790
-0.1840172360 -0.5495191715 0.0000000000 0.0000000000 0.0000000000 1114.2282913614 0.2229071228 -0.8400575790
-0.1956761165 -0.5665835001 0.0000000000 0.0000000000 0.0000000000 1147.7394592889 0.2229071228 -0.8400575790
-0.2066198545 -0.5841150546 0.0000000000 0.0000000000 0.0000000000 1173.5731420688 0.2229071228 -0.8400575790
-0.2168297529 -0.6020838827 0.0000000000 0.0000000000 0.0000000000 1191.7221510837 0.2229071228 -0.8400575790
-0.2262883683 -0.6204592848 0.0000000000 0.0000000000 0.0000000000 1202.2509545751 0.2229071228 -0.8400575790
-0.2349795406 -0.6392098669 0.0000000000 0.0000000000 0.0000000000 1205.3001892504 0.2229071228 -0.8400575790
-0.2428884213 -0.6583035939 0.0000000000 0.0000000000 0.0000000000 1201.0904380790 0.2229071228 -0.8400575790
-0.2500014982 -0.6777078446 0.0000000000 0.0000000000 0.0000000000 1189.9249890198 0.2229071228 -0.8400575790
-0.2563066185 -0.6973894671 0.0000000000 0.0000000000 0.0000000000 1172.1912461261 0.2229071228 -0.8400575790
-0.2617930103 -0.7173148357 0.0000000000 0.0000000000 0.0000000000 1148.3604194188 0.2229071228 -0.8400575790
-0.2664512999 -0.7374499081 0.0000000000 0.0000000000 0.0000000000 1118.9850625940 0.2229071228 -0.8400575790
-0.2702735290 -0.7577602841 0.0000000000 0.0000000000 0.0000000000 1084.6939508155 0.2229071228 -0.8400575790
-0.2732531671 -0.7782112636 0.0000000000 0.0000000000 0.0000000000 1046.1836999404 0.2229071228 -0.8400575790
-0.2753851238 -0.7987679065 0.0000000000 0.0000000000 0.0000000000 1004.2064488059 0.2229071228 -0.8400575790
-0.2766657564 -0.8193950921 0.0000000000 0.0000000000 0.0000000000 959.5529089777 0.2229071228 -0.8400575790
-0.2770928772 -0.8400575792 0.0000000000 0.0000000000 0.0000000000 913.0302132802 0.2229071228 -0.8400575790
-0.2766657564 -0.8607200664 0.0000000000 0.0000000000 0.0000000000 865.4343736075 0.2229071228 -0.8400575790
-0.2753851237 -0.8813472520 0.0000000000 0.0000000000 0.0000000000 817.5179013879 0.2229071228 -0.8400575790
-0.2732531671 -0.9019038949 0.0000000000 0.0000000000 0.0000000000 769.9543102459 0.2229071228 -0.8400575790
-0.2702735289 -0.9223548744 0.0000000000 0.0000000000 0.0000000000 723.3027280983 0.2229071228 -0.8400575790
-0.2664512999 -0.9426652503 0.0000000000 0.0000000000 0.0000000000 677.9773753866 0.2229071228 -0.8400575790
-0.2617930102 -0.9628003228 0.0000000000 0.0000000000 0.0000000000 634.2276278518 0.2229071228 -0.8400575790
-0.2563066184 -0.9827256914 0.0000000000 0.0000000000 0.0000000000 592.1340467622 0.2229071228 -0.8400575790
-0.2500014980 -1.0024073139 0.0000000000 0.0000000000 0.0000000000 551.6235969538 0.2229071228 -0.8400575790
-0.2428884212 -1.0218115645 0.0000000000 0.0000000000 0.0000000000 512.5033947956 0.2229071228 -0.8400575790
-0.2349795405 -1.0409052916 0.0000000000 0.0000000000 0.0000000000 474.5077421611 0.2229071228 -0.8400575790
-0.2262883681 -1.0596558737 0.0000000000 0.0000000000 0.0000000000 437.3495730792 0.2229071228 -0.8400575790
-0.2168297527 -1.0780312758 0.0000000000 0.0000000000 0.0000000000 400.7663268249 0.2229071228 -0.8400575790
-0.2066198543 -1.0960001038 0.0000000000 0.0000000000 0.0000000000 364.5522399517 0.2229071228 -0.8400575790
-0.1956761162 -1.1135316583 0.0000000000 0.0000000000 0.0000000000 328.5733349409 0.2229071228 -0.8400575790
-0.1840172357 -1.1305959869 0.0000000000 0.0000000000 0.0000000000 292.7662175989 0.2229071228 -0.8400575790
-0.1716631318 -1.1471639356 0.0000000000 0.0000000000 0.0000000000 257.1254262842 0.2229071228 -0.8400575790
-0.1586349112 -1.1632071982 0.0000000000 0.0000000000 0.0000000000 221.6854785549 0.2229071228 -0.8400575790
-0.1449548324 -1.1786983650 0.0000000000 0.0000000000 0.0000000000 186.5031109680 0.2229071228 -0.8400575790
-0.1157336629 -1.2079195346 0.0000000000 0.0000000000 0.0000000000 117.1696119299 0.2229071228 -0.8400575790
-0.1002424960 -1.2215996133 0.0000000000 0.0000000000 0.0000000000 83.1409207001 0.2229071228 -0.8400575790
-0.0841992334 -1.2346278339 0.0000000000 0.0000000000 0.0000000000 49.6092006187 0.2229071228 -0.8400575790
-0.0676312847 -1.2469819378 0.0000000000 0.0000000000 0.0000000000 16.6210333577 0.2229071228 -0.8400575790
-0.0505669561 -1.2586408183 0.0000000000 0.0000000000 0.0000000000 -15.7807429280 0.2229071228 -0.8400575790
-0.0330354016 -1.2695845564 0.0000000000 0.0000000000 0.0000000000 -47.5552516330 0.2229071228 -0.8400575790
-0.0150665735 -1.2797944548 0.0000000000 0.0000000000 0.0000000000 -78.6621528802 0.2229071228 -0.8400575790
0.0033088286 -1.2892530701 0.0000000000 0.0000000000 0.0000000000 -109.0607506512 0.2229071228 -0.8400575790
0.0220594107 -1.2979442425 0.0000000000 0.0000000000 0.0000000000 -138.7095871727 0.2229071228 -0.8400575790
0.0411531377 -1.3058531232 0.0000000000 0.0000000000 0.0000000000 -167.5664116083 0.2229071228 -0.8400575790
0.0605573884 -1.3129662000 0.0000000000 0.0000000000 0.0000000000 -195.5883552301 0.2229071228 -0.8400575790
0.0802390109 -1.3192713203 0.0000000000 0.0000000000 0.0000000000 -222.7321643640 0.2229071228 -0.8400575790
0.1001643795 -1.3247577121 0.0000000000 0.0000000000 0.0000000000 -248.9543761268 0.2229071228 -0.8400575790
0.1202994519 -1.3294160018 0.0000000000 0.0000000000 0.0000000000 -274.2113807388 0.2229071228 -0.8400575790
0.1406098279 -1.3332382308 0.0000000000 0.0000000000 0.0000000000 -298.4593635486 0.2229071228 -0.8400575790
0.1610608074 -1.3362178689 0.0000000000 0.0000000000 0.0000000000 -321.6541576844 0.2229071228 -0.8400575790
0.1816174503 -1.3383498256 0.0000000000 0.0000000000 0.0000000000 -343.7510552441 0.2229071228 -0.8400575790
0.2022446359 -1.3396304582 0.0000000000 0.0000000000 0.0000000000 -364.7046311388 0.2229071228 -0.8400575790
0.2229071231 -1.3400575790 0.0000000000 0.0000000000 0.0000000000 -384.4686311991 0.2229071228 -0.8400575790
0.2435696102 -1.3396304582 0.0000000000 0.0000000000 0.0000000000 -402.9959785605 0.2229071228 -0.8400575790
0.2641967958 -1.3383498255 0.0000000000 0.0000000000 0.0000000000 -420.2389481809 0.2229071228 -0.8400575790
0.2847534387 -1.3362178689 0.0000000000 0.0000000000 0.0000000000 -436.1495746498 0.2229071228 -0.8400575790
0.3052044182 -1.3332382307 0.0000000000 0.0000000000 0.0000000000 -450.6803392852 0.2229071228 -0.8400575790
0.3255147942 -1.3294160016 0.0000000000 0.0000000000 0.0000000000 -463.7852270584 0.2229071228 -0.8400575790
0.3456498666 -1.3247577119 0.0000000000 0.0000000000 0.0000000000 -475.4211486364 0.2229071228 -0.8400575790
0.3655752352 -1.3192713202 0.0000000000 0.0000000000 0.0000000000 -485.5498799071 0.2229071228 -0.8400575790
0.3852568577 -1.3129661998 0.0000000000 0.0000000000 0.0000000000 -494.1402939229 0.2229071228 -0.8400575790
0.4046611083 -1.3058531229 0.0000000000 0.0000000000 0.0000000000 -501.1713081477 0.2229071228 -0.8400575790
0.4237548354 -1.2979442422 0.0000000000 0.0000000000 0.0000000000 -506.6345303503 0.2229071228 -0.8400575790
0.4425054175 -1.2892530698 0.0000000000 0.0000000000 0.0000000000 -510.5383015434 0.2229071228 -0.8400575790
0.4608808196 -1.2797944545 0.0000000000 0.0000000000 0.0000000000 -512.9091848206 0.2229071228 -0.8400575790
0.4788496476 -1.2695845560 0.0000000000 0.0000000000 0.0000000000 -513.7981787712 0.2229071228 -0.8400575790
0.4963812021 -1.2586408180 0.0000000000 0.0000000000 0.0000000000 -513.2761047678 0.2229071228 -0.8400575790
0.5134455307 -1.2469819375 0.0000000000 0.0000000000 0.0000000000 -511.4488033468 0.2229071228 -0.8400575790
0.5300134794 -1.2346278335 0.0000000000 0.0000000000 0.0000000000 -508.4292335970 0.2229071228 -0.8400575790
0.5460567420 -1.2215996129 0.0000000000 0.0000000000 0.0000000000 -504.3932139036 0.2229071228 -0.8400575790
0.5615479088 -1.2079195341 0.0000000000 0.0000000000 0.0000000000 -499.4619532994 0.2229071228 -0.8400575790
0.7750407120 -1.3458911289 0.0000000000 -0.2064938856 -0.2117500180 -498.8035866210 0.2252518078 -0.8357615759
0.7935795763 -1.3246898478 0.0000000000 -0.1970013909 -0.1859616760 -481.3962351307 0.2251007836 -0.8354742897
0.8113202487 -1.3028101318 0.0000000000 -0.1848514255 -0.1607762264 -464.4939946808 0.2249466365 -0.8351927808
0.8282382143 -1.2802838683 0.0000000000 -0.1704637791 -0.1378976216 -448.5825369845 0.2247898792 -0.8349187295
0.8443101743 -1.2571440047 0.0000000000 -0.1542945407 -0.1184769650 -434.0355861346 0.2246310933 -0.8346539616
0.8595140052 -1.2334243979 0.0000000000 -0.1368407938 -0.1031141747 -421.1083741091 0.2244708556 -0.8344003409
0.8738287522 -1.2091597086 0.0000000000 -0.1186175188 -0.0919547554 -409.9474496015 0.2243096991 -0.8341597090
0.8872346397 -1.1843853140 0.0000000000 -0.1001281885 -0.0848198098 -400.6087747180 0.2241480943 -0.8339338432
0.8997130934 -1.1591372291 0.0000000000 -0.0818317082 -0.0813338096 -393.0794352168 0.2239864423 -0.8337244252
0.9112467720 -1.1334520339 0.0000000000 -0.0641123404 -0.0810290599 -387.2991413684 0.2238250799 -0.8335330161
0.9218196028 -1.1073668039 0.0000000000 -0.0472585490 -0.0834193400 -383.1791491426 0.2236642912 -0.8333610360
0.9314168204 -1.0809190421 0.0000000000 -0.0314541847 -0.0880443213 -380.6173713221 0.2235043225 -0.8332097461
0.9400250014 -1.0541466136 0.0000000000 -0.0167822147 -0.0944908596 -379.5092614736 0.2233453970 -0.8330802332
0.9476320967 -1.0270876800 0.0000000000 -0.0032384888 -0.1023982470 -379.7546402027 0.2231877269 -0.8329733966
0.9542274572 -0.9997806366 0.0000000000 0.0092485211 -0.1114536116 -381.2610293473 0.2230315230 -0.8328899365
0.9598018555 -0.9722640502 0.0000000000 0.0207963630 -0.1213821981 -383.9442830644 0.2228770005 -0.8328303452
0.9643475017 -0.9445765987 0.0000000000 0.0315493022 -0.1319359567 -387.7273706695 0.2227243820 -0.8327948994
0.9678580561 -0.9167570124 0.0000000000 0.0416634607 -0.1428828330 -392.5381042346 0.2225738986 -0.8327836556
0.9703286358 -0.8888440171 0.0000000000 0.0512972979 -0.1539982965 -398.3064566819 0.2224257879 -0.8327964473
0.9717558190 -0.8608762788 0.0000000000 0.0606069719 -0.1650598853 -404.9619320507 0.2222802904 -0.8328328834
0.9721376436 -0.8328923501 0.0000000000 0.0697451611 -0.1758449230 -412.4312737196 0.2221376436 -0.8328923504
0.9714736026 -0.8049306189 0.0000000000 0.0788615072 -0.1861311404 -420.6366596223 0.2219980740 -0.8329740149
0.9697646352 -0.7770292592 0.0000000000 0.0881029470 -0.1956997429 -429.4944472379 0.2218617874 -0.8330768297
0.9670131160 -0.7492261847 0.0000000000 0.0976126888 -0.2043404366 -438.9144890046 0.2217289587 -0.8331995420
0.9632228406 -0.7215590050 0.0000000000 0.1075272609 -0.2118579764 -448.8000242131 0.2215997210 -0.8333407049
0.9583990105 -0.6940649868 0.0000000000 0.1179717185 -0.2180798187 -459.0481478260 0.2214741556 -0.8334986924
0.9525482170 -0.6667810180 0.0000000000 0.1290536262 -0.2228644075 -469.5508451749 0.2213522829 -0.8336717187
0.9456784245 -0.6397435797 0.0000000000 0.1408567652 -0.2261094702 -480.1965551967 0.2212340548 -0.8338578638
0.9377989537 -0.6129887225 0.0000000000 0.1534356465 -0.2277594958 -490.8721813668 0.2211193494 -0.8340551035
0.9289204636 -0.5865520506 0.0000000000 0.1668118691 -0.2278113542 -501.4654126065 0.2210079660 -0.8342613473
0.9190549325 -0.5604687131 0.0000000000 0.1809731619 -0.2263168935 -511.8671559166 0.2208996211 -0.8344744815
0.9082156368 -0.5347734001 0.0000000000 0.1958756346 -0.2233813835 -521.9738327838 0.2207939450 -0.8346924185
0.8964171272 -0.5095003456 0.0000000000 0.2114493485 -0.2191569438 -531.6892688987 0.2206904764 -0.8349131501
0.8836752018 -0.4846833324 0.0000000000 0.2276068508 -0.2138306240 -540.9259253738 0.2205886567 -0.8351348038
0.8700068775 -0.4603556998 0.0000000000 0.2442538354 -0.2076075838 -549.6052859971 0.2204878247 -0.8353557000
0.8554303612 -0.4365503513 0.0000000000 0.2613006692 -0.2006907385 -557.6573240710 0.2203872119 -0.8355744088
0.8399650256 -0.4132997622 0.0000000000 0.2786732428 -0.1932591351 -565.0191093241 0.2202859450 -0.8357898058
0.8236313909 -0.3906359877 0.0000000000 0.2963215417 -0.1854479712 -571.6327467579 0.2201830561 -0.8360011270
0.8064511088 -0.3685906744 0.0000000000 0.3142245643 -0.1773333540 -577.4429924129 0.2200774970 -0.8362080259
0.7884469219 -0.3471950835 0.0000000000 0.3323906924 -0.1689244231 -582.3947844744 0.2199681296 -0.8364106420
0.7696425075 -0.3264801249 0.0000000000 0.3508533856 -0.1601642787 -586.4307826863 0.2198536037 -0.8366096783
0.7276117838 -0.2851768897 0.0000000000 0.3909229849 -0.1400328125 -591.6228718474 0.2196506051 -0.8369698227
0.7042875199 -0.2648176403 0.0000000000 0.4127547368 -0.1281299945 -592.3567022627 0.2195630915 -0.8371306915
0.6801307941 -0.2454323383 0.0000000000 0.4351873114 -0.1150345337 -591.6229876136 0.2194712597 -0.8372877204
0.6551842492 -0.2270538627 0.0000000000 0.4582311380 -0.1005697021 -589.3225528775 0.2193766377 -0.8374404007
0.6294917525 -0.2097137172 0.0000000000 0.4818530343 -0.0846232643 -585.3577155509 0.2192806340 -0.8375885760
0.6030984217 -0.1934417828 0.0000000000 0.5059766255 -0.0671564826 -579.6351101542 0.2191846349 -0.8377322487
0.5760506133 -0.1782662129 0.0000000000 0.5304833571 -0.0482091461 -572.0680117072 0.2190900686 -0.8378715264
0.5483958670 -0.1642133570 0.0000000000 0.5552148786 -0.0279013888 -562.5777699956 0.2189984254 -0.8380065934
0.5201828197 -0.1513076873 0.0000000000 0.5799754751 -0.0064349975 -551.0942761599 0.2189112513 -0.8381376823
0.4914610982 -0.1395717276 0.0000000000 0.6045346641 0.0159057638 -537.5553883044 0.2188301204 -0.8382650437
0.4622811976 -0.1290259877 0.0000000000 0.6286308580 0.0387559892 -521.9053740218 0.2187565958 -0.8383889191
0.4326943546 -0.1196889081 0.0000000000 0.6519772971 0.0616780592 -504.0925952505 0.2186921866 -0.8385095200
0.4027524207 -0.1115768127 0.0000000000 0.6742712412 0.0841790178 -484.0668823126 0.2186383055 -0.8386270122
0.3725077389 -0.1047038713 0.0000000000 0.6952068317 0.1057395056 -461.7773005043 0.2185962324 -0.8387415053
0.3420130273 -0.0990820677 0.0000000000 0.7144912585 0.1258542536 -437.1712292908 0.2185670848 -0.8388530453
0.3113212706 -0.0947211767 0.0000000000 0.7318629954 0.1440814496 -410.1957392297 0.2185517973 -0.8389616115
0.2804856172 -0.0916287476 0.0000000000 0.7471100253 0.1600953611 -380.8020544416 0.2185511083 -0.8390671174
0.2495592834 -0.0898100954 0.0000000000 0.7600853256 0.1737339716 -348.9533699629 0.2185655528 -0.8391694142
0.2185954614 -0.0892682989 0.0000000000 0.7707166493 0.1850318446 -314.6354943535 0.2185954615 -0.8392682989
0.1876472311 -0.0900042054 0.0000000000 0.7790080349 0.1942288322 -277.8688763505 0.2186409620 -0.8393635242
0.1567674739 -0.0920164392 0.0000000000 0.7850316435 0.2017482204 -238.7198319695 0.2187019832 -0.8394548090
0.1260087876 -0.0953014146 0.0000000000 0.7889103701 0.2081434535 -197.3085351939 0.2187782612 -0.8395418494
0.0954234030 -0.0998533511 0.0000000000 0.7907938453 0.2140197572 -153.8117931767 0.2188693459 -0.8396243286
0.0650631019 -0.1056642905 0.0000000000 0.7908323302 0.2199439206 -108.4597718634 0.2189746088 -0.8397019244
0.0349791358 -0.1127241170 0.0000000000 0.7891539001 0.2263598384 -61.5273355816 0.2190932513 -0.8397743164
0.0052221467 -0.1210205802 0.0000000000 0.7858497373 0.2335271943 -13.3219707972 0.2192243150 -0.8398411920
-0.0241579103 -0.1305393218 0.0000000000 0.7809703115 0.2414953358 35.8291184581 0.2193666918 -0.8399022530
-0.0531118421 -0.1412639078 0.0000000000 0.7745323268 0.2501153594 85.5904204698 0.2195191360 -0.8399572237
-0.0815912904 -0.1531758652 0.0000000000 0.7665335442 0.2590837202 135.6266454034 0.2196802783 -0.8400058601
-0.1095488015 -0.1662547250 0.0000000000 0.7569708842 0.2680036921 185.6081272537 0.2198486403 -0.8400479613
-0.1369378925 -0.1804780687 0.0000000000 0.7458570889 0.2764488953 235.2137271301 0.2200226524 -0.8400833820
-0.1637131140 -0.1958215797 0.0000000000 0.7332325073 0.2840158843 284.1322545583 0.2202006730 -0.8401120454
-0.1898301077 -0.2122590964 0.0000000000 0.7191705811 0.2903586081 332.0633634986 0.2203810110 -0.8401339550
-0.2152456597 -0.2297626666 0.0000000000 0.7037774943 0.2952038785 378.7185438451 0.2205619520 -0.8401492044
-0.2399177484 -0.2483026022 0.0000000000 0.6871877008 0.2983515850 423.8224582292 0.2207417863 -0.8401579841
-0.2638055871 -0.2678475340 0.0000000000 0.6695574188 0.2996654121 467.1146226544 0.2209188415 -0.8401605850
-0.2868696620 -0.2883644668 0.0000000000 0.6510577987 0.2990596914 508.3512893571 0.2210915169 -0.8401573997
-0.3303750035 -0.3321743213 0.0000000000 0.6121746029 0.2919254288 583.7778404644 0.2214179297 -0.8401354998
-0.3507438923 -0.3553935499 0.0000000000 0.5921592844 0.2853760070 617.5805171049 0.2215691590 -0.8401179782
-0.3701443285 -0.3794374658 0.0000000000 0.5720046407 0.2768536205 648.5563243350 0.2217110537 -0.8400970002
-0.3885436408 -0.4042656472 0.0000000000 0.5518878144 0.2663870604 676.5710367160 0.2218428973 -0.8400732585
-0.4059106340 -0.4298363476 0.0000000000 0.5319795863 0.2540175518 701.5162624756 0.2219642248 -0.8400474660
-0.4222156405 -0.4561065465 0.0000000000 0.5124428634 0.2397983633 723.3102308623 0.2220748254 -0.8400203331
-0.4374305788 -0.4830320057 0.0000000000 0.4934313025 0.2237945554 741.8983274945 0.2221747347 -0.8399925503
-0.4515290213 -0.5105673310 0.0000000000 0.4750880510 0.2060825519 757.2533409774 0.2222642152 -0.8399647724
-0.4644862689 -0.5386660393 0.0000000000 0.4575445965 0.1867493727 769.3753701209 0.2223437262 -0.8399376076
-0.4762794291 -0.5672806311 0.0000000000 0.4409197112 0.1658915056 778.2913363591 0.2224138870 -0.8399116087
-0.4868874953 -0.5963626669 0.0000000000 0.4253184853 0.1436134730 784.0540546887 0.2224754360 -0.8398872685
-0.4962914217 -0.6258628494 0.0000000000 0.4108314753 0.1200261710 786.7408357104 0.2225291902 -0.8398650173
-0.5044741923 -0.6557311075 0.0000000000 0.3975340225 0.0952450364 786.4516115866 0.2225760072 -0.8398452226
-0.5114208805 -0.6859166844 0.0000000000 0.3854858077 0.0693880703 783.3065934224 0.2226167536 -0.8398281908
-0.5171186981 -0.7163682262 0.0000000000 0.3747306942 0.0425737386 777.4434780074 0.2226522795 -0.8398141686
-0.5215570340 -0.7470338725 0.0000000000 0.3652968881 0.0149187820 769.0142337541 0.2226834008 -0.8398033456
-0.5247274815 -0.7778613474 0.0000000000 0.3571974301 -0.0134640120 758.1815129106 0.2227108883 -0.8397958562
-0.5266238573 -0.8087980508 0.0000000000 0.3504310220 -0.0424680089 745.1147593612 0.2227354615 -0.8397917812
-0.5272422118 -0.8397911503 0.0000000000 0.3449831876 -0.0719948260 729.9861055222 0.2227577882 -0.8397911500
-0.5265808333 -0.8707876731 0.0000000000 0.3408277583 -0.1019562608 712.9661746799 0.2227784855 -0.8397939421
-0.5246402466 -0.9017345976 0.0000000000 0.3379286616 -0.1322759844 694.2199237700 0.2227981231 -0.8398000881
-0.5214232066 -0.9325789460 0.0000000000 0.3362419679 -0.1628909415 673.9026734450 0.2228172282 -0.8398094722