 TITLE = "Tecplot data"
 VARIABLES = "X", "Y", "Z" "U", "V", "p", "dispX", "dispY"
 ZONE SOLUTIONTIME=164.900000, NODES=26114 , ELEMENTS=25916, DATAPACKING=POINT, ZONETYPE=FEQUADRILATERAL
4.1921283538 -12.0019637049 0.0000000000 0.0000000000 0.0000000000 -4825.6587446823 3.8385749633 -12.3555170955
4.1921283541 -12.7090704858 0.0000000000 0.0000000000 0.0000000000 -22285.9468110556 3.8385749633 -12.3555170955
3.4850215725 -12.0019637050 0.0000000000 0.0000000000 0.0000000000 5111.9471306257 3.8385749633 -12.3555170955
3.4850215728 -12.7090704863 0.0000000000 0.0000000000 0.0000000000 21419.1141508200 3.8385749633 -12.3555170955
4.3211949712 -11.7774686059 0.0000000000 0.3702396124 -0.0603305993 -3593.6325949207 3.7908648853 -12.3077986919
4.4013928233 -12.8279385329 0.0000000000 1.8839451771 1.2919806499 -11894.9808210347 3.8710627371 -12.2976084474
3.2828830836 -11.8270463837 0.0000000000 0.1936931586 0.3101333852 5092.8541233645 3.8132131696 -12.3573764694
3.3138125754 -12.8864105726 0.0000000000 2.1448019902 -1.3712890774 13465.7206403783 3.8441426610 -12.3560804865
4.5867907637 -10.9385278350 0.0000000000 0.7642160094 -0.2530205385 -983.8902340235 3.5261305920 -11.9991880069
5.0843354685 -13.0215633378 0.0000000000 1.5656141718 0.4329497610 -4666.6191864713 4.0236752960 -11.9609031668
2.6278663294 -11.2841633135 0.0000000000 0.8096197320 -0.5030257898 4189.7159662172 3.6885265015 -12.3448234850
2.8265095493 -13.4017000692 0.0000000000 1.7395270150 -0.5773378609 7022.7565965892 3.8871697205 -12.3410398969
6.4731588841 -6.8585145568 0.0000000000 0.8630727661 -0.2633887095 574.7477494138 2.2731588841 -10.1585145568
8.9740866111 -13.4099170748 0.0000000000 1.9991144205 -0.2026167812 -697.8869717053 4.7740866111 -10.1099170748
20.0000000000 4.7000000000 0.0000000000 -0.6801710030 1.5224533442 0.1611628118 0.0000000000 0.0000000000
20.0000000000 -4.7000000000 0.0000000000 1.2483153844 -0.5693706691 0.7566985222 0.0000000000 0.0000000000
-10.0000000000 15.0000000000 0.0000000000 1.0000000000 0.0000000000 1638.2795009060 0.0000000000 0.0000000000
20.0000000000 15.0000000000 0.0000000000 2.2693314991 0.0000000000 18.7621055774 0.0000000000 0.0000000000
20.0000000000 -15.0000000000 0.0000000000 2.3249929181 0.0000000000 -0.6385594937 0.0000000000 0.0000000000
-10.0000000000 -15.0000000000 0.0000000000 1.0000000000 0.0000000000 2856.4496944187 0.0000000000 0.0000000000
4.2051008994 -12.6956034641 0.0000000000 0.0000000000 0.0000000000 -22889.2872109797 3.8385749633 -12.3555170955
4.2175608250 -12.6816608009 0.0000000000 0.0000000000 0.0000000000 -23286.5700326516 3.8385749633 -12.3555170955
4.2294907047 -12.6672619962 0.0000000000 0.0000000000 0.0000000000 -23673.7099821885 3.8385749633 -12.3555170955
4.2408738533 -12.6524271880 0.0000000000 0.0000000000 0.0000000000 -23937.3785058188 3.8385749633 -12.3555170955
4.2516943506 -12.6371771242 0.0000000000 0.0000000000 0.0000000000 -24140.6278089972 3.8385749633 -12.3555170955
4.2619370630 -12.6215331335 0.0000000000 0.0000000000 0.0000000000 -24248.4209786014 3.8385749633 -12.3555170955
4.2715876653 -12.6055170952 0.0000000000 0.0000000000 0.0000000000 -24282.9378559034 3.8385749633 -12.3555170955
4.2806326601 -12.5891514094 0.0000000000 0.0000000000 0.0000000000 -24233.6348300181 3.8385749633 -12.3555170955
4.2890593973 -12.5724589648 0.0000000000 0.0000000000 0.0000000000 -24110.2481937520 3.8385749633 -12.3555170955
4.2968560913 -12.5554631074 0.0000000000 0.0000000000 0.0000000000 -23910.8688719487 3.8385749633 -12.3555170955
4.3040118377 -12.5381876074 0.0000000000 0.0000000000 0.0000000000 -23641.3599325265 3.8385749633 -12.3555170955
4.3105166285 -12.5206566262 0.0000000000 0.0000000000 0.0000000000 -23303.3102016739 3.8385749633 -12.3555170955
4.3163613662 -12.5028946824 0.0000000000 0.0000000000 0.0000000000 -22901.5045019933 3.8385749633 -12.3555170955
4.3215378765 -12.4849266178 0.0000000000 0.0000000000 0.0000000000 -22439.1727474977 3.8385749633 -12.3555170955
4.3260389194 -12.4667775622 0.0000000000 0.0000000000 0.0000000000 -21920.9654649132 3.8385749633 -12.3555170955
4.3298581999 -12.4484728988 0.0000000000 0.0000000000 0.0000000000 -21351.0028623467 3.8385749633 -12.3555170955
4.3329903764 -12.4300382283 0.0000000000 0.0000000000 0.0000000000 -20734.0900331048 3.8385749633 -12.3555170955
4.3354310682 -12.4114993333 0.0000000000 0.0000000000 0.0000000000 -20074.8796147572 3.8385749633 -12.3555170955
4.3371768619 -12.3928821421 0.0000000000 0.0000000000 0.0000000000 -19378.3746069472 3.8385749633 -12.3555170955
4.3382253157 -12.3742126924 0.0000000000 0.0000000000 0.0000000000 -18649.5504818961 3.8385749633 -12.3555170955
4.3385749633 -12.3555170953 0.0000000000 0.0000000000 0.0000000000 -17893.5641734893 3.8385749633 -12.3555170955
4.3382253156 -12.3368214981 0.0000000000 0.0000000000 0.0000000000 -17115.5780050599 3.8385749633 -12.3555170955
4.3371768618 -12.3181520485 0.0000000000 0.0000000000 0.0000000000 -16320.8539096517 3.8385749633 -12.3555170955
4.3354310682 -12.2995348573 0.0000000000 0.0000000000 0.0000000000 -15514.6840456836 3.8385749633 -12.3555170955
4.3329903763 -12.2809959622 0.0000000000 0.0000000000 0.0000000000 -14702.4611938683 3.8385749633 -12.3555170955
4.3298581998 -12.2625612917 0.0000000000 0.0000000000 0.0000000000 -13889.6950379337 3.8385749633 -12.3555170955
4.3260389193 -12.2442566283 0.0000000000 0.0000000000 0.0000000000 -13082.1153739869 3.8385749633 -12.3555170955
4.3215378764 -12.2261075728 0.0000000000 0.0000000000 0.0000000000 -12285.7704941899 3.8385749633 -12.3555170955
4.3163613661 -12.2081395081 0.0000000000 0.0000000000 0.0000000000 -11507.1511384415 3.8385749633 -12.3555170955
4.3105166284 -12.1903775644 0.0000000000 0.0000000000 0.0000000000 -10753.2528246880 3.8385749633 -12.3555170955
4.3040118375 -12.1728465832 0.0000000000 0.0000000000 0.0000000000 -10031.4565263040 3.8385749633 -12.3555170955
4.2968560911 -12.1555710832 0.0000000000 0.0000000000 0.0000000000 -9349.0947713936 3.8385749633 -12.3555170955
4.2890593972 -12.1385752258 0.0000000000 0.0000000000 0.0000000000 -8712.5339908971 3.8385749633 -12.3555170955
4.2806326600 -12.1218827813 0.0000000000 0.0000000000 0.0000000000 -8125.9335398668 3.8385749633 -12.3555170955
4.2715876651 -12.1055170954 0.0000000000 0.0000000000 0.0000000000 -7590.0921114857 3.8385749633 -12.3555170955
4.2619370628 -12.0895010571 0.0000000000 0.0000000000 0.0000000000 -7101.9859041040 3.8385749633 -12.3555170955
4.2516943504 -12.0738570664 0.0000000000 0.0000000000 0.0000000000 -6655.7658558514 3.8385749633 -12.3555170955
4.2408738531 -12.0586070026 0.0000000000 0.0000000000 0.0000000000 -6243.9157839147 3.8385749633 -12.3555170955
4.2294907044 -12.0437721945 0.0000000000 0.0000000000 0.0000000000 -5860.0936458908 3.8385749633 -12.3555170955
4.2175608248 -12.0293733898 0.0000000000 0.0000000000 0.0000000000 -5497.8567051568 3.8385749633 -12.3555170955
4.2051008991 -12.0154307266 0.0000000000 0.0000000000 0.0000000000 -5155.1391537116 3.8385749633 -12.3555170955
4.1772157490 -11.9876551401 0.0000000000 0.0000000000 0.0000000000 -4480.0702531073 3.8385749633 -12.3555170955
4.1617245821 -11.9739750613 0.0000000000 0.0000000000 0.0000000000 -4146.8068547838 3.8385749633 -12.3555170955
4.1456813195 -11.9609468407 0.0000000000 0.0000000000 0.0000000000 -3827.3597473056 3.8385749633 -12.3555170955
4.1291133709 -11.9485927368 0.0000000000 0.0000000000 0.0000000000 -3518.1330624747 3.8385749633 -12.3555170955
4.1120490423 -11.9369338563 0.0000000000 0.0000000000 0.0000000000 -3219.1586981677 3.8385749633 -12.3555170955
4.0945174877 -11.9259901183 0.0000000000 0.0000000000 0.0000000000 -2928.3624087238 3.8385749633 -12.3555170955
4.0765486597 -11.9157802198 0.0000000000 0.0000000000 0.0000000000 -2645.3335628253 3.8385749633 -12.3555170955
4.0581732576 -11.9063216045 0.0000000000 0.0000000000 0.0000000000 -2368.7686939715 3.8385749633 -12.3555170955
4.0394226755 -11.8976304321 0.0000000000 0.0000000000 0.0000000000 -2098.1600685731 3.8385749633 -12.3555170955
4.0203289485 -11.8897215514 0.0000000000 0.0000000000 0.0000000000 -1832.6304643440 3.8385749633 -12.3555170955
4.0009246978 -11.8826084746 0.0000000000 0.0000000000 0.0000000000 -1571.6867926922 3.8385749633 -12.3555170955
3.9812430753 -11.8763033542 0.0000000000 0.0000000000 0.0000000000 -1314.6921431589 3.8385749633 -12.3555170955
3.9613177067 -11.8708169625 0.0000000000 0.0000000000 0.0000000000 -1061.1984930066 3.8385749633 -12.3555170955
3.9411826343 -11.8661586728 0.0000000000 0.0000000000 0.0000000000 -810.7114589139 3.8385749633 -12.3555170955
3.9208722583 -11.8623364438 0.0000000000 0.0000000000 0.0000000000 -562.8333593707 3.8385749633 -12.3555170955
3.9004212788 -11.8593568056 0.0000000000 0.0000000000 0.0000000000 -317.1601509269 3.8385749633 -12.3555170955
3.8798646359 -11.8572248490 0.0000000000 0.0000000000 0.0000000000 -73.3403419912 3.8385749633 -12.3555170955
3.8592374503 -11.8559442163 0.0000000000 0.0000000000 0.0000000000 168.9696747251 3.8385749633 -12.3555170955
3.8385749631 -11.8555170955 0.0000000000 0.0000000000 0.0000000000 410.0830080277 3.8385749633 -12.3555170955
3.8179124760 -11.8559442163 0.0000000000 0.0000000000 0.0000000000 650.3017023270 3.8385749633 -12.3555170955
3.7972852904 -11.8572248490 0.0000000000 0.0000000000 0.0000000000 889.9091164231 3.8385749633 -12.3555170955
3.7767286475 -11.8593568056 0.0000000000 0.0000000000 0.0000000000 1129.1786485424 3.8385749633 -12.3555170955
3.7562776680 -11.8623364438 0.0000000000 0.0000000000 0.0000000000 1368.3719421051 3.8385749633 -12.3555170955
3.7359672920 -11.8661586728 0.0000000000 0.0000000000 0.0000000000 1607.7431227424 3.8385749633 -12.3555170955
3.7158322196 -11.8708169625 0.0000000000 0.0000000000 0.0000000000 1847.5390778009 3.8385749633 -12.3555170955
3.6959068510 -11.8763033543 0.0000000000 0.0000000000 0.0000000000 2088.0018153001 3.8385749633 -12.3555170955
3.6762252285 -11.8826084747 0.0000000000 0.0000000000 0.0000000000 2329.3693739655 3.8385749633 -12.3555170955
3.6568209779 -11.8897215515 0.0000000000 0.0000000000 0.0000000000 2571.8773820168 3.8385749633 -12.3555170955
3.6377272508 -11.8976304322 0.0000000000 0.0000000000 0.0000000000 2815.7600927461 3.8385749633 -12.3555170955
3.6189766687 -11.9063216046 0.0000000000 0.0000000000 0.0000000000 3061.2515898316 3.8385749633 -12.3555170955
3.6006012666 -11.9157802199 0.0000000000 0.0000000000 0.0000000000 3308.5868038120 3.8385749633 -12.3555170955
3.5826324386 -11.9259901184 0.0000000000 0.0000000000 0.0000000000 3558.0025600800 3.8385749633 -12.3555170955
3.5651008841 -11.9369338564 0.0000000000 0.0000000000 0.0000000000 3809.7385663257 3.8385749633 -12.3555170955
3.5480365554 -11.9485927369 0.0000000000 0.0000000000 0.0000000000 4064.0384202114 3.8385749633 -12.3555170955
3.5314686068 -11.9609468409 0.0000000000 0.0000000000 0.0000000000 4321.1506493488 3.8385749633 -12.3555170955
3.5154253442 -11.9739750615 0.0000000000 0.0000000000 0.0000000000 4581.3298742941 3.8385749633 -12.3555170955
3.4999341773 -11.9876551402 0.0000000000 0.0000000000 0.0000000000 4844.8382162366 3.8385749633 -12.3555170955
3.4707130078 -12.0168763098 0.0000000000 0.0000000000 0.0000000000 5382.9398440508 3.8385749633 -12.3555170955
3.4570329290 -12.0323674767 0.0000000000 0.0000000000 0.0000000000 5658.1144799340 3.8385749633 -12.3555170955
3.4440047085 -12.0484107393 0.0000000000 0.0000000000 0.0000000000 5937.7877651745 3.8385749633 -12.3555170955
3.4316506045 -12.0649786879 0.0000000000 0.0000000000 0.0000000000 6222.2990014073 3.8385749633 -12.3555170955
3.4199917240 -12.0820430166 0.0000000000 0.0000000000 0.0000000000 6512.0139023636 3.8385749633 -12.3555170955
3.4090479860 -12.0995745711 0.0000000000 0.0000000000 0.0000000000 6807.3281248973 3.8385749633 -12.3555170955
3.3988380876 -12.1175433991 0.0000000000 0.0000000000 0.0000000000 7108.6708982862 3.8385749633 -12.3555170955
3.3893794722 -12.1359188012 0.0000000000 0.0000000000 0.0000000000 7416.5098408696 3.8385749633 -12.3555170955
3.3806882999 -12.1546693833 0.0000000000 0.0000000000 0.0000000000 7731.3584069293 3.8385749633 -12.3555170955
3.3727794192 -12.1737631104 0.0000000000 0.0000000000 0.0000000000 8053.7870654184 3.8385749633 -12.3555170955
3.3656663423 -12.1931673611 0.0000000000 0.0000000000 0.0000000000 8384.4378442794 3.8385749633 -12.3555170955
3.3593612220 -12.2128489835 0.0000000000 0.0000000000 0.0000000000 8724.0407380932 3.8385749633 -12.3555170955
3.3538748302 -12.2327743521 0.0000000000 0.0000000000 0.0000000000 9073.4297811307 3.8385749633 -12.3555170955
3.3492165405 -12.2529094246 0.0000000000 0.0000000000 0.0000000000 9433.5603836710 3.8385749633 -12.3555170955
3.3453943115 -12.2732198005 0.0000000000 0.0000000000 0.0000000000 9805.5366305561 3.8385749633 -12.3555170955
3.3424146734 -12.2936707800 0.0000000000 0.0000000000 0.0000000000 10190.6708407047 3.8385749633 -12.3555170955
3.3402827167 -12.3142274229 0.0000000000 0.0000000000 0.0000000000 10590.6098182434 3.8385749633 -12.3555170955
3.3390020840 -12.3348546086 0.0000000000 0.0000000000 0.0000000000 11007.5750840823 3.8385749633 -12.3555170955
3.3385749633 -12.3555170957 0.0000000000 0.0000000000 0.0000000000 11444.7861099528 3.8385749633 -12.3555170955
3.3390020841 -12.3761795828 0.0000000000 0.0000000000 0.0000000000 11907.1713927767 3.8385749633 -12.3555170955
3.3402827168 -12.3968067684 0.0000000000 0.0000000000 0.0000000000 12402.3457916373 3.8385749633 -12.3555170955
3.3424146734 -12.4173634113 0.0000000000 0.0000000000 0.0000000000 12941.2017237927 3.8385749633 -12.3555170955
3.3453943116 -12.4378143908 0.0000000000 0.0000000000 0.0000000000 13536.5412836297 3.8385749633 -12.3555170955
3.3492165406 -12.4581247668 0.0000000000 0.0000000000 0.0000000000 14198.5451634246 3.8385749633 -12.3555170955
3.3538748303 -12.4782598393 0.0000000000 0.0000000000 0.0000000000 14928.5850325828 3.8385749633 -12.3555170955
3.3593612221 -12.4981852078 0.0000000000 0.0000000000 0.0000000000 15715.3054577675 3.8385749633 -12.3555170955
3.3656663425 -12.5178668303 0.0000000000 0.0000000000 0.0000000000 16535.6274875474 3.8385749633 -12.3555170955
3.3727794193 -12.5372710810 0.0000000000 0.0000000000 0.0000000000 17359.7217859462 3.8385749633 -12.3555170955
3.3806883000 -12.5563648080 0.0000000000 0.0000000000 0.0000000000 18156.9785658490 3.8385749633 -12.3555170955
3.3893794724 -12.5751153901 0.0000000000 0.0000000000 0.0000000000 18900.5513320344 3.8385749633 -12.3555170955
3.3988380878 -12.5934907922 0.0000000000 0.0000000000 0.0000000000 19569.5706044477 3.8385749633 -12.3555170955
3.4090479862 -12.6114596202 0.0000000000 0.0000000000 0.0000000000 20149.3263325409 3.8385749633 -12.3555170955
3.4199917243 -12.6289911747 0.0000000000 0.0000000000 0.0000000000 20630.2540283492 3.8385749633 -12.3555170955
3.4316506048 -12.6460555034 0.0000000000 0.0000000000 0.0000000000 21006.5398999091 3.8385749633 -12.3555170955
3.4440047087 -12.6626234520 0.0000000000 0.0000000000 0.0000000000 21274.8614465593 3.8385749633 -12.3555170955
3.4570329293 -12.6786667146 0.0000000000 0.0000000000 0.0000000000 21433.4655558557 3.8385749633 -12.3555170955
3.4707130081 -12.6941578815 0.0000000000 0.0000000000 0.0000000000 21481.5852574254 3.8385749633 -12.3555170955
3.4999341776 -12.7233790510 0.0000000000 0.0000000000 0.0000000000 21246.4480704974 3.8385749633 -12.3555170955
3.5154253445 -12.7370591298 0.0000000000 0.0000000000 0.0000000000 20964.4233748688 3.8385749633 -12.3555170955
3.5314686071 -12.7500873503 0.0000000000 0.0000000000 0.0000000000 20574.3036032417 3.8385749633 -12.3555170955
3.5480365558 -12.7624414543 0.0000000000 0.0000000000 0.0000000000 20077.7877576192 3.8385749633 -12.3555170955
3.5651008844 -12.7741003348 0.0000000000 0.0000000000 0.0000000000 19477.0227982413 3.8385749633 -12.3555170955
3.5826324389 -12.7850440728 0.0000000000 0.0000000000 0.0000000000 18774.6150813302 3.8385749633 -12.3555170955
3.6006012670 -12.7952539712 0.0000000000 0.0000000000 0.0000000000 17973.6384821337 3.8385749633 -12.3555170955
3.6189766691 -12.8047125866 0.0000000000 0.0000000000 0.0000000000 17077.6417410244 3.8385749633 -12.3555170955
3.6377272512 -12.8134037589 0.0000000000 0.0000000000 0.0000000000 16090.6594183258 3.8385749633 -12.3555170955
3.6568209782 -12.8213126396 0.0000000000 0.0000000000 0.0000000000 15017.2256987435 3.8385749633 -12.3555170955
3.6762252289 -12.8284257164 0.0000000000 0.0000000000 0.0000000000 13862.3882189178 3.8385749633 -12.3555170955
3.6959068514 -12.8347308368 0.0000000000 0.0000000000 0.0000000000 12631.7014208062 3.8385749633 -12.3555170955
3.7158322200 -12.8402172285 0.0000000000 0.0000000000 0.0000000000 11331.1860462684 3.8385749633 -12.3555170955
3.7359672924 -12.8448755182 0.0000000000 0.0000000000 0.0000000000 9967.2352305846 3.8385749633 -12.3555170955
3.7562776684 -12.8486977472 0.0000000000 0.0000000000 0.0000000000 8546.5170663367 3.8385749633 -12.3555170955
3.7767286479 -12.8516773854 0.0000000000 0.0000000000 0.0000000000 7075.9206738282 3.8385749633 -12.3555170955
3.7972852908 -12.8538093420 0.0000000000 0.0000000000 0.0000000000 5562.6093113674 3.8385749633 -12.3555170955
3.8179124764 -12.8550899747 0.0000000000 0.0000000000 0.0000000000 4014.0210541902 3.8385749633 -12.3555170955
3.8385749636 -12.8555170955 0.0000000000 0.0000000000 0.0000000000 2438.0087035259 3.8385749633 -12.3555170955
3.8592374507 -12.8550899747 0.0000000000 0.0000000000 0.0000000000 842.7806701099 3.8385749633 -12.3555170955
3.8798646363 -12.8538093420 0.0000000000 0.0000000000 0.0000000000 -763.2057467073 3.8385749633 -12.3555170955
3.9004212792 -12.8516773853 0.0000000000 0.0000000000 0.0000000000 -2371.4394044800 3.8385749633 -12.3555170955
3.9208722587 -12.8486977471 0.0000000000 0.0000000000 0.0000000000 -3973.5542337534 3.8385749633 -12.3555170955
3.9411826347 -12.8448755181 0.0000000000 0.0000000000 0.0000000000 -5561.4633344333 3.8385749633 -12.3555170955
3.9613177071 -12.8402172284 0.0000000000 0.0000000000 0.0000000000 -7127.3584831665 3.8385749633 -12.3555170955
3.9812430757 -12.8347308366 0.0000000000 0.0000000000 0.0000000000 -8663.6517866546 3.8385749633 -12.3555170955
4.0009246982 -12.8284257162 0.0000000000 0.0000000000 0.0000000000 -10162.8496859840 3.8385749633 -12.3555170955
4.0203289488 -12.8213126394 0.0000000000 0.0000000000 0.0000000000 -11617.6461563118 3.8385749633 -12.3555170955
4.0394226759 -12.8134037587 0.0000000000 0.0000000000 0.0000000000 -13020.7067861495 3.8385749633 -12.3555170955
4.0581732580 -12.8047125863 0.0000000000 0.0000000000 0.0000000000 -14365.4007346863 3.8385749633 -12.3555170955
4.0765486601 -12.7952539709 0.0000000000 0.0000000000 0.0000000000 -15644.5267365332 3.8385749633 -12.3555170955
4.0945174881 -12.7850440725 0.0000000000 0.0000000000 0.0000000000 -16853.2993364281 3.8385749633 -12.3555170955
4.1120490426 -12.7741003344 0.0000000000 0.0000000000 0.0000000000 -17983.5413560630 3.8385749633 -12.3555170955
4.1291133712 -12.7624414539 0.0000000000 0.0000000000 0.0000000000 -19034.7868087066 3.8385749633 -12.3555170955
4.1456813199 -12.7500873500 0.0000000000 0.0000000000 0.0000000000 -19994.5687287570 3.8385749633 -12.3555170955
4.1617245825 -12.7370591294 0.0000000000 0.0000000000 0.0000000000 -20869.2557409265 3.8385749633 -12.3555170955
4.1772157493 -12.7233790506 0.0000000000 0.0000000000 0.0000000000 -21648.4809101812 3.8385749633 -12.3555170955
4.4188987252 -12.8034933046 0.0000000000 1.8001624039 1.3066680563 -12231.8889241459 3.8691098210 -12.2933637517
4.4355841920 -12.7783933346 0.0000000000 1.7155657323 1.3157431355 -12521.1967599710 3.8671053993 -12.2891777765
4.4514252915 -12.7526865099 0.0000000000 1.6306507191 1.3188543199 -12756.7272594713 3.8650516793 -12.2850691589
4.4664029301 -12.7264282084 0.0000000000 1.5460315270 1.3160650166 -12938.3295399749 3.8629545950 -12.2810630696
4.4805003128 -12.6996768329 0.0000000000 1.4623184047 1.3074139589 -13064.8442452952 3.8608212318 -12.2771867898
4.4937019459 -12.6724922179 0.0000000000 1.3801239727 1.2930636208 -13136.4573297843 3.8586587962 -12.2734681609
4.5059931416 -12.6449346970 0.0000000000 1.3000386687 1.2732613587 -13154.1031904018 3.8564740885 -12.2699346974
4.5173597784 -12.6170644370 0.0000000000 1.2226114483 1.2483463806 -13119.6547728452 3.8542732331 -12.2666129661
4.5277882423 -12.5889409222 0.0000000000 1.1483315489 1.2187367389 -13035.8205451887 3.8520615911 -12.2635281182
4.5372655058 -12.5606225335 0.0000000000 1.0776134884 1.1849156158 -12906.0567700937 3.8498438138 -12.2607035156
4.5457792980 -12.5321661909 0.0000000000 1.0107865096 1.1474134843 -12734.4252680156 3.8476239864 -12.2581604230
4.5533183116 -12.5036270400 0.0000000000 0.9480889392 1.1067888973 -12525.4305229252 3.8454058137 -12.2559177439
4.5598724040 -12.4750581738 0.0000000000 0.8896674969 1.0636091800 -12283.8457360991 3.8431927995 -12.2539917934
4.5654327630 -12.4465103861 0.0000000000 0.8355810717 1.0184324311 -12014.5422269820 3.8409883932 -12.2523961026
4.5699920281 -12.4180319558 0.0000000000 0.7858081635 0.9717918474 -11722.3328210443 3.8387960939 -12.2511412557
4.5735443675 -12.3896684632 0.0000000000 0.7402570130 0.9241830369 -11411.8370949502 3.8366195125 -12.2502347582
4.5760855168 -12.3614626360 0.0000000000 0.6987773992 0.8760546342 -11087.3731758591 3.8344623971 -12.2496809368
4.5776127832 -12.3334542267 0.0000000000 0.6611731468 0.8278022272 -10752.8779495199 3.8323286257 -12.2494808700
4.5781250173 -12.3056799196 0.0000000000 0.6272145187 0.7797653613 -10411.8551315748 3.8302221694 -12.2496323497
4.5776225541 -12.2781732670 0.0000000000 0.5966498430 0.7322272185 -10067.3488248674 3.8281470255 -12.2501298717
4.5761071220 -12.2509646559 0.0000000000 0.5692159184 0.6854164698 -9721.9389589530 3.8261071220 -12.2509646562
4.5735817240 -12.2240813037 0.0000000000 0.5446469244 0.6395107686 -9377.7543705117 3.8241061955 -12.2521246997
4.5700504959 -12.1975472886 0.0000000000 0.5226817307 0.5946413719 -9036.4991656028 3.8221476480 -12.2535948590
4.5655185491 -12.1713836162 0.0000000000 0.5030696257 0.5508984391 -8699.4882959245 3.8202343917 -12.2553569735
4.5599918115 -12.1456083310 0.0000000000 0.4855745741 0.5083366348 -8367.6888438458 3.8183686918 -12.2573900309
4.5534768741 -12.1202366823 0.0000000000 0.4699781649 0.4669807465 -8041.7641999405 3.8165520192 -12.2596703880
4.5459808556 -12.0952813552 0.0000000000 0.4560814262 0.4268311080 -7722.1190017487 3.8147849215 -12.2621720559
4.5375112871 -12.0707527793 0.0000000000 0.4437056841 0.3878686722 -7408.9432863519 3.8130669175 -12.2648670634
4.5280760188 -12.0466595259 0.0000000000 0.4326926222 0.3500596272 -7102.2547400871 3.8113964145 -12.2677259070
4.5176831408 -12.0230087975 0.0000000000 0.4229036837 0.3133594751 -6801.9382016907 3.8097706431 -12.2707180942
4.5063409113 -11.9998070111 0.0000000000 0.4142189431 0.2777165201 -6507.7817246592 3.8081855999 -12.2738127796
4.4940576791 -11.9770604641 0.0000000000 0.4065355613 0.2430747477 -6219.5085870989 3.8066359873 -12.2769794825
4.4808417924 -11.9547760660 0.0000000000 0.3997659287 0.2093761298 -5936.8047130774 3.8051151416 -12.2801888705
4.4667014916 -11.9329621115 0.0000000000 0.3938355945 0.1765624840 -5659.3411131023 3.8036149466 -12.2834135829
4.4516447971 -11.9116290706 0.0000000000 0.3886810624 0.1445769863 -5386.7912574622 3.8021257443 -12.2866290707
4.4356794260 -11.8907903746 0.0000000000 0.3842474722 0.1133651339 -5118.8435980879 3.8006362767 -12.2898144321
4.4188127954 -11.8704631897 0.0000000000 0.3804861902 0.0828756026 -4855.2091720337 3.7991337148 -12.2929532334
4.4010521518 -11.8506691854 0.0000000000 0.3773524634 0.0530652796 -4595.6246635289 3.7976038170 -12.2960343247
4.3824047509 -11.8314353402 0.0000000000 0.3748032605 0.0239104312 -4339.8566712625 3.7960311391 -12.2990526917
4.3628776941 -11.8127949071 0.0000000000 0.3727965281 -0.0046062320 -4087.7150189994 3.7943989018 -12.3020104656
4.3424760820 -11.7947885322 0.0000000000 0.3712945653 -0.0325903960 -3839.0493659354 3.7926871782 -12.3049180856
4.2975992097 -11.7583775290 0.0000000000 0.3707138167 -0.0900954672 -3324.6168929503 3.7896380310 -12.3101704620
4.2730382201 -11.7402001010 0.0000000000 0.3712625202 -0.1171863254 -3060.1199950158 3.7883137918 -12.3125131522
4.2475814844 -11.7229476041 0.0000000000 0.3716629171 -0.1403461923 -2800.2772206668 3.7869219499 -12.3148029862
4.2212930910 -11.7066457059 0.0000000000 0.3734028333 -0.1666127614 -2546.1839561759 3.7854854795 -12.3170322440
4.1942367087 -11.6913235968 0.0000000000 0.3808103800 -0.2132059171 -2297.4767829309 3.7840255902 -12.3191984556
4.1664769868 -11.6770110716 0.0000000000 0.3968576207 -0.2880354989 -2051.7122050916 3.7825632000 -12.3213015374
4.1380804243 -11.6637376721 0.0000000000 0.4151969481 -0.3641359000 -1807.5447745933 3.7811198796 -12.3233429856
4.1091156125 -11.6515322182 0.0000000000 0.4208771059 -0.3919658202 -1567.0515382481 3.7797181710 -12.3253254547
4.0796530465 -11.6404223333 0.0000000000 0.4051736523 -0.3511461644 -1332.1492387628 3.7783814781 -12.3272523283
4.0497646356 -11.6304339484 0.0000000000 0.3762540147 -0.2737954541 -1100.7323454167 3.7771336578 -12.3291272645
4.0195230352 -11.6215908574 0.0000000000 0.3491441743 -0.2044774286 -869.5530475945 3.7759984334 -12.3309537887
3.9890009094 -11.6139143610 0.0000000000 0.3301998216 -0.1577690701 -638.2125690001 3.7749987414 -12.3327349729
3.9582702127 -11.6074230006 0.0000000000 0.3167903487 -0.1246847549 -408.1457623221 3.7741560975 -12.3344732000
3.9274015497 -11.6021323663 0.0000000000 0.3057951682 -0.0971103218 -180.0587503854 3.7734900432 -12.3361700003
3.8964636467 -11.5980549683 0.0000000000 0.2964229760 -0.0731722112 46.1167872860 3.7730177041 -12.3378259459
3.8655229452 -11.5952001678 0.0000000000 0.2884531450 -0.0522023368 270.4282318837 3.7727534719 -12.3394406026
3.8346433093 -11.5935741690 0.0000000000 0.2815664569 -0.0333732402 492.8732820380 3.7727088003 -12.3410125388
3.8038858307 -11.5931800711 0.0000000000 0.2755300560 -0.0161256421 713.5130105162 3.7728921002 -12.3425393899
3.7733087076 -11.5940179719 0.0000000000 0.2701775603 -0.0000701983 932.4502917261 3.7733087078 -12.3440179719
3.7429671767 -11.5960851101 0.0000000000 0.2653735232 0.0150953351 1149.8205793684 3.7739609076 -12.3454444289
3.7129134801 -11.5993760246 0.0000000000 0.2610081797 0.0296059541 1365.7910607619 3.7748479893 -12.3468143943
3.6831968553 -11.6038827139 0.0000000000 0.2569900877 0.0436508803 1580.5573753456 3.7759663289 -12.3481231487
3.6538635425 -11.6095947801 0.0000000000 0.2532416698 0.0573870229 1794.3410606204 3.7773094854 -12.3493657577
3.6249568055 -11.6164995540 0.0000000000 0.2496960022 0.0709485692 2007.3871207926 3.7788683124 -12.3505371880
3.5965169675 -11.6245822040 0.0000000000 0.2462945354 0.0844537512 2219.9620170436 3.7806310830 -12.3516324034
3.5685814623 -11.6338258417 0.0000000000 0.2429850044 0.0980128136 2432.3510561079 3.7825836306 -12.3526464535
3.5411849035 -11.6442116379 0.0000000000 0.2397190245 0.1117371205 2644.8536968050 3.7847095056 -12.3535745691
3.5143591738 -11.6557189612 0.0000000000 0.2364516058 0.1257335278 2857.7808962403 3.7869901519 -12.3544122772
3.4881335364 -11.6683255493 0.0000000000 0.2331444705 0.1400817683 3071.4638946687 3.7894051050 -12.3551555442
3.4625347741 -11.6820077105 0.0000000000 0.2297635969 0.1548610609 3286.2673843699 3.7919322159 -12.3558009468
3.4375873609 -11.6967405501 0.0000000000 0.2262556714 0.1702893320 3502.5663808103 3.7945479059 -12.3563458634
3.4133136713 -11.7124982072 0.0000000000 0.2225221750 0.1868155090 3720.6590660896 3.7972274583 -12.3567886729
3.3897342350 -11.7292540831 0.0000000000 0.2184619925 0.2047905936 3940.7006804564 3.7999453537 -12.3571289416
3.3668680413 -11.7469810437 0.0000000000 0.2141159178 0.2237097172 4162.8599236453 3.8026756530 -12.3573675815
3.3447328963 -11.7656515824 0.0000000000 0.2097568607 0.2420214201 4387.7683229461 3.8053924309 -12.3575069643
3.3233458302 -11.7852379361 0.0000000000 0.2055975003 0.2589643936 4616.8586457777 3.8080702588 -12.3575509871
3.3027235549 -11.8057121729 0.0000000000 0.2009864268 0.2782677875 4851.8224037351 3.8106847338 -12.3575051058
3.2638418257 -11.8492082309 0.0000000000 0.1806529593 0.3660297260 5336.7510413003 3.8156347589 -12.3571694095
3.2456186496 -11.8721724244 0.0000000000 0.1611546724 0.4446945215 5577.9562386557 3.8179317009 -12.3568968526
3.2282336336 -11.8959085462 0.0000000000 0.1412564335 0.5174807065 5814.1165724745 3.8200890158 -12.3565680805
3.2117088957 -11.9203857060 0.0000000000 0.1356560635 0.5285537148 6051.1855100447 3.8220954338 -12.3561933173
3.1960686091 -11.9455720451 0.0000000000 0.1634002202 0.4191467181 6300.1464439085 3.8239434680 -12.3557831635
3.1813390074 -11.9714344696 0.0000000000 0.2374324234 0.1657848125 6568.6788146749 3.8256294733 -12.3553482562
3.1675482211 -11.9979384496 0.0000000000 0.3532534599 -0.1933412723 6855.8499069081 3.8271535346 -12.3548989942
3.1547259386 -12.0250478684 0.0000000000 0.4857227388 -0.5673800553 7148.6371019016 3.8285191752 -12.3544453098
3.1429029179 -12.0527249219 0.0000000000 0.6005868983 -0.8595202609 7424.8319359806 3.8297329130 -12.3539964902
3.1321103883 -12.0809300710 0.0000000000 0.6753915196 -1.0225668090 7673.1274025882 3.8308037044 -12.3535610487
3.1223793996 -12.1096220425 0.0000000000 0.7120513657 -1.0781884939 7908.4386534743 3.8317423309 -12.3531466442
3.1137401715 -12.1387578742 0.0000000000 0.7295343950 -1.0844147045 8153.8645689606 3.8325607834 -12.3527600422
3.1062214935 -12.1682929922 0.0000000000 0.7463505354 -1.0881608969 8416.9726359471 3.8332716930 -12.3524071073
3.0998502116 -12.1981813101 0.0000000000 0.7701713088 -1.1053438146 8692.1647298247 3.8338878456 -12.3520928165
3.0946508231 -12.2283753406 0.0000000000 0.7996787753 -1.1314517115 8972.8201985363 3.8344218007 -12.3518212830
3.0906451842 -12.2588263106 0.0000000000 0.8315296097 -1.1590754385 9256.2064877965 3.8348856191 -12.3515957838