 TITLE = "Tecplot data"
 VARIABLES = "X", "Y", "Z" "U", "V", "p", "dispX", "dispY"
 ZONE SOLUTIONTIME=108.900000, NODES=26114 , ELEMENTS=25916, DATAPACKING=POINT, ZONETYPE=FEQUADRILATERAL
0.7606703367 -1.3052818730 0.0000000000 0.0000000000 0.0000000000 -764.9677319536 0.4071169461 -1.6588352636
0.7606703370 -2.0123886540 0.0000000000 0.0000000000 0.0000000000 -5953.8494390096 0.4071169461 -1.6588352636
0.0535635554 -1.3052818731 0.0000000000 0.0000000000 0.0000000000 1628.9274405681 0.4071169461 -1.6588352636
0.0535635557 -2.0123886544 0.0000000000 0.0000000000 0.0000000000 3774.0500801902 0.4071169461 -1.6588352636
0.9312363284 -1.1220801378 0.0000000000 0.1517831998 -0.1568435986 -679.4207585517 0.4009062426 -1.6524102237
0.9426145779 -2.1812003616 0.0000000000 0.9363692801 0.4570003855 -3167.8968895507 0.4122844916 -1.6508702761
-0.1264033769 -1.1286551253 0.0000000000 0.1618119162 -0.0718699980 1568.7264266135 0.4039267092 -1.6589852111
-0.1221376075 -2.1894637774 0.0000000000 1.2063281596 -0.8536832914 2336.2197318884 0.4081924781 -1.6591336912
1.4271829238 -0.5499491586 0.0000000000 0.3658105160 -0.1532941817 -435.2907312100 0.3665227522 -1.6106093305
1.4975740664 -2.6657449187 0.0000000000 0.7565881290 -0.0731745839 -1217.7260759690 0.4369138938 -1.6050847477
-0.6723386914 -0.5961454147 0.0000000000 0.4569122059 -0.1085397226 1160.2223048971 0.3883214807 -1.6568055861
-0.6445683782 -2.7187031605 0.0000000000 1.0276706486 -0.4252023009 1124.4620078756 0.4160917930 -1.6580429882
4.4023216719 1.9392421943 0.0000000000 0.2515580526 0.0923368872 -221.1998104601 0.2023216719 -1.3607578057
4.7558529515 -4.6492791040 0.0000000000 1.2458068287 0.0814870519 -456.4390101697 0.5558529515 -1.3492791040
20.0000000000 4.7000000000 0.0000000000 0.9710558370 0.1863554788 1.7518424813 0.0000000000 0.0000000000
20.0000000000 -4.7000000000 0.0000000000 1.0672631689 0.1915096721 -0.6667801942 0.0000000000 0.0000000000
-10.0000000000 15.0000000000 0.0000000000 1.0000000000 0.0000000000 330.8946861602 0.0000000000 0.0000000000
20.0000000000 15.0000000000 0.0000000000 1.0626252126 0.0000000000 0.0628535519 0.0000000000 0.0000000000
20.0000000000 -15.0000000000 0.0000000000 1.0729217674 0.0000000000 -0.0679762396 0.0000000000 0.0000000000
-10.0000000000 -15.0000000000 0.0000000000 1.0000000000 0.0000000000 297.6859608179 0.0000000000 0.0000000000
0.7736428823 -1.9989216322 0.0000000000 0.0000000000 0.0000000000 -5929.0835265540 0.4071169461 -1.6588352636
0.7861028079 -1.9849789690 0.0000000000 0.0000000000 0.0000000000 -5855.7310790378 0.4071169461 -1.6588352636
0.7980326876 -1.9705801643 0.0000000000 0.0000000000 0.0000000000 -5788.1222136078 0.4071169461 -1.6588352636
0.8094158362 -1.9557453561 0.0000000000 0.0000000000 0.0000000000 -5695.8751411733 0.4071169461 -1.6588352636
0.8202363335 -1.9404952924 0.0000000000 0.0000000000 0.0000000000 -5596.0534880334 0.4071169461 -1.6588352636
0.8304790459 -1.9248513016 0.0000000000 0.0000000000 0.0000000000 -5480.8314750658 0.4071169461 -1.6588352636
0.8401296482 -1.9088352633 0.0000000000 0.0000000000 0.0000000000 -5355.8041533444 0.4071169461 -1.6588352636
0.8491746430 -1.8924695775 0.0000000000 0.0000000000 0.0000000000 -5219.2080367265 0.4071169461 -1.6588352636
0.8576013802 -1.8757771329 0.0000000000 0.0000000000 0.0000000000 -5073.4195176658 0.4071169461 -1.6588352636
0.8653980742 -1.8587812755 0.0000000000 0.0000000000 0.0000000000 -4918.4755558858 0.4071169461 -1.6588352636
0.8725538205 -1.8415057755 0.0000000000 0.0000000000 0.0000000000 -4755.7639658939 0.4071169461 -1.6588352636
0.8790586114 -1.8239747943 0.0000000000 0.0000000000 0.0000000000 -4585.9055770272 0.4071169461 -1.6588352636
0.8849033491 -1.8062128506 0.0000000000 0.0000000000 0.0000000000 -4409.9908868664 0.4071169461 -1.6588352636
0.8900798593 -1.7882447859 0.0000000000 0.0000000000 0.0000000000 -4228.8716965498 0.4071169461 -1.6588352636
0.8945809023 -1.7700957303 0.0000000000 0.0000000000 0.0000000000 -4043.5975673262 0.4071169461 -1.6588352636
0.8984001828 -1.7517910670 0.0000000000 0.0000000000 0.0000000000 -3855.1830778559 0.4071169461 -1.6588352636
0.9015323593 -1.7333563965 0.0000000000 0.0000000000 0.0000000000 -3664.7787892626 0.4071169461 -1.6588352636
0.9039730511 -1.7148175014 0.0000000000 0.0000000000 0.0000000000 -3473.6052883638 0.4071169461 -1.6588352636
0.9057188447 -1.6962003102 0.0000000000 0.0000000000 0.0000000000 -3283.0299122121 0.4071169461 -1.6588352636
0.9067672985 -1.6775308605 0.0000000000 0.0000000000 0.0000000000 -3094.5477095114 0.4071169461 -1.6588352636
0.9071169461 -1.6588352634 0.0000000000 0.0000000000 0.0000000000 -2909.7962836781 0.4071169461 -1.6588352636
0.9067672985 -1.6401396663 0.0000000000 0.0000000000 0.0000000000 -2730.5048458277 0.4071169461 -1.6588352636
0.9057188447 -1.6214702166 0.0000000000 0.0000000000 0.0000000000 -2558.4178115695 0.4071169461 -1.6588352636
0.9039730510 -1.6028530254 0.0000000000 0.0000000000 0.0000000000 -2395.1562910100 0.4071169461 -1.6588352636
0.9015323592 -1.5843141304 0.0000000000 0.0000000000 0.0000000000 -2242.0507625947 0.4071169461 -1.6588352636
0.8984001827 -1.5658794599 0.0000000000 0.0000000000 0.0000000000 -2099.9666687433 0.4071169461 -1.6588352636
0.8945809022 -1.5475747965 0.0000000000 0.0000000000 0.0000000000 -1969.1802848737 0.4071169461 -1.6588352636
0.8900798592 -1.5294257409 0.0000000000 0.0000000000 0.0000000000 -1849.3471455970 0.4071169461 -1.6588352636
0.8849033490 -1.5114576763 0.0000000000 0.0000000000 0.0000000000 -1739.5859974841 0.4071169461 -1.6588352636
0.8790586112 -1.4936957325 0.0000000000 0.0000000000 0.0000000000 -1638.6590481432 0.4071169461 -1.6588352636
0.8725538204 -1.4761647513 0.0000000000 0.0000000000 0.0000000000 -1545.1921852010 0.4071169461 -1.6588352636
0.8653980740 -1.4588892513 0.0000000000 0.0000000000 0.0000000000 -1457.8748722161 0.4071169461 -1.6588352636
0.8576013800 -1.4418933939 0.0000000000 0.0000000000 0.0000000000 -1375.5854593015 0.4071169461 -1.6588352636
0.8491746428 -1.4252009494 0.0000000000 0.0000000000 0.0000000000 -1297.4368524948 0.4071169461 -1.6588352636
0.8401296480 -1.4088352635 0.0000000000 0.0000000000 0.0000000000 -1222.7610027403 0.4071169461 -1.6588352636
0.8304790457 -1.3928192253 0.0000000000 0.0000000000 0.0000000000 -1151.0423839782 0.4071169461 -1.6588352636
0.8202363332 -1.3771752345 0.0000000000 0.0000000000 0.0000000000 -1081.9147344324 0.4071169461 -1.6588352636
0.8094158360 -1.3619251708 0.0000000000 0.0000000000 0.0000000000 -1015.0054004571 0.4071169461 -1.6588352636
0.7980326873 -1.3470903626 0.0000000000 0.0000000000 0.0000000000 -950.1591480764 0.4071169461 -1.6588352636
0.7861028076 -1.3326915579 0.0000000000 0.0000000000 0.0000000000 -886.9263058161 0.4071169461 -1.6588352636
0.7736428820 -1.3187488947 0.0000000000 0.0000000000 0.0000000000 -825.4925830315 0.4071169461 -1.6588352636
0.7457577319 -1.2909733082 0.0000000000 0.0000000000 0.0000000000 -700.1051486997 0.4071169461 -1.6588352636
0.7302665650 -1.2772932295 0.0000000000 0.0000000000 0.0000000000 -636.0519874724 0.4071169461 -1.6588352636
0.7142233024 -1.2642650089 0.0000000000 0.0000000000 0.0000000000 -573.3780737599 0.4071169461 -1.6588352636
0.6976553538 -1.2519109049 0.0000000000 0.0000000000 0.0000000000 -511.4600470590 0.4071169461 -1.6588352636
0.6805910251 -1.2402520244 0.0000000000 0.0000000000 0.0000000000 -450.4630826359 0.4071169461 -1.6588352636
0.6630594706 -1.2293082864 0.0000000000 0.0000000000 0.0000000000 -390.0707131030 0.4071169461 -1.6588352636
0.6450906426 -1.2190983880 0.0000000000 0.0000000000 0.0000000000 -330.2945996508 0.4071169461 -1.6588352636
0.6267152405 -1.2096397726 0.0000000000 0.0000000000 0.0000000000 -270.9561806676 0.4071169461 -1.6588352636
0.6079646584 -1.2009486003 0.0000000000 0.0000000000 0.0000000000 -212.0114846660 0.4071169461 -1.6588352636
0.5888709313 -1.1930397196 0.0000000000 0.0000000000 0.0000000000 -153.3448466789 0.4071169461 -1.6588352636
0.5694666806 -1.1859266427 0.0000000000 0.0000000000 0.0000000000 -94.8955132488 0.4071169461 -1.6588352636
0.5497850582 -1.1796215224 0.0000000000 0.0000000000 0.0000000000 -36.5776808636 0.4071169461 -1.6588352636
0.5298596896 -1.1741351306 0.0000000000 0.0000000000 0.0000000000 21.6717237085 0.4071169461 -1.6588352636
0.5097246171 -1.1694768409 0.0000000000 0.0000000000 0.0000000000 79.9233074040 0.4071169461 -1.6588352636
0.4894142412 -1.1656546119 0.0000000000 0.0000000000 0.0000000000 138.2379085243 0.4071169461 -1.6588352636
0.4689632617 -1.1626749737 0.0000000000 0.0000000000 0.0000000000 196.6778478063 0.4071169461 -1.6588352636
0.4484066188 -1.1605430171 0.0000000000 0.0000000000 0.0000000000 255.3010355389 0.4071169461 -1.6588352636
0.4277794331 -1.1592623844 0.0000000000 0.0000000000 0.0000000000 314.1651427742 0.4071169461 -1.6588352636
0.4071169460 -1.1588352636 0.0000000000 0.0000000000 0.0000000000 373.3258117568 0.4071169461 -1.6588352636
0.3864544589 -1.1592623844 0.0000000000 0.0000000000 0.0000000000 432.8382581457 0.4071169461 -1.6588352636
0.3658272733 -1.1605430171 0.0000000000 0.0000000000 0.0000000000 492.7568803947 0.4071169461 -1.6588352636
0.3452706304 -1.1626749738 0.0000000000 0.0000000000 0.0000000000 553.1359488403 0.4071169461 -1.6588352636
0.3248196509 -1.1656546119 0.0000000000 0.0000000000 0.0000000000 614.0296541803 0.4071169461 -1.6588352636
0.3045092749 -1.1694768410 0.0000000000 0.0000000000 0.0000000000 675.4924727887 0.4071169461 -1.6588352636
0.2843742024 -1.1741351307 0.0000000000 0.0000000000 0.0000000000 737.5793321458 0.4071169461 -1.6588352636
0.2644488339 -1.1796215224 0.0000000000 0.0000000000 0.0000000000 800.3458581154 0.4071169461 -1.6588352636
0.2447672114 -1.1859266428 0.0000000000 0.0000000000 0.0000000000 863.8485637657 0.4071169461 -1.6588352636
0.2253629607 -1.1930397196 0.0000000000 0.0000000000 0.0000000000 928.1450648550 0.4071169461 -1.6588352636
0.2062692337 -1.2009486003 0.0000000000 0.0000000000 0.0000000000 993.2943027459 0.4071169461 -1.6588352636
0.1875186516 -1.2096397727 0.0000000000 0.0000000000 0.0000000000 1059.3568220510 0.4071169461 -1.6588352636
0.1691432495 -1.2190983881 0.0000000000 0.0000000000 0.0000000000 1126.3951329797 0.4071169461 -1.6588352636
0.1511744215 -1.2293082865 0.0000000000 0.0000000000 0.0000000000 1194.4741999953 0.4071169461 -1.6588352636
0.1336428669 -1.2402520246 0.0000000000 0.0000000000 0.0000000000 1263.6620709536 0.4071169461 -1.6588352636
0.1165785383 -1.2519109051 0.0000000000 0.0000000000 0.0000000000 1334.0306218003 0.4071169461 -1.6588352636
0.1000105897 -1.2642650090 0.0000000000 0.0000000000 0.0000000000 1405.6563527184 0.4071169461 -1.6588352636
0.0839673271 -1.2772932296 0.0000000000 0.0000000000 0.0000000000 1478.6211705955 0.4071169461 -1.6588352636
0.0684761602 -1.2909733084 0.0000000000 0.0000000000 0.0000000000 1553.0131571630 0.4071169461 -1.6588352636
0.0392549907 -1.3201944779 0.0000000000 0.0000000000 0.0000000000 1706.4674107846 0.4071169461 -1.6588352636
0.0255749119 -1.3356856448 0.0000000000 0.0000000000 0.0000000000 1785.7466072773 0.4071169461 -1.6588352636
0.0125466913 -1.3517289074 0.0000000000 0.0000000000 0.0000000000 1866.8916806307 0.4071169461 -1.6588352636
0.0001925874 -1.3682968560 0.0000000000 0.0000000000 0.0000000000 1950.0470940429 0.4071169461 -1.6588352636
-0.0114662931 -1.3853611847 0.0000000000 0.0000000000 0.0000000000 2035.3828748620 0.4071169461 -1.6588352636
-0.0224100312 -1.4028927392 0.0000000000 0.0000000000 0.0000000000 2123.1079217769 0.4071169461 -1.6588352636
-0.0326199296 -1.4208615672 0.0000000000 0.0000000000 0.0000000000 2213.4931653398 0.4071169461 -1.6588352636
-0.0420785449 -1.4392369693 0.0000000000 0.0000000000 0.0000000000 2306.9109027460 0.4071169461 -1.6588352636
-0.0507697173 -1.4579875514 0.0000000000 0.0000000000 0.0000000000 2403.8963574601 0.4071169461 -1.6588352636
-0.0586785980 -1.4770812785 0.0000000000 0.0000000000 0.0000000000 2505.2281562572 0.4071169461 -1.6588352636
-0.0657916748 -1.4964855292 0.0000000000 0.0000000000 0.0000000000 2611.9987795105 0.4071169461 -1.6588352636
-0.0720967952 -1.5161671517 0.0000000000 0.0000000000 0.0000000000 2725.6099224495 0.4071169461 -1.6588352636
-0.0775831869 -1.5360925202 0.0000000000 0.0000000000 0.0000000000 2847.6122890362 0.4071169461 -1.6588352636
-0.0822414766 -1.5562275927 0.0000000000 0.0000000000 0.0000000000 2979.3552002577 0.4071169461 -1.6588352636
-0.0860637056 -1.5765379687 0.0000000000 0.0000000000 0.0000000000 3121.5188836053 0.4071169461 -1.6588352636
-0.0890433438 -1.5969889482 0.0000000000 0.0000000000 0.0000000000 3273.7013217340 0.4071169461 -1.6588352636
-0.0911753004 -1.6175455911 0.0000000000 0.0000000000 0.0000000000 3434.2334427865 0.4071169461 -1.6588352636
-0.0924559331 -1.6381727767 0.0000000000 0.0000000000 0.0000000000 3600.2890900547 0.4071169461 -1.6588352636
-0.0928830539 -1.6588352638 0.0000000000 0.0000000000 0.0000000000 3768.2219715419 0.4071169461 -1.6588352636
-0.0924559331 -1.6794977509 0.0000000000 0.0000000000 0.0000000000 3933.9912870282 0.4071169461 -1.6588352636
-0.0911753004 -1.7001249366 0.0000000000 0.0000000000 0.0000000000 4093.5507668442 0.4071169461 -1.6588352636
-0.0890433437 -1.7206815795 0.0000000000 0.0000000000 0.0000000000 4243.1319500827 0.4071169461 -1.6588352636
-0.0860637055 -1.7411325590 0.0000000000 0.0000000000 0.0000000000 4379.4069489945 0.4071169461 -1.6588352636
-0.0822414765 -1.7614429349 0.0000000000 0.0000000000 0.0000000000 4499.5493391051 0.4071169461 -1.6588352636
-0.0775831868 -1.7815780074 0.0000000000 0.0000000000 0.0000000000 4601.2248313119 0.4071169461 -1.6588352636
-0.0720967950 -1.8015033760 0.0000000000 0.0000000000 0.0000000000 4682.5431600035 0.4071169461 -1.6588352636
-0.0657916747 -1.8211849984 0.0000000000 0.0000000000 0.0000000000 4741.9958253048 0.4071169461 -1.6588352636
-0.0586785978 -1.8405892491 0.0000000000 0.0000000000 0.0000000000 4778.3956347507 0.4071169461 -1.6588352636
-0.0507697171 -1.8596829762 0.0000000000 0.0000000000 0.0000000000 4790.8262026710 0.4071169461 -1.6588352636
-0.0420785447 -1.8784335582 0.0000000000 0.0000000000 0.0000000000 4778.6039387214 0.4071169461 -1.6588352636
-0.0326199294 -1.8968089603 0.0000000000 0.0000000000 0.0000000000 4741.2517271881 0.4071169461 -1.6588352636
-0.0224100309 -1.9147777884 0.0000000000 0.0000000000 0.0000000000 4678.4819956978 0.4071169461 -1.6588352636
-0.0114662929 -1.9323093429 0.0000000000 0.0000000000 0.0000000000 4590.1865495965 0.4071169461 -1.6588352636
0.0001925876 -1.9493736715 0.0000000000 0.0000000000 0.0000000000 4476.4308453085 0.4071169461 -1.6588352636
0.0125466916 -1.9659416202 0.0000000000 0.0000000000 0.0000000000 4337.4508994405 0.4071169461 -1.6588352636
0.0255749122 -1.9819848827 0.0000000000 0.0000000000 0.0000000000 4173.6515460795 0.4071169461 -1.6588352636
0.0392549910 -1.9974760496 0.0000000000 0.0000000000 0.0000000000 3985.6051485997 0.4071169461 -1.6588352636
0.0684761605 -2.0266972191 0.0000000000 0.0000000000 0.0000000000 3539.8883671530 0.4071169461 -1.6588352636
0.0839673274 -2.0403772979 0.0000000000 0.0000000000 0.0000000000 3284.1818944688 0.4071169461 -1.6588352636
0.1000105900 -2.0534055185 0.0000000000 0.0000000000 0.0000000000 3008.1465711939 0.4071169461 -1.6588352636
0.1165785386 -2.0657596224 0.0000000000 0.0000000000 0.0000000000 2713.1442013461 0.4071169461 -1.6588352636
0.1336428673 -2.0774185029 0.0000000000 0.0000000000 0.0000000000 2400.6721252564 0.4071169461 -1.6588352636
0.1511744218 -2.0883622409 0.0000000000 0.0000000000 0.0000000000 2072.3512003123 0.4071169461 -1.6588352636
0.1691432498 -2.0985721393 0.0000000000 0.0000000000 0.0000000000 1729.9129954523 0.4071169461 -1.6588352636
0.1875186519 -2.1080307547 0.0000000000 0.0000000000 0.0000000000 1375.1865415391 0.4071169461 -1.6588352636
0.2062692340 -2.1167219271 0.0000000000 0.0000000000 0.0000000000 1010.0847822893 0.4071169461 -1.6588352636
0.2253629611 -2.1246308077 0.0000000000 0.0000000000 0.0000000000 636.5896122319 0.4071169461 -1.6588352636
0.2447672118 -2.1317438846 0.0000000000 0.0000000000 0.0000000000 256.7362798271 0.4071169461 -1.6588352636
0.2644488343 -2.1380490049 0.0000000000 0.0000000000 0.0000000000 -127.4031805436 0.4071169461 -1.6588352636
0.2843742028 -2.1435353967 0.0000000000 0.0000000000 0.0000000000 -513.7309780476 0.4071169461 -1.6588352636
0.3045092753 -2.1481936863 0.0000000000 0.0000000000 0.0000000000 -900.1368288901 0.4071169461 -1.6588352636
0.3248196513 -2.1520159154 0.0000000000 0.0000000000 0.0000000000 -1284.5202850944 0.4071169461 -1.6588352636
0.3452706308 -2.1549955535 0.0000000000 0.0000000000 0.0000000000 -1664.8177220436 0.4071169461 -1.6588352636
0.3658272737 -2.1571275101 0.0000000000 0.0000000000 0.0000000000 -2039.0208720987 0.4071169461 -1.6588352636
0.3864544593 -2.1584081428 0.0000000000 0.0000000000 0.0000000000 -2405.1815938015 0.4071169461 -1.6588352636
0.4071169464 -2.1588352636 0.0000000000 0.0000000000 0.0000000000 -2761.4104361939 0.4071169461 -1.6588352636
0.4277794336 -2.1584081428 0.0000000000 0.0000000000 0.0000000000 -3105.8808782973 0.4071169461 -1.6588352636
0.4484066192 -2.1571275101 0.0000000000 0.0000000000 0.0000000000 -3436.8448694138 0.4071169461 -1.6588352636
0.4689632621 -2.1549955534 0.0000000000 0.0000000000 0.0000000000 -3752.6545972626 0.4071169461 -1.6588352636
0.4894142416 -2.1520159153 0.0000000000 0.0000000000 0.0000000000 -4051.7843413367 0.4071169461 -1.6588352636
0.5097246175 -2.1481936862 0.0000000000 0.0000000000 0.0000000000 -4332.8425333928 0.4071169461 -1.6588352636
0.5298596900 -2.1435353965 0.0000000000 0.0000000000 0.0000000000 -4594.5824795853 0.4071169461 -1.6588352636
0.5497850586 -2.1380490047 0.0000000000 0.0000000000 0.0000000000 -4835.9006289553 0.4071169461 -1.6588352636
0.5694666810 -2.1317438844 0.0000000000 0.0000000000 0.0000000000 -5055.8487443151 0.4071169461 -1.6588352636
0.5888709317 -2.1246308075 0.0000000000 0.0000000000 0.0000000000 -5253.6403977920 0.4071169461 -1.6588352636
0.6079646587 -2.1167219268 0.0000000000 0.0000000000 0.0000000000 -5428.6358167985 0.4071169461 -1.6588352636
0.6267152408 -2.1080307544 0.0000000000 0.0000000000 0.0000000000 -5580.4612698595 0.4071169461 -1.6588352636
0.6450906429 -2.0985721391 0.0000000000 0.0000000000 0.0000000000 -5708.6801865817 0.4071169461 -1.6588352636
0.6630594710 -2.0883622406 0.0000000000 0.0000000000 0.0000000000 -5813.6333754003 0.4071169461 -1.6588352636
0.6805910255 -2.0774185026 0.0000000000 0.0000000000 0.0000000000 -5894.5433475117 0.4071169461 -1.6588352636
0.6976553541 -2.0657596220 0.0000000000 0.0000000000 0.0000000000 -5953.2939174751 0.4071169461 -1.6588352636
0.7142233027 -2.0534055181 0.0000000000 0.0000000000 0.0000000000 -5987.6301348902 0.4071169461 -1.6588352636
0.7302665653 -2.0403772975 0.0000000000 0.0000000000 0.0000000000 -6001.3960556932 0.4071169461 -1.6588352636
0.7457577322 -2.0266972187 0.0000000000 0.0000000000 0.0000000000 -5993.6501218696 0.4071169461 -1.6588352636
0.9617689599 -2.1604207334 0.0000000000 0.8959786028 0.4658238829 -3173.9646038362 0.4119800556 -1.6502911805
0.9801478299 -2.1389371177 0.0000000000 0.8559215985 0.4725653175 -3172.4845610424 0.4116690372 -1.6497215596
0.9977256629 -2.1167811472 0.0000000000 0.8163019116 0.4771354672 -3163.0226539074 0.4113520507 -1.6491637962
1.0144785386 -2.0939863204 0.0000000000 0.7772977981 0.4795640060 -3146.0233947819 0.4110302034 -1.6486211816
1.0303838117 -2.0705873390 0.0000000000 0.7390566917 0.4798715815 -3121.7207323890 0.4107047307 -1.6480972958
1.0454199960 -2.0466198510 0.0000000000 0.7017225755 0.4781090502 -3090.4607353998 0.4103768463 -1.6475957940
1.0595667180 -2.0221202868 0.0000000000 0.6654265802 0.4743451597 -3052.6048726306 0.4100476649 -1.6471202872
1.0728047071 -1.9971257308 0.0000000000 0.6302878797 0.4686687630 -3008.5561668500 0.4097181618 -1.6466742600
1.0851158121 -1.9716738124 0.0000000000 0.5964119822 0.4611858047 -2958.7473150527 0.4093891610 -1.6462610085
1.0964830376 -1.9458026098 0.0000000000 0.5638900330 0.4520172681 -2903.6389839332 0.4090613456 -1.6458835919
1.1068905936 -1.9195505598 0.0000000000 0.5327981558 0.4412964241 -2843.7141416438 0.4087352820 -1.6455447920
1.1163239495 -1.8929563742 0.0000000000 0.5031970998 0.4291660828 -2779.4728847423 0.4084114517 -1.6452470781
1.1247698866 -1.8660589577 0.0000000000 0.4751321048 0.4157758092 -2711.4266593467 0.4080902821 -1.6449925772
1.1322165433 -1.8388973304 0.0000000000 0.4486329831 0.4012792505 -2640.0923783894 0.4077721735 -1.6447830469
1.1386534525 -1.8115105534 0.0000000000 0.4237143933 0.3858316223 -2565.9864182358 0.4074575182 -1.6446198533
1.1440715699 -1.7839376574 0.0000000000 0.4003762910 0.3695873936 -2489.6185961986 0.4071467149 -1.6445039524
1.1484632950 -1.7562175751 0.0000000000 0.3786045474 0.3526981809 -2411.4861845861 0.4068401753 -1.6444358758
1.1518224846 -1.7283890772 0.0000000000 0.3583717330 0.3353108506 -2332.0680392045 0.4065383272 -1.6444157205
1.1541444598 -1.7004907129 0.0000000000 0.3396380701 0.3175658243 -2251.8189397384 0.4062416119 -1.6444431430
1.1554260058 -1.6725607526 0.0000000000 0.3223525583 0.2995955823 -2171.1642698436 0.4059504772 -1.6445173572
1.1556653663 -1.6446371362 0.0000000000 0.3064542757 0.2815233705 -2090.4951946272 0.4056653663 -1.6446371365
1.1548622310 -1.6167574245 0.0000000000 0.2918738500 0.2634621236 -2010.1645164829 0.4053867025 -1.6448008205
1.1530177179 -1.5889587557 0.0000000000 0.2785350821 0.2455136227 -1930.4833980654 0.4051148701 -1.6450063262
1.1501343519 -1.5612778067 0.0000000000 0.2663566846 0.2277679069 -1851.7191263198 0.4048501945 -1.6452511640
1.1462160401 -1.5337507610 0.0000000000 0.2552540870 0.2103029641 -1774.0940553921 0.4045929204 -1.6455324609
1.1412680470 -1.5064132841 0.0000000000 0.2451412849 0.1931848065 -1697.7858270373 0.4043431921 -1.6458469897
1.1352969691 -1.4793005076 0.0000000000 0.2359327554 0.1764681441 -1622.9289391467 0.4041010350 -1.6461912083
1.1283107109 -1.4524470248 0.0000000000 0.2275453673 0.1601975977 -1549.6176388008 0.4038663412 -1.6465613089
1.1203184621 -1.4258868981 0.0000000000 0.2198996614 0.1444078974 -1477.9097104381 0.4036388578 -1.6469532791
1.1113306753 -1.3996536790 0.0000000000 0.2129192941 0.1291196429 -1407.8299225793 0.4034181777 -1.6473629756
1.1013590431 -1.3737804419 0.0000000000 0.2065289575 0.1143313127 -1339.3717872201 0.4032037317 -1.6477862103
1.0904164730 -1.3482998291 0.0000000000 0.2006566463 0.1000270300 -1272.4995134896 0.4029947811 -1.6482188475
1.0785170587 -1.3232441051 0.0000000000 0.1952500562 0.0862405983 -1207.1589853547 0.4027904079 -1.6486569096
1.0656760486 -1.2986452172 0.0000000000 0.1903031730 0.0731782196 -1143.3081084485 0.4025895035 -1.6490966886
1.0519098106 -1.2745348586 0.0000000000 0.1858528091 0.0612397196 -1080.9562362659 0.4023907578 -1.6495348587
1.0372358003 -1.2509445314 0.0000000000 0.1818873620 0.0505848141 -1020.1621707751 0.4021926510 -1.6499685889
1.0216725381 -1.2279056088 0.0000000000 0.1781812476 0.0400244665 -960.9360263038 0.4019934574 -1.6503956524
1.0052396012 -1.2054493961 0.0000000000 0.1742159877 0.0257839808 -903.0881057537 0.4017912665 -1.6508145353
0.9879576213 -1.1836071977 0.0000000000 0.1693987234 0.0016504457 -846.1972000760 0.4015840095 -1.6512245492
0.9698482341 -1.1624104058 0.0000000000 0.1635676283 -0.0381064600 -789.8358747867 0.4013694418 -1.6516259643
0.9509338052 -1.1418906096 0.0000000000 0.1573800345 -0.0937762478 -734.0107487432 0.4011449014 -1.6520201630
0.9087089697 -1.1009410282 0.0000000000 0.1482461084 -0.2140985126 -620.1451281230 0.4007477911 -1.6527339613
0.8853015981 -1.0807399511 0.0000000000 0.1469103866 -0.2404623359 -563.8859153386 0.4005771698 -1.6530530023
0.8610577970 -1.0615088648 0.0000000000 0.1465476405 -0.2317293272 -509.6096364045 0.4003982626 -1.6533642469
0.8360216694 -1.0432801671 0.0000000000 0.1458368791 -0.2003301236 -456.0340269506 0.4002140579 -1.6536667051
0.8102384258 -1.0260852189 0.0000000000 0.1444680334 -0.1643706272 -401.9790212391 0.4000273073 -1.6539600776
0.7837545045 -1.0099539107 0.0000000000 0.1429247554 -0.1352875074 -347.1450399222 0.3998407178 -1.6542443766
0.7566176201 -0.9949145059 0.0000000000 0.1416766747 -0.1146295106 -291.8986074106 0.3996570754 -1.6545198193
0.7288767284 -0.9809935368 0.0000000000 0.1407922657 -0.0990365359 -236.6540299203 0.3994792869 -1.6547867733
0.7005819339 -0.9682157047 0.0000000000 0.1401363273 -0.0856783410 -181.5284010266 0.3993103656 -1.6550456997
0.6717843558 -0.9566037790 0.0000000000 0.1396303030 -0.0736279483 -126.4400550374 0.3991533779 -1.6552970951
0.6425359696 -0.9461785067 0.0000000000 0.1392761398 -0.0627283250 -71.3079315223 0.3990113678 -1.6555414380
0.6128894392 -0.9369585367 0.0000000000 0.1390808860 -0.0527761072 -16.1009065124 0.3988872711 -1.6557791485
0.5828979494 -0.9289603579 0.0000000000 0.1390363002 -0.0435219624 39.2020418708 0.3987838342 -1.6560105574
0.5526150482 -0.9221982514 0.0000000000 0.1391335210 -0.0347813384 94.6304014815 0.3987035417 -1.6562358854
0.5220945026 -0.9166842522 0.0000000000 0.1393669498 -0.0264173300 150.2167134562 0.3986485600 -1.6564552298
0.4913901699 -0.9124281228 0.0000000000 0.1397317109 -0.0183134936 205.9939785082 0.3986206966 -1.6566685576
0.4605558830 -0.9094373370 0.0000000000 0.1402234210 -0.0103683793 261.9966437887 0.3986213740 -1.6568757068
0.4296453479 -0.9077170757 0.0000000000 0.1408384291 -0.0024912524 318.2608880335 0.3986516174 -1.6570763945
0.3987120512 -0.9072702316 0.0000000000 0.1415737502 0.0054023876 374.8246644497 0.3987120513 -1.6572702316
0.3678091731 -0.9080974234 0.0000000000 0.1424270455 0.0133942364 431.7278480115 0.3988029039 -1.6574567422
0.3369895060 -0.9101970153 0.0000000000 0.1433966488 0.0215663308 489.0123948475 0.3989240152 -1.6576353851
0.3063053751 -0.9135651405 0.0000000000 0.1444817010 0.0300047099 546.7223586724 0.3990748487 -1.6578055753
0.2758085621 -0.9181957254 0.0000000000 0.1456817623 0.0388016131 604.9040856747 0.3992545050 -1.6579667029
0.2455502302 -0.9240805155 0.0000000000 0.1469964162 0.0480552192 663.6078225625 0.3994617371 -1.6581181494
0.2155808519 -0.9312091016 0.0000000000 0.1484293638 0.0578897014 722.8875797974 0.3996949674 -1.6582593010
0.1859501387 -0.9395689495 0.0000000000 0.1499914382 0.0684948066 782.7920403963 0.3999523071 -1.6583895613
0.1567069749 -0.9491454331 0.0000000000 0.1516793529 0.0800495395 843.3603014878 0.4002315770 -1.6585083643
0.1278993535 -0.9599218739 0.0000000000 0.1534499609 0.0924975784 904.6605876838 0.4005303316 -1.6586151899
0.0995743170 -0.9718795877 0.0000000000 0.1552883439 0.1057561912 966.8527237712 0.4008458856 -1.6587095826
0.0717779022 -0.9849979372 0.0000000000 0.1573708459 0.1209679522 1030.1403509517 0.4011753440 -1.6587911735
0.0445550911 -0.9992543910 0.0000000000 0.1600415569 0.1415234711 1094.5278362793 0.4015156361 -1.6588597043
0.0179497669 -1.0146245866 0.0000000000 0.1633395598 0.1707057084 1159.6016056616 0.4018635539 -1.6589150523
-0.0079953218 -1.0310823943 0.0000000000 0.1664272098 0.2051942808 1224.7849303648 0.4022157969 -1.6589572528
-0.0332385900 -1.0485999805 0.0000000000 0.1677727808 0.2299180338 1290.1000115101 0.4025690218 -1.6589865183
-0.0577396359 -1.0671478684 0.0000000000 0.1663910415 0.2219856824 1356.5272551862 0.4029198988 -1.6590032503
-0.0814592543 -1.0866949949 0.0000000000 0.1631572638 0.1641741318 1425.2288383510 0.4032651743 -1.6590080459
-0.1043594407 -1.1072087659 0.0000000000 0.1607261092 0.0584430957 1496.3922761978 0.4036017382 -1.6590016988
-0.1475554402 -1.1509980775 0.0000000000 0.1673258239 -0.1942194641 1639.9303815194 0.4042374929 -1.6589592560
-0.1677812190 -1.1742011046 0.0000000000 0.1760734431 -0.2849249568 1708.2280001037 0.4045318323 -1.6589255328
-0.1870475058 -1.1982257677 0.0000000000 0.1860916975 -0.3395549957 1773.8774941471 0.4048078764 -1.6588853020
-0.2053222838 -1.2230323178 0.0000000000 0.1961479533 -0.3691254960 1838.8139345387 0.4050642543 -1.6588399292
-0.2225747735 -1.2485796965 0.0000000000 0.2061507835 -0.3883994270 1904.8198466124 0.4053000854 -1.6587908149
-0.2387754804 -1.2748255649 0.0000000000 0.2165774187 -0.4070712762 1972.4345727938 0.4055149855 -1.6587393515
-0.2538962624 -1.3017263429 0.0000000000 0.2278093526 -0.4282615776 2041.2710708793 0.4057090512 -1.6586868875
-0.2679104161 -1.3292372571 0.0000000000 0.2399388398 -0.4514559233 2110.7523138719 0.4058828205 -1.6586346985
-0.2807927806 -1.3573123969 0.0000000000 0.2529325341 -0.4755137607 2180.5095538992 0.4060372144 -1.6585839651
-0.2925198512 -1.3859047790 0.0000000000 0.2668029644 -0.4998775318 2250.3839952975 0.4061734649 -1.6585357567
-0.3030698966 -1.4149664201 0.0000000000 0.2816396413 -0.5244791129 2320.2655086286 0.4062930348 -1.6584910218
-0.3124230733 -1.4444484163 0.0000000000 0.2975640993 -0.5493694676 2389.9742219372 0.4063975386 -1.6584505842
-0.3205615305 -1.4743010279 0.0000000000 0.3146955498 -0.5745435482 2459.2332532736 0.4064886691 -1.6584151430
-0.3274694992 -1.5044737686 0.0000000000 0.3331453508 -0.5999338721 2527.6818335224 0.4065681349 -1.6583852750
-0.3331333661 -1.5349154967 0.0000000000 0.3530211312 -0.6254412116 2594.8855157057 0.4066376115 -1.6583614391
-0.3375417282 -1.5655745076 0.0000000000 0.3744270506 -0.6509478756 2660.3371345265 0.4066987067 -1.6583439807
-0.3406854311 -1.5963986272 0.0000000000 0.3974597359 -0.6763176398 2723.4569130949 0.4067529386 -1.6583331361
-0.3425575931 -1.6273353058 0.0000000000 0.4222031935 -0.7013943632 2783.5970601966 0.4068017257 -1.6583290362
-0.3431536162 -1.6583317111 0.0000000000 0.4487243243 -0.7260030659 2840.0512906348 0.4068463838 -1.6583317108
-0.3424711888 -1.6893348225 0.0000000000 0.4770692153 -0.7499527692 2892.0680396480 0.4068881300 -1.6583410915
-0.3405102808 -1.7202915249 0.0000000000 0.5072601631 -0.7730401570 2938.8661782862 0.4069280890 -1.6583570154
-0.3372731331 -1.7511487024 0.0000000000 0.5392935237 -0.7950536726 2979.6521880260 0.4069673017 -1.6583792286