 TITLE = "Tecplot data"
 VARIABLES = "X", "Y", "Z" "U", "V", "p", "dispX", "dispY"
 ZONE SOLUTIONTIME=12.900000, NODES=26114 , ELEMENTS=25916, DATAPACKING=POINT, ZONETYPE=FEQUADRILATERAL
0.4365615558 0.4365615558 0.0000000000 -0.0399213357 -0.0399213357 -597.5086839970 0.0830081652 0.0830081652
0.4365615560 -0.2705452251 0.0000000000 -0.0399213357 -0.0399213357 -437.5909865830 0.0830081652 0.0830081652
-0.2705452255 0.4365615557 0.0000000000 -0.0399213357 -0.0399213357 -375.8480647693 0.0830081652 0.0830081652
-0.2705452252 -0.2705452256 0.0000000000 -0.0399213357 -0.0399213357 -60.6114897135 0.0830081652 0.0830081652
0.6064150277 0.6064995911 0.0000000000 0.4663350809 -0.0692720252 -562.3791638132 0.0760849419 0.0761695052
0.5991498984 -0.4613724793 0.0000000000 0.3387435778 0.0662364581 -423.9722123859 0.0688198121 0.0689576062
-0.4619591688 0.5989471650 0.0000000000 0.9136714571 0.5361949911 -48.9440257878 0.0683709172 0.0686170793
-0.4548405354 -0.4541086374 0.0000000000 0.8336106102 -0.4753210477 109.6638198365 0.0754895502 0.0762214488
1.1210239809 1.1211363204 0.0000000000 1.1280129112 -0.2371949868 -256.2150270747 0.0603638092 0.0604761486
1.1092858119 -1.0115250465 0.0000000000 1.1767587744 -0.0505878487 -115.2232405353 0.0486256393 0.0491351245
-1.0132239450 1.1088012752 0.0000000000 0.9665440901 0.1696582605 36.7569075582 0.0474362271 0.0481411038
-1.0021086960 -1.0002542791 0.0000000000 0.9376629234 -0.1550138839 99.5408947232 0.0585514752 0.0604058932
4.2311545668 3.3273480798 0.0000000000 1.1106125519 -0.0108190903 -13.2790007641 0.0311545668 0.0273480798
4.2187114847 -3.2833998178 0.0000000000 1.0365049837 -0.0416446231 23.5662714755 0.0187114847 0.0166001822
20.0000000000 4.7000000000 0.0000000000 0.9991936442 -0.0024347024 0.0021215524 0.0000000000 0.0000000000
20.0000000000 -4.7000000000 0.0000000000 0.9984164592 0.0021186627 0.0039052829 0.0000000000 0.0000000000
-10.0000000000 15.0000000000 0.0000000000 1.0000000000 0.0000000000 10.6099833925 0.0000000000 0.0000000000
20.0000000000 15.0000000000 0.0000000000 1.0022032850 0.0000000000 0.0012778471 0.0000000000 0.0000000000
20.0000000000 -15.0000000000 0.0000000000 1.0021321042 0.0000000000 0.0032531492 0.0000000000 0.0000000000
-10.0000000000 -15.0000000000 0.0000000000 1.0000000000 0.0000000000 26.3130943236 0.0000000000 0.0000000000
0.4495341014 -0.2570782034 0.0000000000 -0.0399213357 -0.0399213357 -431.9997690566 0.0830081652 0.0830081652
0.4619940270 -0.2431355402 0.0000000000 -0.0399213357 -0.0399213357 -425.5389536175 0.0830081652 0.0830081652
0.4739239066 -0.2287367355 0.0000000000 -0.0399213357 -0.0399213357 -419.8491456979 0.0830081652 0.0830081652
0.4853070553 -0.2139019273 0.0000000000 -0.0399213357 -0.0399213357 -414.7330814565 0.0830081652 0.0830081652
0.4961275525 -0.1986518636 0.0000000000 -0.0399213357 -0.0399213357 -410.9951683807 0.0830081652 0.0830081652
0.5063702650 -0.1830078728 0.0000000000 -0.0399213357 -0.0399213357 -408.9408547624 0.0830081652 0.0830081652
0.5160208672 -0.1669918345 0.0000000000 -0.0399213357 -0.0399213357 -409.0063013704 0.0830081652 0.0830081652
0.5250658621 -0.1506261487 0.0000000000 -0.0399213357 -0.0399213357 -411.3810238603 0.0830081652 0.0830081652
0.5334925993 -0.1339337041 0.0000000000 -0.0399213357 -0.0399213357 -416.1414162666 0.0830081652 0.0830081652
0.5412892932 -0.1169378467 0.0000000000 -0.0399213357 -0.0399213357 -423.1828571516 0.0830081652 0.0830081652
0.5484450396 -0.0996623467 0.0000000000 -0.0399213357 -0.0399213357 -432.2818410038 0.0830081652 0.0830081652
0.5549498304 -0.0821313655 0.0000000000 -0.0399213357 -0.0399213357 -443.1181636134 0.0830081652 0.0830081652
0.5607945682 -0.0643694218 0.0000000000 -0.0399213357 -0.0399213357 -455.3226150490 0.0830081652 0.0830081652
0.5659710784 -0.0464013571 0.0000000000 -0.0399213357 -0.0399213357 -468.5062254723 0.0830081652 0.0830081652
0.5704721213 -0.0282523015 0.0000000000 -0.0399213357 -0.0399213357 -482.2853254360 0.0830081652 0.0830081652
0.5742914019 -0.0099476381 0.0000000000 -0.0399213357 -0.0399213357 -496.2942153619 0.0830081652 0.0830081652
0.5774235783 0.0084870323 0.0000000000 -0.0399213357 -0.0399213357 -510.1923109846 0.0830081652 0.0830081652
0.5798642702 0.0270259274 0.0000000000 -0.0399213357 -0.0399213357 -523.6670088642 0.0830081652 0.0830081652
0.5816100638 0.0456431186 0.0000000000 -0.0399213357 -0.0399213357 -536.4362136685 0.0830081652 0.0830081652
0.5826585176 0.0643125683 0.0000000000 -0.0399213357 -0.0399213357 -548.2517932394 0.0830081652 0.0830081652
0.5830081652 0.0830081654 0.0000000000 -0.0399213357 -0.0399213357 -558.9047980461 0.0830081652 0.0830081652
0.5826585176 0.1017037625 0.0000000000 -0.0399213357 -0.0399213357 -568.2318150018 0.0830081652 0.0830081652
0.5816100638 0.1203732122 0.0000000000 -0.0399213357 -0.0399213357 -576.1213275213 0.0830081652 0.0830081652
0.5798642701 0.1389904034 0.0000000000 -0.0399213357 -0.0399213357 -582.5186025490 0.0830081652 0.0830081652
0.5774235783 0.1575292985 0.0000000000 -0.0399213357 -0.0399213357 -587.4277636413 0.0830081652 0.0830081652
0.5742914018 0.1759639689 0.0000000000 -0.0399213357 -0.0399213357 -590.9102478532 0.0830081652 0.0830081652
0.5704721213 0.1942686323 0.0000000000 -0.0399213357 -0.0399213357 -593.0792949215 0.0830081652 0.0830081652
0.5659710783 0.2124176879 0.0000000000 -0.0399213357 -0.0399213357 -594.0911817225 0.0830081652 0.0830081652
0.5607945680 0.2303857525 0.0000000000 -0.0399213357 -0.0399213357 -594.1337617529 0.0830081652 0.0830081652
0.5549498303 0.2481476963 0.0000000000 -0.0399213357 -0.0399213357 -593.4145828418 0.0830081652 0.0830081652
0.5484450395 0.2656786775 0.0000000000 -0.0399213357 -0.0399213357 -592.1485100552 0.0830081652 0.0830081652
0.5412892931 0.2829541775 0.0000000000 -0.0399213357 -0.0399213357 -590.5492325895 0.0830081652 0.0830081652
0.5334925991 0.2999500349 0.0000000000 -0.0399213357 -0.0399213357 -588.8206107781 0.0830081652 0.0830081652
0.5250658619 0.3166424794 0.0000000000 -0.0399213357 -0.0399213357 -587.1584038364 0.0830081652 0.0830081652
0.5160208670 0.3330081653 0.0000000000 -0.0399213357 -0.0399213357 -585.7452385554 0.0830081652 0.0830081652
0.5063702648 0.3490242035 0.0000000000 -0.0399213357 -0.0399213357 -584.7689066276 0.0830081652 0.0830081652
0.4961275523 0.3646681943 0.0000000000 -0.0399213357 -0.0399213357 -584.4034524682 0.0830081652 0.0830081652
0.4853070550 0.3799182580 0.0000000000 -0.0399213357 -0.0399213357 -584.8510794484 0.0830081652 0.0830081652
0.4739239064 0.3947530662 0.0000000000 -0.0399213357 -0.0399213357 -586.2493347549 0.0830081652 0.0830081652
0.4619940267 0.4091518709 0.0000000000 -0.0399213357 -0.0399213357 -588.8037329369 0.0830081652 0.0830081652
0.4495341011 0.4230945341 0.0000000000 -0.0399213357 -0.0399213357 -592.4562827849 0.0830081652 0.0830081652
0.4216489510 0.4508701206 0.0000000000 -0.0399213357 -0.0399213357 -604.1692219695 0.0830081652 0.0830081652
0.4061577841 0.4645501993 0.0000000000 -0.0399213357 -0.0399213357 -612.4222997169 0.0830081652 0.0830081652
0.3901145215 0.4775784199 0.0000000000 -0.0399213357 -0.0399213357 -621.7438297188 0.0830081652 0.0830081652
0.3735465728 0.4899325239 0.0000000000 -0.0399213357 -0.0399213357 -632.3033930332 0.0830081652 0.0830081652
0.3564822442 0.5015914044 0.0000000000 -0.0399213357 -0.0399213357 -643.9942409535 0.0830081652 0.0830081652
0.3389506897 0.5125351424 0.0000000000 -0.0399213357 -0.0399213357 -656.9325842702 0.0830081652 0.0830081652
0.3209818617 0.5227450408 0.0000000000 -0.0399213357 -0.0399213357 -671.1480108606 0.0830081652 0.0830081652
0.3026064596 0.5322036562 0.0000000000 -0.0399213357 -0.0399213357 -686.7061568403 0.0830081652 0.0830081652
0.2838558775 0.5408948286 0.0000000000 -0.0399213357 -0.0399213357 -703.6011939198 0.0830081652 0.0830081652
0.2647621504 0.5488037093 0.0000000000 -0.0399213357 -0.0399213357 -721.7897755018 0.0830081652 0.0830081652
0.2453578997 0.5559167861 0.0000000000 -0.0399213357 -0.0399213357 -741.1557304222 0.0830081652 0.0830081652
0.2256762772 0.5622219064 0.0000000000 -0.0399213357 -0.0399213357 -761.5189225396 0.0830081652 0.0830081652
0.2057509087 0.5677082982 0.0000000000 -0.0399213357 -0.0399213357 -782.6228608069 0.0830081652 0.0830081652
0.1856158362 0.5723665879 0.0000000000 -0.0399213357 -0.0399213357 -804.1379909328 0.0830081652 0.0830081652
0.1653054602 0.5761888169 0.0000000000 -0.0399213357 -0.0399213357 -825.6616533937 0.0830081652 0.0830081652
0.1448544807 0.5791684551 0.0000000000 -0.0399213357 -0.0399213357 -846.7263749872 0.0830081652 0.0830081652
0.1242978378 0.5813004117 0.0000000000 -0.0399213357 -0.0399213357 -866.8104247192 0.0830081652 0.0830081652
0.1036706522 0.5825810444 0.0000000000 -0.0399213357 -0.0399213357 -885.3533543952 0.0830081652 0.0830081652
0.0830081651 0.5830081652 0.0000000000 -0.0399213357 -0.0399213357 -901.7737525814 0.0830081652 0.0830081652
0.0623456780 0.5825810444 0.0000000000 -0.0399213357 -0.0399213357 -915.4888889937 0.0830081652 0.0830081652
0.0417184924 0.5813004117 0.0000000000 -0.0399213357 -0.0399213357 -925.9343891142 0.0830081652 0.0830081652
0.0211618495 0.5791684551 0.0000000000 -0.0399213357 -0.0399213357 -932.5829142131 0.0830081652 0.0830081652
0.0007108699 0.5761888169 0.0000000000 -0.0399213357 -0.0399213357 -934.9606466019 0.0830081652 0.0830081652
-0.0195995060 0.5723665878 0.0000000000 -0.0399213357 -0.0399213357 -932.6608887148 0.0830081652 0.0830081652
-0.0397345785 0.5677082981 0.0000000000 -0.0399213357 -0.0399213357 -925.3543222195 0.0830081652 0.0830081652
-0.0596599470 0.5622219064 0.0000000000 -0.0399213357 -0.0399213357 -912.7958440496 0.0830081652 0.0830081652
-0.0793415695 0.5559167860 0.0000000000 -0.0399213357 -0.0399213357 -894.8281359414 0.0830081652 0.0830081652
-0.0987458202 0.5488037092 0.0000000000 -0.0399213357 -0.0399213357 -871.3823259353 0.0830081652 0.0830081652
-0.1178395472 0.5408948285 0.0000000000 -0.0399213357 -0.0399213357 -842.4762067519 0.0830081652 0.0830081652
-0.1365901293 0.5322036561 0.0000000000 -0.0399213357 -0.0399213357 -808.2105208748 0.0830081652 0.0830081652
-0.1549655314 0.5227450407 0.0000000000 -0.0399213357 -0.0399213357 -768.7638074232 0.0830081652 0.0830081652
-0.1729343595 0.5125351423 0.0000000000 -0.0399213357 -0.0399213357 -724.3862531097 0.0830081652 0.0830081652
-0.1904659140 0.5015914043 0.0000000000 -0.0399213357 -0.0399213357 -675.3929115843 0.0830081652 0.0830081652
-0.2075302426 0.4899325237 0.0000000000 -0.0399213357 -0.0399213357 -622.1565675855 0.0830081652 0.0830081652
-0.2240981913 0.4775784198 0.0000000000 -0.0399213357 -0.0399213357 -565.1004371885 0.0830081652 0.0830081652
-0.2401414538 0.4645501992 0.0000000000 -0.0399213357 -0.0399213357 -504.6908255207 0.0830081652 0.0830081652
-0.2556326207 0.4508701204 0.0000000000 -0.0399213357 -0.0399213357 -441.4298180588 0.0830081652 0.0830081652
-0.2848537902 0.4216489509 0.0000000000 -0.0399213357 -0.0399213357 -308.4977224134 0.0830081652 0.0830081652
-0.2985338690 0.4061577840 0.0000000000 -0.0399213357 -0.0399213357 -239.9456351115 0.0830081652 0.0830081652
-0.3115620896 0.3901145214 0.0000000000 -0.0399213357 -0.0399213357 -170.7668394702 0.0830081652 0.0830081652
-0.3239161935 0.3735465728 0.0000000000 -0.0399213357 -0.0399213357 -101.5384669420 0.0830081652 0.0830081652
-0.3355750740 0.3564822441 0.0000000000 -0.0399213357 -0.0399213357 -32.8340832038 0.0830081652 0.0830081652
-0.3465188121 0.3389506896 0.0000000000 -0.0399213357 -0.0399213357 34.7815361554 0.0830081652 0.0830081652
-0.3567287105 0.3209818616 0.0000000000 -0.0399213357 -0.0399213357 100.7572277730 0.0830081652 0.0830081652
-0.3661873258 0.3026064595 0.0000000000 -0.0399213357 -0.0399213357 164.5599111435 0.0830081652 0.0830081652
-0.3748784982 0.2838558774 0.0000000000 -0.0399213357 -0.0399213357 225.6787569528 0.0830081652 0.0830081652
-0.3827873789 0.2647621503 0.0000000000 -0.0399213357 -0.0399213357 283.6290884662 0.0830081652 0.0830081652
-0.3899004557 0.2453578996 0.0000000000 -0.0399213357 -0.0399213357 337.9560329098 0.0830081652 0.0830081652
-0.3962055761 0.2256762771 0.0000000000 -0.0399213357 -0.0399213357 388.2379230842 0.0830081652 0.0830081652
-0.4016919678 0.2057509086 0.0000000000 -0.0399213357 -0.0399213357 434.0894377404 0.0830081652 0.0830081652
-0.4063502575 0.1856158361 0.0000000000 -0.0399213357 -0.0399213357 475.1644630461 0.0830081652 0.0830081652
-0.4101724865 0.1653054601 0.0000000000 -0.0399213357 -0.0399213357 511.1586558225 0.0830081652 0.0830081652
-0.4131521247 0.1448544806 0.0000000000 -0.0399213357 -0.0399213357 541.8116906021 0.0830081652 0.0830081652
-0.4152840813 0.1242978377 0.0000000000 -0.0399213357 -0.0399213357 566.9091755819 0.0830081652 0.0830081652
-0.4165647140 0.1036706521 0.0000000000 -0.0399213357 -0.0399213357 586.2842261223 0.0830081652 0.0830081652
-0.4169918348 0.0830081650 0.0000000000 -0.0399213357 -0.0399213357 599.8186878913 0.0830081652 0.0830081652
-0.4165647140 0.0623456779 0.0000000000 -0.0399213357 -0.0399213357 607.4440045900 0.0830081652 0.0830081652
-0.4152840813 0.0417184923 0.0000000000 -0.0399213357 -0.0399213357 609.1417272761 0.0830081652 0.0830081652
-0.4131521246 0.0211618494 0.0000000000 -0.0399213357 -0.0399213357 604.9436635882 0.0830081652 0.0830081652
-0.4101724865 0.0007108698 0.0000000000 -0.0399213357 -0.0399213357 594.9316658465 0.0830081652 0.0830081652
-0.4063502574 -0.0195995061 0.0000000000 -0.0399213357 -0.0399213357 579.2370572914 0.0830081652 0.0830081652
-0.4016919677 -0.0397345786 0.0000000000 -0.0399213357 -0.0399213357 558.0396959029 0.0830081652 0.0830081652
-0.3962055760 -0.0596599471 0.0000000000 -0.0399213357 -0.0399213357 531.5666755371 0.0830081652 0.0830081652
-0.3899004556 -0.0793415696 0.0000000000 -0.0399213357 -0.0399213357 500.0906645855 0.0830081652 0.0830081652
-0.3827873787 -0.0987458203 0.0000000000 -0.0399213357 -0.0399213357 463.9278829763 0.0830081652 0.0830081652
-0.3748784980 -0.1178395473 0.0000000000 -0.0399213357 -0.0399213357 423.4357188954 0.0830081652 0.0830081652
-0.3661873256 -0.1365901294 0.0000000000 -0.0399213357 -0.0399213357 379.0099869057 0.0830081652 0.0830081652
-0.3567287103 -0.1549655315 0.0000000000 -0.0399213357 -0.0399213357 331.0818289465 0.0830081652 0.0830081652
-0.3465188119 -0.1729343596 0.0000000000 -0.0399213357 -0.0399213357 280.1142588651 0.0830081652 0.0830081652
-0.3355750738 -0.1904659141 0.0000000000 -0.0399213357 -0.0399213357 226.5983496123 0.0830081652 0.0830081652
-0.3239161933 -0.2075302427 0.0000000000 -0.0399213357 -0.0399213357 171.0490600611 0.0830081652 0.0830081652
-0.3115620893 -0.2240981913 0.0000000000 -0.0399213357 -0.0399213357 114.0006957849 0.0830081652 0.0830081652
-0.2985338687 -0.2401414539 0.0000000000 -0.0399213357 -0.0399213357 56.0019953087 0.0830081652 0.0830081652
-0.2848537900 -0.2556326208 0.0000000000 -0.0399213357 -0.0399213357 -2.3891692199 0.0830081652 0.0830081652
-0.2556326204 -0.2848537903 0.0000000000 -0.0399213357 -0.0399213357 -118.1063310007 0.0830081652 0.0830081652
-0.2401414535 -0.2985338691 0.0000000000 -0.0399213357 -0.0399213357 -174.3242609377 0.0830081652 0.0830081652
-0.2240981909 -0.3115620897 0.0000000000 -0.0399213357 -0.0399213357 -228.7320048920 0.0830081652 0.0830081652
-0.2075302423 -0.3239161936 0.0000000000 -0.0399213357 -0.0399213357 -280.8198147443 0.0830081652 0.0830081652
-0.1904659136 -0.3355750741 0.0000000000 -0.0399213357 -0.0399213357 -330.1092214878 0.0830081652 0.0830081652
-0.1729343591 -0.3465188121 0.0000000000 -0.0399213357 -0.0399213357 -376.1611090856 0.0830081652 0.0830081652
-0.1549655311 -0.3567287105 0.0000000000 -0.0399213357 -0.0399213357 -418.5840034090 0.0830081652 0.0830081652
-0.1365901290 -0.3661873259 0.0000000000 -0.0399213357 -0.0399213357 -457.0424123232 0.0830081652 0.0830081652
-0.1178395469 -0.3748784982 0.0000000000 -0.0399213357 -0.0399213357 -491.2649812931 0.0830081652 0.0830081652
-0.0987458198 -0.3827873789 0.0000000000 -0.0399213357 -0.0399213357 -521.0521454712 0.0830081652 0.0830081652
-0.0793415691 -0.3899004557 0.0000000000 -0.0399213357 -0.0399213357 -546.2828699414 0.0830081652 0.0830081652
-0.0596599467 -0.3962055761 0.0000000000 -0.0399213357 -0.0399213357 -566.9199847294 0.0830081652 0.0830081652
-0.0397345781 -0.4016919678 0.0000000000 -0.0399213357 -0.0399213357 -583.0135559640 0.0830081652 0.0830081652
-0.0195995056 -0.4063502575 0.0000000000 -0.0399213357 -0.0399213357 -594.7017085128 0.0830081652 0.0830081652
0.0007108703 -0.4101724866 0.0000000000 -0.0399213357 -0.0399213357 -602.2083521509 0.0830081652 0.0830081652
0.0211618499 -0.4131521247 0.0000000000 -0.0399213357 -0.0399213357 -605.8373810997 0.0830081652 0.0830081652
0.0417184928 -0.4152840813 0.0000000000 -0.0399213357 -0.0399213357 -605.9631332794 0.0830081652 0.0830081652
0.0623456784 -0.4165647140 0.0000000000 -0.0399213357 -0.0399213357 -603.0171983662 0.0830081652 0.0830081652
0.0830081655 -0.4169918348 0.0000000000 -0.0399213357 -0.0399213357 -597.4720484863 0.0830081652 0.0830081652
0.1036706526 -0.4165647140 0.0000000000 -0.0399213357 -0.0399213357 -589.8223442888 0.0830081652 0.0830081652
0.1242978382 -0.4152840813 0.0000000000 -0.0399213357 -0.0399213357 -580.5651550675 0.0830081652 0.0830081652
0.1448544811 -0.4131521246 0.0000000000 -0.0399213357 -0.0399213357 -570.1804901820 0.0830081652 0.0830081652
0.1653054607 -0.4101724865 0.0000000000 -0.0399213357 -0.0399213357 -559.1137380602 0.0830081652 0.0830081652
0.1856158366 -0.4063502574 0.0000000000 -0.0399213357 -0.0399213357 -547.7611689366 0.0830081652 0.0830081652
0.2057509091 -0.4016919677 0.0000000000 -0.0399213357 -0.0399213357 -536.4599530241 0.0830081652 0.0830081652
0.2256762776 -0.3962055759 0.0000000000 -0.0399213357 -0.0399213357 -525.4824744999 0.0830081652 0.0830081652
0.2453579001 -0.3899004555 0.0000000000 -0.0399213357 -0.0399213357 -515.0367064345 0.0830081652 0.0830081652
0.2647621508 -0.3827873787 0.0000000000 -0.0399213357 -0.0399213357 -505.2682265865 0.0830081652 0.0830081652
0.2838558778 -0.3748784980 0.0000000000 -0.0399213357 -0.0399213357 -496.2691744878 0.0830081652 0.0830081652
0.3026064599 -0.3661873256 0.0000000000 -0.0399213357 -0.0399213357 -488.0749062247 0.0830081652 0.0830081652
0.3209818620 -0.3567287102 0.0000000000 -0.0399213357 -0.0399213357 -480.6777857900 0.0830081652 0.0830081652
0.3389506900 -0.3465188118 0.0000000000 -0.0399213357 -0.0399213357 -473.9872925680 0.0830081652 0.0830081652
0.3564822445 -0.3355750737 0.0000000000 -0.0399213357 -0.0399213357 -467.8910732094 0.0830081652 0.0830081652
0.3735465732 -0.3239161932 0.0000000000 -0.0399213357 -0.0399213357 -462.1092522613 0.0830081652 0.0830081652
0.3901145218 -0.3115620893 0.0000000000 -0.0399213357 -0.0399213357 -456.5304084234 0.0830081652 0.0830081652
0.4061577844 -0.2985338687 0.0000000000 -0.0399213357 -0.0399213357 -450.5927711245 0.0830081652 0.0830081652
0.4216489513 -0.2848537899 0.0000000000 -0.0399213357 -0.0399213357 -444.7190855686 0.0830081652 0.0830081652
0.6189023597 -0.4414246186 0.0000000000 0.2493136037 0.0798640254 -421.8016292577 0.0691134555 0.0687049344
0.6379036000 -0.4207416268 0.0000000000 0.1656703033 0.0957853771 -418.5368747103 0.0694248074 0.0684739313
0.6561257997 -0.3993514924 0.0000000000 0.0881908775 0.1143860305 -414.2947727869 0.0697521876 0.0682658586
0.6735421636 -0.3772832876 0.0000000000 0.0180530992 0.1352791887 -409.3809118101 0.0700938285 0.0680818512
0.6901269655 -0.3545671322 0.0000000000 -0.0426647482 0.1572750000 -404.3605787196 0.0704478845 0.0679229110
0.7058555919 -0.3312341554 0.0000000000 -0.0915348214 0.1786117418 -400.0116967679 0.0708124422 0.0677899016
0.7207045838 -0.3073164553 0.0000000000 -0.1268113062 0.1974806899 -397.1680763489 0.0711855307 0.0676835443
0.7346516771 -0.2828470570 0.0000000000 -0.1484266374 0.2126888314 -396.5002798301 0.0715651318 0.0676044138
0.7476758423 -0.2578598686 0.0000000000 -0.1583243525 0.2241347962 -398.3542981811 0.0719491912 0.0675529353
0.7597573217 -0.2323896353 0.0000000000 -0.1598703656 0.2328176608 -402.7467956919 0.0723356296 0.0675293825
0.7708776652 -0.2064718920 0.0000000000 -0.1567080296 0.2403837258 -409.4935423953 0.0727223536 0.0675338758
0.7810197648 -0.1801429138 0.0000000000 -0.1517297244 0.2484935735 -418.3573629420 0.0731072669 0.0675663822
0.7901678864 -0.1534396653 0.0000000000 -0.1466014905 0.2583266013 -429.1279542713 0.0734882819 0.0676267151
0.7983077004 -0.1263997481 0.0000000000 -0.1418365409 0.2703719783 -441.6237964660 0.0738633306 0.0677145354
0.8054263099 -0.0990613466 0.0000000000 -0.1371617321 0.2844728158 -455.6512431825 0.0742303757 0.0678293535
0.8115122769 -0.0714631733 0.0000000000 -0.1319260544 0.3000082613 -470.9573277047 0.0745874219 0.0679705317
0.8165556458 -0.0436444114 0.0000000000 -0.1254176890 0.3161071449 -487.1981353217 0.0749325261 0.0681372879
0.8205479658 -0.0156446573 0.0000000000 -0.1170588291 0.3318308936 -503.9313729194 0.0752638083 0.0683286995
0.8234823095 0.0124961386 0.0000000000 -0.1064978794 0.3463029734 -520.6330612514 0.0755794616 0.0685437085
0.8253532903 0.0407377317 0.0000000000 -0.0936310629 0.3587851003 -536.7328330384 0.0758777617 0.0687811271
0.8261570766 0.0690396443 0.0000000000 -0.0785816042 0.3687098702 -551.6594413949 0.0761570766 0.0690396440
0.8258914039 0.0973612276 0.0000000000 -0.0616573232 0.3756814700 -564.8876041887 0.0764158753 0.0693178316
0.8245555838 0.1256617239 0.0000000000 -0.0433011189 0.3794550840 -575.9788414088 0.0766527359 0.0696141534
0.8221505112 0.1539003295 0.0000000000 -0.0240439769 0.3799036031 -584.6117100617 0.0768663538 0.0699269721
0.8186786680 0.1820362588 0.0000000000 -0.0044662827 0.3769781865 -590.5998591719 0.0770555483 0.0702545589
0.8141441245 0.2100288078 0.0000000000 0.0148300844 0.3706677196 -593.8988351804 0.0772192696 0.0705951022
0.8085525383 0.2378374180 0.0000000000 0.0332396130 0.3609618338 -594.6040877175 0.0773566043 0.0709467173
0.8019111500 0.2654217413 0.0000000000 0.0501652359 0.3478231304 -592.9429304876 0.0774667804 0.0713074572
0.7942287764 0.2927417033 0.0000000000 0.0650328694 0.3311759546 -589.2622501228 0.0775491721 0.0716753223
0.7855158006 0.3197575680 0.0000000000 0.0773209677 0.3109195670 -584.0117602022 0.0776033030 0.0720482714
0.7757841604 0.3464300014 0.0000000000 0.0866231439 0.2869700257 -577.7204518749 0.0776288490 0.0724242330
0.7650473322 0.3727201345 0.0000000000 0.0927727762 0.2593263461 -570.9634434737 0.0776256403 0.0728011161
0.7533203137 0.3985896264 0.0000000000 0.0960758430 0.2281473736 -564.3197034277 0.0775936629 0.0731768219
0.7406196032 0.4240007262 0.0000000000 0.0976919792 0.1938261458 -558.3273803727 0.0775330582 0.0735492549
0.7269631761 0.4489163345 0.0000000000 0.1000967809 0.1570563274 -553.4466005841 0.0774441234 0.0739163344
0.7123704590 0.4733000635 0.0000000000 0.1073260762 0.1188739262 -550.0329331849 0.0773273096 0.0742760060
0.6968623007 0.4971162961 0.0000000000 0.1245565007 0.0806176779 -548.3136134647 0.0771832201 0.0746262525
0.6804609416 0.5203302446 0.0000000000 0.1568619661 0.0437487257 -548.3610301933 0.0770126068 0.0749651054
0.6631899790 0.5429080069 0.0000000000 0.2076495164 0.0095710869 -550.0778014725 0.0768163672 0.0752906554
0.6450743317 0.5648166217 0.0000000000 0.2776667553 -0.0209840641 -553.2175614997 0.0765955394 0.0756010632
0.6261402005 0.5860241229 0.0000000000 0.3650797351 -0.0473714500 -557.4408011868 0.0763512967 0.0758945695
0.5837276705 0.6282428690 0.0000000000 0.5890075507 -0.0879865071 -568.3414523742 0.0757664919 0.0764499359
0.5601492864 0.6490168478 0.0000000000 0.7171117355 -0.1003750390 -574.3243818842 0.0754248581 0.0767037966
0.5357218210 0.6687846793 0.0000000000 0.8445026058 -0.1063426385 -580.0511769324 0.0750622865 0.0769292972
0.5104887786 0.6875113736 0.0000000000 0.9656829658 -0.1059327511 -585.2941596640 0.0746811672 0.0771248356
0.4844951367 0.7051638682 0.0000000000 1.0761082765 -0.0995708751 -589.8745708724 0.0742840182 0.0772890094
0.4577872562 0.7217110912 0.0000000000 1.1725841786 -0.0880107690 -593.6831204402 0.0738734695 0.0774206254
0.4304127900 0.7371240223 0.0000000000 1.2534576609 -0.0722042445 -596.6799418952 0.0734522453 0.0775187089
0.4024205880 0.7513757472 0.0000000000 1.3185372968 -0.0531446731 -598.8786148273 0.0730231465 0.0775825107
0.3738605996 0.7644415084 0.0000000000 1.3687968110 -0.0317358596 -600.3206829916 0.0725890312 0.0776115133
0.3447837745 0.7762987509 0.0000000000 1.4059718884 -0.0087105876 -601.0499610328 0.0721527966 0.0776054348
0.3152419607 0.7869271632 0.0000000000 1.4321554846 0.0153979299 -601.0919573123 0.0717173589 0.0775642318
0.2852878017 0.7963087126 0.0000000000 1.4494640923 0.0402423414 -600.4401719049 0.0712856336 0.0774881007
0.2549746313 0.8044276762 0.0000000000 1.4598086856 0.0656219150 -599.0493426395 0.0708605160 0.0773774768
0.2243563679 0.8112706666 0.0000000000 1.4647716063 0.0914341195 -596.8349663946 0.0704448614 0.0772330325
0.1934874079 0.8168266514 0.0000000000 1.4655699905 0.1176290757 -593.6778869704 0.0700414653 0.0770556739
0.1624225178 0.8210869694 0.0000000000 1.4630779493 0.1441734540 -589.4323582662 0.0696530445 0.0768465346
0.1312167268 0.8240453394 0.0000000000 1.4578806757 0.1710257579 -583.9358978628 0.0692822179 0.0766069697
0.0999252191 0.8256978655 0.0000000000 1.4503396968 0.1981219751 -577.0194629697 0.0689314886 0.0763385467
0.0686032262 0.8260430359 0.0000000000 1.4406559194 0.2253692434 -568.5168916376 0.0686032264 0.0760430359
0.0373059199 0.8250817175 0.0000000000 1.4289235913 0.2526449818 -558.2730020347 0.0682996508 0.0757223987
0.0060883063 0.8228171448 0.0000000000 1.4151728878 0.2797993418 -546.1501171574 0.0680228156 0.0753787750
-0.0249948795 0.8192549036 0.0000000000 1.3994015324 0.3066594163 -532.0330339314 0.0677745941 0.0750144688
-0.0558892771 0.8144029105 0.0000000000 1.3815971220 0.3330341953 -515.8325894042 0.0675566657 0.0746319330
-0.0865410032 0.8082713869 0.0000000000 1.3617521640 0.3587196710 -497.4880242367 0.0673705036 0.0742337529
-0.1168967514 0.8008728282 0.0000000000 1.3398736972 0.3835037723 -476.9683408079 0.0672173641 0.0738226288
-0.1469038911 0.7922219692 0.0000000000 1.3159890283 0.4071709761 -454.2728282206 0.0670982773 0.0734013574
-0.1765105629 0.7823357440 0.0000000000 1.2901487532 0.4295065341 -429.4308968215 0.0670140391 0.0729728128
-0.2056657726 0.7712332426 0.0000000000 1.2624279075 0.4503002951 -402.5013389296 0.0669652055 0.0725399266
-0.2343194810 0.7589356625 0.0000000000 1.2329258424 0.4693501259 -373.5711128127 0.0669520877 0.0721056676
-0.2624226924 0.7454662573 0.0000000000 1.2017652347 0.4864649373 -342.7537330490 0.0669747494 0.0716730210
-0.2899275390 0.7308502811 0.0000000000 1.1690905112 0.5014673272 -310.1873406475 0.0670330059 0.0712449678
-0.3167873621 0.7151149290 0.0000000000 1.1350658805 0.5141958504 -276.0325190371 0.0671264249 0.0708244633
-0.3429567901 0.6982892755 0.0000000000 1.0998731085 0.5245069263 -240.4699160001 0.0672543287 0.0704144169
-0.3683918131 0.6804042087 0.0000000000 1.0637091318 0.5322764002 -203.6977260179 0.0674157986 0.0700176709
-0.3930498536 0.6614923623 0.0000000000 1.0267835810 0.5374007691 -165.9290819426 0.0676096811 0.0696369804
-0.4168898333 0.6415880449 0.0000000000 0.9893162665 0.5397980907 -127.3893993161 0.0678345953 0.0692749939
-0.4398722364 0.6207271668 0.0000000000 0.9515346677 0.5394085911 -88.3137111491 0.0680889425 0.0689342340
-0.4831144136 0.5762869259 0.0000000000 0.8759620843 0.5301425701 -9.5267358583 0.0686785196 0.0683257474
-0.5033034820 0.5527867069 0.0000000000 0.8386424400 0.5212589886 29.6898976405 0.0690095693 0.0680622787
-0.5224936612 0.5284880558 0.0000000000 0.8019466176 0.5095738920 68.4581652747 0.0693617210 0.0678285215
-0.5406540572 0.5034337300 0.0000000000 0.7661047856 0.4951383166 106.5332151515 0.0697324809 0.0676261187
-0.5577556348 0.4776676141 0.0000000000 0.7313411852 0.4780239222 143.6752297421 0.0701192241 0.0674564957
-0.5737712524 0.4512346367 0.0000000000 0.6978722633 0.4583220722 179.6514615275 0.0705192135 0.0673208501
-0.5886756944 0.4241806871 0.0000000000 0.6659049511 0.4361427816 214.2381190246 0.0709296191 0.0672201425
-0.6024456981 0.3965525314 0.0000000000 0.6356350939 0.4116135498 247.2220983658 0.0713475384 0.0671550900
-0.6150599784 0.3683977285 0.0000000000 0.6072460360 0.3848780955 278.4025586045 0.0717700167 0.0671261602
-0.6264992473 0.3397645461 0.0000000000 0.5809073649 0.3560950083 307.5923408503 0.0721940688 0.0671335684
-0.6367462315 0.3107018771 0.0000000000 0.5567738177 0.3254363317 334.6192325000 0.0726166999 0.0671772755
-0.6457856847 0.2812591560 0.0000000000 0.5349843560 0.2930860897 359.3270789856 0.0730349272 0.0672569881
-0.6536043979 0.2514862760 0.0000000000 0.5156614125 0.2592387654 381.5767467439 0.0734458016 0.0673721610
-0.6601912056 0.2214335069 0.0000000000 0.4989102984 0.2240977314 401.2469409227 0.0738464284 0.0675220006
-0.6655369893 0.1911514134 0.0000000000 0.4848187412 0.1878736305 418.2348773877 0.0742339883 0.0677054709
-0.6696346774 0.1606907742 0.0000000000 0.4734565092 0.1507827162 432.4568013612 0.0746057575 0.0679213011
-0.6724792428 0.1301025029 0.0000000000 0.4648750835 0.1130451779 443.8483410077 0.0749591270 0.0681679941
-0.6740676974 0.0994375686 0.0000000000 0.4591073802 0.0748834932 452.3646917122 0.0752916214 0.0684438383
-0.6743990834 0.0687469188 0.0000000000 0.4561675633 0.0365208412 457.9806441274 0.0756009166 0.0687469191
-0.6734744629 0.0380814024 0.0000000000 0.4560510065 -0.0018204144 460.6904839642 0.0758848559 0.0690751334
-0.6712969044 0.0074916949 0.0000000000 0.4587344238 -0.0399201768 460.5077821697 0.0761414653 0.0694262044
-0.6678714672 -0.0229717757 0.0000000000 0.4641761981 -0.0775620161 457.4650921226 0.0763689676 0.0697976981
-0.6632051831 -0.0532589020 0.0000000000 0.4723169264 -0.1145345449 451.6135634145 0.0765657944 0.0701870410
-0.6573070366 -0.0833199686 0.0000000000 0.4830801306 -0.1506327925 443.0224556753 0.0767305973 0.0705915384