 TITLE = "Tecplot data"
 VARIABLES = "X", "Y", "Z" "U", "V", "p", "dispX", "dispY"
 ZONE SOLUTIONTIME=75.900000, NODES=26114 , ELEMENTS=25916, DATAPACKING=POINT, ZONETYPE=FEQUADRILATERAL
0.5206388838 1.3564700945 0.0000000000 0.0000000000 0.0000000000 -1582.2804821627 0.1670854933 1.0029167039
0.5206388841 0.6493633136 0.0000000000 0.0000000000 0.0000000000 -75.4422614012 0.1670854933 1.0029167039
-0.1864678974 1.3564700944 0.0000000000 0.0000000000 0.0000000000 -444.0300870695 0.1670854933 1.0029167039
-0.1864678971 0.6493633131 0.0000000000 0.0000000000 0.0000000000 408.4744317842 0.1670854933 1.0029167039
0.7004269120 1.5292919106 0.0000000000 1.0690052454 -0.4932679683 -734.0564674048 0.1700968262 0.9989618247
0.6912152673 0.4670447827 0.0000000000 0.1306452691 0.2263960354 -81.6209696668 0.1608851811 0.9973748682
-0.3621358164 1.5329568819 0.0000000000 1.1906698561 0.7282140491 -56.4378260700 0.1681942696 1.0026267962
-0.3651470648 0.4736175342 0.0000000000 0.2423610234 -0.1580496776 417.4630078421 0.1651830208 1.0039476204
1.2471190053 2.0329476439 0.0000000000 1.0605349221 -0.0265130774 -292.9179614197 0.1864588336 0.9722874720
1.1908508138 -0.0931806808 0.0000000000 0.0740492396 0.0031562057 -139.8141163682 0.1301906412 0.9674794902
-0.8873641221 2.0600822830 0.0000000000 1.0512577393 0.2788074021 72.8880611175 0.1732960500 0.9994221116
-0.9083558613 -0.0538269551 0.0000000000 0.6295615540 -0.1219810571 325.1638631709 0.1523043099 1.0068332173
4.4703822840 4.1108262329 0.0000000000 1.0879318091 -0.0343433697 -54.6156968417 0.2703822840 0.8108262329
4.1888415859 -2.5150258125 0.0000000000 1.0927008170 0.1097797047 -35.4082734226 -0.0111584141 0.7849741875
20.0000000000 4.7000000000 0.0000000000 1.0422782442 0.0486326826 0.4735441421 0.0000000000 0.0000000000
20.0000000000 -4.7000000000 0.0000000000 1.0665668388 -0.0240259426 -0.0791771489 0.0000000000 0.0000000000
-10.0000000000 15.0000000000 0.0000000000 1.0000000000 0.0000000000 34.8270941634 0.0000000000 0.0000000000
20.0000000000 15.0000000000 0.0000000000 1.0428277606 0.0000000000 0.0231441418 0.0000000000 0.0000000000
20.0000000000 -15.0000000000 0.0000000000 1.0437752499 0.0000000000 0.0167815537 0.0000000000 0.0000000000
-10.0000000000 -15.0000000000 0.0000000000 1.0000000000 0.0000000000 88.8949137996 0.0000000000 0.0000000000
0.5336114294 0.6628303353 0.0000000000 0.0000000000 0.0000000000 -80.4930605628 0.1670854933 1.0029167039
0.5460713551 0.6767729985 0.0000000000 0.0000000000 0.0000000000 -84.8284607093 0.1670854933 1.0029167039
0.5580012347 0.6911718032 0.0000000000 0.0000000000 0.0000000000 -89.3607216445 0.1670854933 1.0029167039
0.5693843833 0.7060066114 0.0000000000 0.0000000000 0.0000000000 -93.8293798974 0.1670854933 1.0029167039
0.5802048806 0.7212566751 0.0000000000 0.0000000000 0.0000000000 -98.5524505564 0.1670854933 1.0029167039
0.5904475930 0.7369006659 0.0000000000 0.0000000000 0.0000000000 -103.6194414541 0.1670854933 1.0029167039
0.6000981953 0.7529167042 0.0000000000 0.0000000000 0.0000000000 -109.2429249717 0.1670854933 1.0029167039
0.6091431902 0.7692823900 0.0000000000 0.0000000000 0.0000000000 -115.5968794194 0.1670854933 1.0029167039
0.6175699273 0.7859748346 0.0000000000 0.0000000000 0.0000000000 -122.8808010521 0.1670854933 1.0029167039
0.6253666213 0.8029706920 0.0000000000 0.0000000000 0.0000000000 -131.2867058785 0.1670854933 1.0029167039
0.6325223677 0.8202461920 0.0000000000 0.0000000000 0.0000000000 -141.0105162609 0.1670854933 1.0029167039
0.6390271585 0.8377771732 0.0000000000 0.0000000000 0.0000000000 -152.2453947003 0.1670854933 1.0029167039
0.6448718962 0.8555391169 0.0000000000 0.0000000000 0.0000000000 -165.1837424853 0.1670854933 1.0029167039
0.6500484065 0.8735071816 0.0000000000 0.0000000000 0.0000000000 -180.0151721790 0.1670854933 1.0029167039
0.6545494494 0.8916562372 0.0000000000 0.0000000000 0.0000000000 -196.9255231812 0.1670854933 1.0029167039
0.6583687299 0.9099609005 0.0000000000 0.0000000000 0.0000000000 -216.0942909784 0.1670854933 1.0029167039
0.6615009064 0.9283955710 0.0000000000 0.0000000000 0.0000000000 -237.6918576647 0.1670854933 1.0029167039
0.6639415982 0.9469344661 0.0000000000 0.0000000000 0.0000000000 -261.8759734844 0.1670854933 1.0029167039
0.6656873919 0.9655516573 0.0000000000 0.0000000000 0.0000000000 -288.7885970599 0.1670854933 1.0029167039
0.6667358457 0.9842211070 0.0000000000 0.0000000000 0.0000000000 -318.5521789781 0.1670854933 1.0029167039
0.6670854933 1.0029167041 0.0000000000 0.0000000000 0.0000000000 -351.2675215871 0.1670854933 1.0029167039
0.6667358457 1.0216123012 0.0000000000 0.0000000000 0.0000000000 -387.0097672275 0.1670854933 1.0029167039
0.6656873918 1.0402817509 0.0000000000 0.0000000000 0.0000000000 -425.8287639948 0.1670854933 1.0029167039
0.6639415982 1.0588989421 0.0000000000 0.0000000000 0.0000000000 -467.7426588252 0.1670854933 1.0029167039
0.6615009064 1.0774378372 0.0000000000 0.0000000000 0.0000000000 -512.7443006208 0.1670854933 1.0029167039
0.6583687299 1.0958725076 0.0000000000 0.0000000000 0.0000000000 -560.7860820925 0.1670854933 1.0029167039
0.6545494493 1.1141771710 0.0000000000 0.0000000000 0.0000000000 -611.8030279876 0.1670854933 1.0029167039
0.6500484064 1.1323262266 0.0000000000 0.0000000000 0.0000000000 -665.6708368062 0.1670854933 1.0029167039
0.6448718961 1.1502942912 0.0000000000 0.0000000000 0.0000000000 -722.2763513563 0.1670854933 1.0029167039
0.6390271584 1.1680562350 0.0000000000 0.0000000000 0.0000000000 -781.3976538409 0.1670854933 1.0029167039
0.6325223675 1.1855872162 0.0000000000 0.0000000000 0.0000000000 -842.9077449399 0.1670854933 1.0029167039
0.6253666212 1.2028627162 0.0000000000 0.0000000000 0.0000000000 -906.4342981342 0.1670854933 1.0029167039
0.6175699272 1.2198585736 0.0000000000 0.0000000000 0.0000000000 -971.9325981263 0.1670854933 1.0029167039
0.6091431900 1.2365510181 0.0000000000 0.0000000000 0.0000000000 -1038.7353389566 0.1670854933 1.0029167039
0.6000981951 1.2529167040 0.0000000000 0.0000000000 0.0000000000 -1107.1362989746 0.1670854933 1.0029167039
0.5904475928 1.2689327422 0.0000000000 0.0000000000 0.0000000000 -1175.7756610859 0.1670854933 1.0029167039
0.5802048804 1.2845767330 0.0000000000 0.0000000000 0.0000000000 -1245.9679824560 0.1670854933 1.0029167039
0.5693843831 1.2998267967 0.0000000000 0.0000000000 0.0000000000 -1314.5680634093 0.1670854933 1.0029167039
0.5580012345 1.3146616049 0.0000000000 0.0000000000 0.0000000000 -1385.7810049165 0.1670854933 1.0029167039
0.5460713548 1.3290604096 0.0000000000 0.0000000000 0.0000000000 -1451.5571113503 0.1670854933 1.0029167039
0.5336114291 1.3430030728 0.0000000000 0.0000000000 0.0000000000 -1524.6534889206 0.1670854933 1.0029167039
0.5057262790 1.3707786593 0.0000000000 0.0000000000 0.0000000000 -1659.1720710788 0.1670854933 1.0029167039
0.4902351122 1.3844587380 0.0000000000 0.0000000000 0.0000000000 -1724.6231879045 0.1670854933 1.0029167039
0.4741918496 1.3974869586 0.0000000000 0.0000000000 0.0000000000 -1790.0437844014 0.1670854933 1.0029167039
0.4576239009 1.4098410626 0.0000000000 0.0000000000 0.0000000000 -1850.1227372558 0.1670854933 1.0029167039
0.4405595723 1.4214999431 0.0000000000 0.0000000000 0.0000000000 -1906.2336376615 0.1670854933 1.0029167039
0.4230280178 1.4324436811 0.0000000000 0.0000000000 0.0000000000 -1957.2137890045 0.1670854933 1.0029167039
0.4050591897 1.4426535795 0.0000000000 0.0000000000 0.0000000000 -2002.8510360702 0.1670854933 1.0029167039
0.3866837876 1.4521121949 0.0000000000 0.0000000000 0.0000000000 -2042.6839712333 0.1670854933 1.0029167039
0.3679332055 1.4608033672 0.0000000000 0.0000000000 0.0000000000 -2076.3503634036 0.1670854933 1.0029167039
0.3488394785 1.4687122479 0.0000000000 0.0000000000 0.0000000000 -2103.5411029808 0.1670854933 1.0029167039
0.3294352278 1.4758253248 0.0000000000 0.0000000000 0.0000000000 -2123.9712023765 0.1670854933 1.0029167039
0.3097536053 1.4821304451 0.0000000000 0.0000000000 0.0000000000 -2137.4227901416 0.1670854933 1.0029167039
0.2898282368 1.4876168369 0.0000000000 0.0000000000 0.0000000000 -2143.7166539261 0.1670854933 1.0029167039
0.2696931643 1.4922751266 0.0000000000 0.0000000000 0.0000000000 -2142.7322163988 0.1670854933 1.0029167039
0.2493827883 1.4960973556 0.0000000000 0.0000000000 0.0000000000 -2134.3980562389 0.1670854933 1.0029167039
0.2289318088 1.4990769938 0.0000000000 0.0000000000 0.0000000000 -2118.6974251265 0.1670854933 1.0029167039
0.2083751659 1.5012089504 0.0000000000 0.0000000000 0.0000000000 -2095.6656392383 0.1670854933 1.0029167039
0.1877479803 1.5024895831 0.0000000000 0.0000000000 0.0000000000 -2065.3904933222 0.1670854933 1.0029167039
0.1670854932 1.5029167039 0.0000000000 0.0000000000 0.0000000000 -2028.0107668012 0.1670854933 1.0029167039
0.1464230060 1.5024895831 0.0000000000 0.0000000000 0.0000000000 -1983.7148485822 0.1670854933 1.0029167039
0.1257958204 1.5012089504 0.0000000000 0.0000000000 0.0000000000 -1932.7387927302 0.1670854933 1.0029167039
0.1052391775 1.4990769937 0.0000000000 0.0000000000 0.0000000000 -1875.3640323998 0.1670854933 1.0029167039
0.0847881980 1.4960973556 0.0000000000 0.0000000000 0.0000000000 -1811.9147639458 0.1670854933 1.0029167039
0.0644778221 1.4922751265 0.0000000000 0.0000000000 0.0000000000 -1742.7550162180 0.1670854933 1.0029167039
0.0443427496 1.4876168368 0.0000000000 0.0000000000 0.0000000000 -1668.2854761638 0.1670854933 1.0029167039
0.0244173810 1.4821304451 0.0000000000 0.0000000000 0.0000000000 -1588.9401047853 0.1670854933 1.0029167039
0.0047357585 1.4758253247 0.0000000000 0.0000000000 0.0000000000 -1505.1826102186 0.1670854933 1.0029167039
-0.0146684921 1.4687122479 0.0000000000 0.0000000000 0.0000000000 -1417.5028317517 0.1670854933 1.0029167039
-0.0337622192 1.4608033672 0.0000000000 0.0000000000 0.0000000000 -1326.4130905022 0.1670854933 1.0029167039
-0.0525128013 1.4521121948 0.0000000000 0.0000000000 0.0000000000 -1232.4445435384 0.1670854933 1.0029167039
-0.0708882034 1.4426535794 0.0000000000 0.0000000000 0.0000000000 -1136.1435490599 0.1670854933 1.0029167039
-0.0888570314 1.4324436810 0.0000000000 0.0000000000 0.0000000000 -1038.0680057968 0.1670854933 1.0029167039
-0.1063885859 1.4214999429 0.0000000000 0.0000000000 0.0000000000 -938.7835788304 0.1670854933 1.0029167039
-0.1234529145 1.4098410624 0.0000000000 0.0000000000 0.0000000000 -838.8596828464 0.1670854933 1.0029167039
-0.1400208632 1.3974869585 0.0000000000 0.0000000000 0.0000000000 -738.8650864902 0.1670854933 1.0029167039
-0.1560641258 1.3844587379 0.0000000000 0.0000000000 0.0000000000 -639.3630507613 0.1670854933 1.0029167039
-0.1715552927 1.3707786591 0.0000000000 0.0000000000 0.0000000000 -540.9060265206 0.1670854933 1.0029167039
-0.2007764622 1.3415574896 0.0000000000 0.0000000000 0.0000000000 -349.2494072878 0.1670854933 1.0029167039
-0.2144565409 1.3260663227 0.0000000000 0.0000000000 0.0000000000 -257.0511580165 0.1670854933 1.0029167039
-0.2274847615 1.3100230601 0.0000000000 0.0000000000 0.0000000000 -167.8911272283 0.1670854933 1.0029167039
-0.2398388655 1.2934551115 0.0000000000 0.0000000000 0.0000000000 -82.1902245047 0.1670854933 1.0029167039
-0.2514977460 1.2763907828 0.0000000000 0.0000000000 0.0000000000 -0.3318355951 0.1670854933 1.0029167039
-0.2624414840 1.2588592283 0.0000000000 0.0000000000 0.0000000000 77.3401552142 0.1670854933 1.0029167039
-0.2726513824 1.2408904003 0.0000000000 0.0000000000 0.0000000000 150.5229188839 0.1670854933 1.0029167039
-0.2821099978 1.2225149982 0.0000000000 0.0000000000 0.0000000000 218.9560288537 0.1670854933 1.0029167039
-0.2908011701 1.2037644161 0.0000000000 0.0000000000 0.0000000000 282.4227381814 0.1670854933 1.0029167039
-0.2987100508 1.1846706890 0.0000000000 0.0000000000 0.0000000000 340.7512310520 0.1670854933 1.0029167039
-0.3058231276 1.1652664383 0.0000000000 0.0000000000 0.0000000000 393.8158206147 0.1670854933 1.0029167039
-0.3121282480 1.1455848158 0.0000000000 0.0000000000 0.0000000000 441.5380226695 0.1670854933 1.0029167039
-0.3176146397 1.1256594473 0.0000000000 0.0000000000 0.0000000000 483.8874171522 0.1670854933 1.0029167039
-0.3222729294 1.1055243748 0.0000000000 0.0000000000 0.0000000000 520.8822034501 0.1670854933 1.0029167039
-0.3260951585 1.0852139988 0.0000000000 0.0000000000 0.0000000000 552.5893480280 0.1670854933 1.0029167039
-0.3290747966 1.0647630193 0.0000000000 0.0000000000 0.0000000000 579.1242041489 0.1670854933 1.0029167039
-0.3312067533 1.0442063764 0.0000000000 0.0000000000 0.0000000000 600.6494508630 0.1670854933 1.0029167039
-0.3324873859 1.0235791908 0.0000000000 0.0000000000 0.0000000000 617.3731568849 0.1670854933 1.0029167039
-0.3329145067 1.0029167037 0.0000000000 0.0000000000 0.0000000000 629.5457384483 0.1670854933 1.0029167039
-0.3324873859 0.9822542166 0.0000000000 0.0000000000 0.0000000000 637.4555707162 0.1670854933 1.0029167039
-0.3312067532 0.9616270309 0.0000000000 0.0000000000 0.0000000000 641.4230565892 0.1670854933 1.0029167039
-0.3290747966 0.9410703880 0.0000000000 0.0000000000 0.0000000000 641.7930781564 0.1670854933 1.0029167039
-0.3260951584 0.9206194085 0.0000000000 0.0000000000 0.0000000000 638.9259631896 0.1670854933 1.0029167039
-0.3222729294 0.9003090326 0.0000000000 0.0000000000 0.0000000000 633.1873733776 0.1670854933 1.0029167039
-0.3176146396 0.8801739601 0.0000000000 0.0000000000 0.0000000000 624.9378102949 0.1670854933 1.0029167039
-0.3121282479 0.8602485916 0.0000000000 0.0000000000 0.0000000000 614.5226593846 0.1670854933 1.0029167039
-0.3058231275 0.8405669691 0.0000000000 0.0000000000 0.0000000000 602.2637656345 0.1670854933 1.0029167039
-0.2987100507 0.8211627184 0.0000000000 0.0000000000 0.0000000000 588.4533987666 0.1670854933 1.0029167039
-0.2908011700 0.8020689914 0.0000000000 0.0000000000 0.0000000000 573.3511211470 0.1670854933 1.0029167039
-0.2821099976 0.7833184093 0.0000000000 0.0000000000 0.0000000000 557.1835908656 0.1670854933 1.0029167039
-0.2726513822 0.7649430072 0.0000000000 0.0000000000 0.0000000000 540.1468410003 0.1670854933 1.0029167039
-0.2624414838 0.7469741791 0.0000000000 0.0000000000 0.0000000000 522.4102108525 0.1670854933 1.0029167039
-0.2514977457 0.7294426246 0.0000000000 0.0000000000 0.0000000000 504.1209572759 0.1670854933 1.0029167039
-0.2398388652 0.7123782960 0.0000000000 0.0000000000 0.0000000000 485.4086666020 0.1670854933 1.0029167039
-0.2274847613 0.6958103473 0.0000000000 0.0000000000 0.0000000000 466.3888539171 0.1670854933 1.0029167039
-0.2144565407 0.6797670848 0.0000000000 0.0000000000 0.0000000000 447.1654880976 0.1670854933 1.0029167039
-0.2007764619 0.6642759179 0.0000000000 0.0000000000 0.0000000000 427.8324835732 0.1670854933 1.0029167039
-0.1715552924 0.6350547484 0.0000000000 0.0000000000 0.0000000000 389.1668882364 0.1670854933 1.0029167039
-0.1560641255 0.6213746696 0.0000000000 0.0000000000 0.0000000000 369.9765624688 0.1670854933 1.0029167039
-0.1400208629 0.6083464490 0.0000000000 0.0000000000 0.0000000000 350.9615737383 0.1670854933 1.0029167039
-0.1234529142 0.5959923451 0.0000000000 0.0000000000 0.0000000000 332.1719148510 0.1670854933 1.0029167039
-0.1063885856 0.5843334646 0.0000000000 0.0000000000 0.0000000000 313.6500746172 0.1670854933 1.0029167039
-0.0888570310 0.5733897266 0.0000000000 0.0000000000 0.0000000000 295.4317820734 0.1670854933 1.0029167039
-0.0708882030 0.5631798282 0.0000000000 0.0000000000 0.0000000000 277.5467698487 0.1670854933 1.0029167039
-0.0525128009 0.5537212128 0.0000000000 0.0000000000 0.0000000000 260.0195011876 0.1670854933 1.0029167039
-0.0337622188 0.5450300404 0.0000000000 0.0000000000 0.0000000000 242.8698176105 0.1670854933 1.0029167039
-0.0146684918 0.5371211598 0.0000000000 0.0000000000 0.0000000000 226.1135056741 0.1670854933 1.0029167039
0.0047357589 0.5300080829 0.0000000000 0.0000000000 0.0000000000 209.7627937104 0.1670854933 1.0029167039
0.0244173814 0.5237029626 0.0000000000 0.0000000000 0.0000000000 193.8267988134 0.1670854933 1.0029167039
0.0443427500 0.5182165708 0.0000000000 0.0000000000 0.0000000000 178.3119375169 0.1670854933 1.0029167039
0.0644778225 0.5135582812 0.0000000000 0.0000000000 0.0000000000 163.2223081504 0.1670854933 1.0029167039
0.0847881984 0.5097360521 0.0000000000 0.0000000000 0.0000000000 148.5600450991 0.1670854933 1.0029167039
0.1052391779 0.5067564140 0.0000000000 0.0000000000 0.0000000000 134.3256456700 0.1670854933 1.0029167039
0.1257958208 0.5046244574 0.0000000000 0.0000000000 0.0000000000 120.5182657095 0.1670854933 1.0029167039
0.1464230064 0.5033438247 0.0000000000 0.0000000000 0.0000000000 107.1359902052 0.1670854933 1.0029167039
0.1670854936 0.5029167039 0.0000000000 0.0000000000 0.0000000000 94.1760707434 0.1670854933 1.0029167039
0.1877479807 0.5033438247 0.0000000000 0.0000000000 0.0000000000 81.6351527489 0.1670854933 1.0029167039
0.2083751663 0.5046244574 0.0000000000 0.0000000000 0.0000000000 69.5094595624 0.1670854933 1.0029167039
0.2289318092 0.5067564141 0.0000000000 0.0000000000 0.0000000000 57.7950074757 0.1670854933 1.0029167039
0.2493827887 0.5097360522 0.0000000000 0.0000000000 0.0000000000 46.4877207471 0.1670854933 1.0029167039
0.2696931647 0.5135582813 0.0000000000 0.0000000000 0.0000000000 35.5837085822 0.1670854933 1.0029167039
0.2898282372 0.5182165710 0.0000000000 0.0000000000 0.0000000000 25.0792027588 0.1670854933 1.0029167039
0.3097536057 0.5237029628 0.0000000000 0.0000000000 0.0000000000 14.9711401762 0.1670854933 1.0029167039
0.3294352282 0.5300080831 0.0000000000 0.0000000000 0.0000000000 5.2564530313 0.1670854933 1.0029167039
0.3488394789 0.5371211600 0.0000000000 0.0000000000 0.0000000000 -4.0660922493 0.1670854933 1.0029167039
0.3679332059 0.5450300407 0.0000000000 0.0000000000 0.0000000000 -12.9991768372 0.1670854933 1.0029167039
0.3866837880 0.5537212131 0.0000000000 0.0000000000 0.0000000000 -21.5398949082 0.1670854933 1.0029167039
0.4050591901 0.5631798284 0.0000000000 0.0000000000 0.0000000000 -29.6936288639 0.1670854933 1.0029167039
0.4230280181 0.5733897269 0.0000000000 0.0000000000 0.0000000000 -37.4453564832 0.1670854933 1.0029167039
0.4405595726 0.5843334649 0.0000000000 0.0000000000 0.0000000000 -44.8184396429 0.1670854933 1.0029167039
0.4576239013 0.5959923455 0.0000000000 0.0000000000 0.0000000000 -51.7551005189 0.1670854933 1.0029167039
0.4741918499 0.6083464494 0.0000000000 0.0000000000 0.0000000000 -58.3652469063 0.1670854933 1.0029167039
0.4902351125 0.6213746700 0.0000000000 0.0000000000 0.0000000000 -64.4259853975 0.1670854933 1.0029167039
0.5057262793 0.6350547488 0.0000000000 0.0000000000 0.0000000000 -70.4066272618 0.1670854933 1.0029167039
0.7110193956 0.4868600462 0.0000000000 0.1303559782 0.2322789448 -84.9893929817 0.1612304914 0.9969895991
0.7300573045 0.5074005741 0.0000000000 0.1317789890 0.2314889800 -88.1324883242 0.1615785118 0.9966161321
0.7483012685 0.5286381004 0.0000000000 0.1351484388 0.2242399364 -91.1375010917 0.1619276564 0.9962554514
0.7657244054 0.5505440728 0.0000000000 0.1405304345 0.2113451808 -94.0864254543 0.1622760703 0.9959092116
0.7823010033 0.5730892171 0.0000000000 0.1478175468 0.1940029442 -97.0547367316 0.1626219223 0.9955792603
0.7980066877 0.5962434346 0.0000000000 0.1567492828 0.1735554695 -100.1137228991 0.1629635380 0.9952674915
0.8128185273 0.6199757725 0.0000000000 0.1669574623 0.1512729164 -103.3331011018 0.1632994742 0.9949757721
0.8267151024 0.6442544234 0.0000000000 0.1780293163 0.1281943175 -106.7830412186 0.1636285571 0.9947058942
0.8396765411 0.6690467393 0.0000000000 0.1895764289 0.1050404446 -110.5349828104 0.1639498900 0.9944595432
0.8516845286 0.6943192555 0.0000000000 0.2012952370 0.0821989066 -114.6616281994 0.1642628365 0.9942382733
0.8627222972 0.7200377188 0.0000000000 0.2130062122 0.0597694578 -119.2369444055 0.1645669855 0.9940434866
0.8727746049 0.7461671187 0.0000000000 0.2246650083 0.0376479176 -124.3367471491 0.1648621070 0.9938764148
0.8818277105 0.7726717204 0.0000000000 0.2363475162 0.0156227909 -130.0397666208 0.1651481061 0.9937381009
0.8898693513 0.7995150988 0.0000000000 0.2482179690 -0.0065386391 -136.4285457274 0.1654249815 0.9936293822
0.8968887251 0.8266601749 0.0000000000 0.2604918794 -0.0290294145 -143.5894550458 0.1656927909 0.9935508750
0.9028764779 0.8540692549 0.0000000000 0.2734033530 -0.0519712048 -151.6114759533 0.1659516229 0.9935029599
0.9078246969 0.8817040710 0.0000000000 0.2871814266 -0.0754072580 -160.5838886609 0.1662015772 0.9934857703
0.9117269071 0.9095258258 0.0000000000 0.3020354852 -0.0993113305 -170.5933160959 0.1664427497 0.9934991825
0.9145780723 0.9374952392 0.0000000000 0.3181473272 -0.1236040063 -181.7206300200 0.1666752244 0.9935428090
0.9163745983 0.9655725992 0.0000000000 0.3356671620 -0.1481702390 -194.0381057524 0.1668990697 0.9936159946
0.9171143389 0.9937178156 0.0000000000 0.3547117551 -0.1728747635 -207.6070435781 0.1671143389 0.9937178153
0.9167966047 1.0218904770 0.0000000000 0.3753640024 -0.1975740983 -222.4759372239 0.1673210761 0.9938470810
0.9154221723 1.0500499117 0.0000000000 0.3976738415 -0.2221249775 -238.6791796844 0.1675193244 0.9940023412
0.9129932954 1.0781552530 0.0000000000 0.4216605368 -0.2463894952 -256.2362406310 0.1677091380 0.9941818957
0.9095137149 1.1061655079 0.0000000000 0.4473162056 -0.2702373965 -275.1512140484 0.1678905953 0.9943838080
0.9049886677 1.1340396315 0.0000000000 0.4746102172 -0.2935460169 -295.4126165026 0.1680638129 0.9946059259
0.8994248927 1.1617366064 0.0000000000 0.5034939323 -0.3161984609 -316.9933185057 0.1682289586 0.9948459057
0.8928306327 1.1892155294 0.0000000000 0.5339052206 -0.3380806930 -339.8505152935 0.1683862630 0.9951012454
0.8852156327 1.2164357041 0.0000000000 0.5657722746 -0.3590782531 -363.9256849265 0.1685360284 0.9953693231
0.8765911331 1.2433567418 0.0000000000 0.5990164089 -0.3790732715 -389.1445317721 0.1686786355 0.9956474451
0.8669698601 1.2699386692 0.0000000000 0.6335537265 -0.3979423424 -415.4169606023 0.1688145487 0.9959329007
0.8563660122 1.2961420419 0.0000000000 0.6692957258 -0.4155556267 -442.6371602544 0.1689443204 0.9962230235
0.8447952457 1.3219280630 0.0000000000 0.7061490587 -0.4317773358 -470.6838891765 0.1690685948 0.9965152585
0.8322746586 1.3472587025 0.0000000000 0.7440147360 -0.4464675240 -499.4210464907 0.1691881135 0.9968072312
0.8188227733 1.3720968174 0.0000000000 0.7827870923 -0.4594849359 -528.6985850253 0.1693037206 0.9970968173
0.8044595158 1.3964062680 0.0000000000 0.8223527943 -0.4706905308 -558.3537839637 0.1694163665 0.9973822105
0.7892061873 1.4201520303 0.0000000000 0.8625901076 -0.4799512539 -588.2128582323 0.1695271067 0.9976619867
0.7730854259 1.4433003050 0.0000000000 0.9033685539 -0.4871436373 -618.0928272255 0.1696370912 0.9979351657
0.7561211636 1.4658186247 0.0000000000 0.9445489971 -0.4921568830 -647.8035598053 0.1697475519 0.9982012732
0.7383386075 1.4876759706 0.0000000000 0.9859840701 -0.4948951982 -677.1499007509 0.1698598152 0.9984604121
0.7197643434 1.5088428983 0.0000000000 1.0275174600 -0.4952776017 -705.9260944024 0.1699754396 0.9987133450
0.6781298892 1.5509707452 0.0000000000 1.1145940932 -0.4883292155 -764.0267358726 0.1701687105 0.9991778122
0.6549689264 1.5717009872 0.0000000000 1.1597352056 -0.4803038756 -792.6374589764 0.1702444980 0.9993879360
0.6309818122 1.5914460555 0.0000000000 1.2041662290 -0.4692313770 -819.6059588564 0.1703222778 0.9995906734
0.6062082213 1.6101721423 0.0000000000 1.2476637317 -0.4551242810 -844.6867454944 0.1704006098 0.9997856043
0.5806893159 1.6278475291 0.0000000000 1.2900001851 -0.4380187200 -867.6519598699 0.1704781974 0.9999726704
0.5544675776 1.6444424342 0.0000000000 1.3309519118 -0.4179701765 -888.2880002807 0.1705537909 1.0001519684
0.5275866704 1.6599290063 0.0000000000 1.3703001562 -0.3950534697 -906.3964581930 0.1706261257 1.0003236929
0.5000913430 1.6742813441 0.0000000000 1.4078325041 -0.3693620390 -921.7953516175 0.1706939014 1.0004881077
0.4720273569 1.6874755137 0.0000000000 1.4433441279 -0.3410073691 -934.3202866924 0.1707557885 1.0006455187
0.4434414314 1.6994895621 0.0000000000 1.4766389626 -0.3101184482 -943.8254915810 0.1708104536 1.0007962460
0.4143811979 1.7103035313 0.0000000000 1.5075308502 -0.2768411899 -950.1847311968 0.1708565961 1.0009405999
0.3848951564 1.7198994746 0.0000000000 1.5358446789 -0.2413377654 -953.2921195887 0.1708929883 1.0010788627
0.3550326289 1.7282614754 0.0000000000 1.5614175333 -0.2037858171 -953.0628454352 0.1709185137 1.0012112759
0.3248437066 1.7353756657 0.0000000000 1.5840998617 -0.1643775440 -949.4338189548 0.1709322001 1.0013380317
0.2943791875 1.7412302441 0.0000000000 1.6037566566 -0.1233186558 -942.3642371824 0.1709332449 1.0014592665
0.2636905052 1.7458154922 0.0000000000 1.6202686337 -0.0808271976 -931.8360526074 0.1709210319 1.0015750574
0.2328296497 1.7491237915 0.0000000000 1.6335333857 -0.0371322443 -917.8543209965 0.1708951407 1.0016854217
0.2018490794 1.7511496392 0.0000000000 1.6434664779 0.0075275369 -900.4474000435 0.1708553489 1.0017903204
0.1708016292 1.7518896644 0.0000000000 1.6500024506 0.0529054547 -879.6669717503 0.1708016294 1.0018896644
0.1397404137 1.7513426444 0.0000000000 1.6530956886 0.0987484922 -855.5878670890 0.1707341445 1.0019833256
0.1087187284 1.7495095187 0.0000000000 1.6527211331 0.1447991231 -828.3076795294 0.1706532376 1.0020711490
0.0777899500 1.7463934013 0.0000000000 1.6488748131 0.1907972299 -797.9461620607 0.1705594236 1.0021529665
0.0470074356 1.7419995877 0.0000000000 1.6415741900 0.2364820970 -764.6444082235 0.1704533785 1.0022286102
0.0164244220 1.7363355583 0.0000000000 1.6308583101 0.2815944512 -728.5638202231 0.1703359288 1.0022979243
-0.0139060753 1.7294109754 0.0000000000 1.6167877517 0.3258785223 -689.8848671439 0.1702080402 1.0023607760
-0.0439313637 1.7212376770 0.0000000000 1.5994443487 0.3690841034 -648.8056362779 0.1700708047 1.0024170652
-0.0735991744 1.7118296648 0.0000000000 1.5789306620 0.4109685943 -605.5401838500 0.1699254277 1.0024667336
-0.1028577652 1.7012030896 0.0000000000 1.5553691845 0.4512990078 -560.3166994205 0.1697732129 1.0025097736
-0.1316560225 1.6893762334 0.0000000000 1.5289012855 0.4898539129 -513.3755091047 0.1696155461 1.0025462385
-0.1599435644 1.6763694873 0.0000000000 1.4996859261 0.5264252765 -464.9669519825 0.1694538774 1.0025762510
-0.1876708438 1.6622053262 0.0000000000 1.4678981928 0.5608201665 -415.3491675125 0.1692897011 1.0026000129
-0.2147892527 1.6469082780 0.0000000000 1.4337276903 0.5928622798 -364.7858289286 0.1691245343 1.0026178124
-0.2412512255 1.6305048870 0.0000000000 1.3973768276 0.6223932718 -313.5438524215 0.1689598933 1.0026300284
-0.2670103439 1.6130236701 0.0000000000 1.3590590289 0.6492738619 -261.8911085171 0.1687972679 1.0026371323
-0.2920214401 1.5944950665 0.0000000000 1.3189969111 0.6733846889 -210.0941588543 0.1686380946 1.0026396846
-0.3162407000 1.5749513790 0.0000000000 1.2774204525 0.6946268887 -158.4160357170 0.1684837286 1.0026383280
-0.3396257634 1.5544267090 0.0000000000 1.2345651184 0.7129223978 -107.1140720142 0.1683354154 1.0026337762
-0.3837318343 1.5105793242 0.0000000000 1.1459746667 0.7404654384 -6.6268196698 0.1680610988 1.0026181457
-0.4043762906 1.4873331411 0.0000000000 1.1007189045 0.7496608295 42.0904802550 0.1679367608 1.0026087129
-0.4240336200 1.4632588493 0.0000000000 1.0551383993 0.7558048681 89.4989444751 0.1678217622 1.0025993149
-0.4426701480 1.4383983616 0.0000000000 1.0094637501 0.7589220444 135.3977853442 0.1677163900 1.0025907503
-0.4602541576 1.4127948981 0.0000000000 0.9639186472 0.7590559661 179.6016528252 0.1676207013 1.0025837797
-0.4767559401 1.3864928945 0.0000000000 0.9187184237 0.7562684072 221.9415537422 0.1675345258 1.0025791079
-0.4921478331 1.3595379129 0.0000000000 0.8740687129 0.7506382176 262.2656062878 0.1674574805 1.0025773684
-0.5064042446 1.3319765535 0.0000000000 0.8301641684 0.7422601512 300.4396308408 0.1673889920 1.0025791121
-0.5195016674 1.3038563673 0.0000000000 0.7871872572 0.7312436302 336.3475882988 0.1673283277 1.0025847991
-0.5314186851 1.2752257725 0.0000000000 0.7453071421 0.7177114441 369.8918666974 0.1672746310 1.0025947948
-0.5421359726 1.2461339703 0.0000000000 0.7046786922 0.7017983457 400.9934309233 0.1672269587 1.0026093686
-0.5516362950 1.2166308639 0.0000000000 0.6654416087 0.6836495250 429.5918288843 0.1671843169 1.0026286960
-0.5599045057 1.1867669773 0.0000000000 0.6277196559 0.6634189632 455.6450384185 0.1671456938 1.0026528622
-0.5669275470 1.1565933738 0.0000000000 0.5916200030 0.6412676859 479.1291374739 0.1671100870 1.0026818675
-0.5726944533 1.1261615752 0.0000000000 0.5572326985 0.6173619467 500.0377831871 0.1670765243 1.0027156327
-0.5771963569 1.0955234789 0.0000000000 0.5246303214 0.5918713799 518.3814981521 0.1670440779 1.0027540057
-0.5804264973 1.0647312756 0.0000000000 0.4938678553 0.5649671830 534.1867744607 0.1670118725 1.0027967668
-0.5823802309 1.0338373654 0.0000000000 0.4649828303 0.5368204124 547.4950207330 0.1669790879 1.0028436350
-0.5830550422 1.0028942736 0.0000000000 0.4379957559 0.5076005043 558.3613891930 0.1669449578 1.0028942739
-0.5824505529 0.9719545672 0.0000000000 0.4129108399 0.4774741310 566.8535254316 0.1669087659 1.0029482982
-0.5805685297 0.9410707702 0.0000000000 0.3897169351 0.4466044455 573.0502750321 0.1668698400 1.0030052796
-0.5774128892 0.9102952807 0.0000000000 0.3683886048 0.4151505717 577.0403492931 0.1668275456 1.0030647545
-0.5729896991 0.8796802871 0.0000000000 0.3488871504 0.3832668141 578.9208898470 0.1667812784 1.0031262302
-0.5673071776 0.8492776862 0.0000000000 0.3311614574 0.3511004304 578.7957823236 0.1667304564 1.0031891932
-0.5603756888 0.8191390005 0.0000000000 0.3151486500 0.3187859994 576.7734768755 0.1666745106 1.0032531162
-0.5522077369 0.7893152977 0.0000000000 0.3007748689 0.2864336871 572.9640329037 0.1666128749 1.0033174662
-0.5428179569 0.7598571098 0.0000000000 0.2879570233 0.2541086445 567.4751988475 0.1665449743 1.0033817120
-0.5322231031 0.7308143533 0.0000000000 0.2766069908 0.2218002535 560.4076484791 0.1664702128 1.0034453315