 TITLE = "Tecplot data"
 VARIABLES = "X", "Y", "Z" "U", "V", "p", "dispX", "dispY"
 ZONE SOLUTIONTIME=163.900000, NODES=26114 , ELEMENTS=25916, DATAPACKING=POINT, ZONETYPE=FEQUADRILATERAL
0.4080129224 0.4080129225 0.0000000000 -0.0010879640 -0.0010879640 -630.7948351454 0.0544595319 0.0544595319
0.4080129227 -0.2990938585 0.0000000000 -0.0010879640 -0.0010879640 -277.7034073481 0.0544595319 0.0544595319
-0.2990938588 0.4080129224 0.0000000000 -0.0010879640 -0.0010879640 -280.4053235686 0.0544595319 0.0544595319
-0.2990938585 -0.2990938589 0.0000000000 -0.0010879640 -0.0010879640 -84.5989683427 0.0544595319 0.0544595319
0.5802474681 0.5803029481 0.0000000000 0.4809904073 -0.0486185928 -615.5814408628 0.0499173823 0.0499728621
0.5754810030 -0.4850887656 0.0000000000 0.1365935429 -0.0017365466 -255.3835459861 0.0451509167 0.0452413199
-0.4854736778 0.5753479946 0.0000000000 0.9047723331 0.5132429722 -17.6648900830 0.0448564082 0.0450179089
-0.4808033245 -0.4803231452 0.0000000000 0.8539245222 -0.4711470302 100.2704743993 0.0495267611 0.0500069410
1.1002633214 1.1003370245 0.0000000000 1.1321147991 -0.2142727092 -248.2123895416 0.0396031497 0.0396768527
1.0925622095 -1.0284238739 0.0000000000 1.2973690941 -0.0257364148 -156.4630691533 0.0319020370 0.0322362972
-1.0295384781 1.0922443170 0.0000000000 0.9667566351 0.1605754321 45.5740417813 0.0311216941 0.0315841456
-1.0222460475 -1.0210294124 0.0000000000 0.9485547988 -0.1588065336 108.7696515405 0.0384141238 0.0396307599
4.2204397136 3.3179423750 0.0000000000 1.0333377829 -0.0318731290 17.1745075726 0.0204397136 0.0179423750
4.2122761260 -3.2891090455 0.0000000000 1.0069153489 -0.0081157753 29.3404608155 0.0122761260 0.0108909545
20.0000000000 4.7000000000 0.0000000000 1.0456118321 0.0364754972 0.2380633167 0.0000000000 0.0000000000
20.0000000000 -4.7000000000 0.0000000000 1.0380395351 -0.0308954461 0.0348161443 0.0000000000 0.0000000000
-10.0000000000 15.0000000000 0.0000000000 1.0000000000 0.0000000000 24.0689420267 0.0000000000 0.0000000000
20.0000000000 15.0000000000 0.0000000000 1.0320007202 0.0000000000 0.0236384391 0.0000000000 0.0000000000
20.0000000000 -15.0000000000 0.0000000000 1.0315434458 0.0000000000 0.0239386311 0.0000000000 0.0000000000
-10.0000000000 -15.0000000000 0.0000000000 1.0000000000 0.0000000000 38.7550368010 0.0000000000 0.0000000000
0.4209854680 -0.2856268368 0.0000000000 -0.0010879640 -0.0010879640 -277.4395975836 0.0544595319 0.0544595319
0.4334453937 -0.2716841735 0.0000000000 -0.0010879640 -0.0010879640 -277.9599474206 0.0544595319 0.0544595319
0.4453752733 -0.2572853688 0.0000000000 -0.0010879640 -0.0010879640 -279.9796296382 0.0544595319 0.0544595319
0.4567584219 -0.2424505607 0.0000000000 -0.0010879640 -0.0010879640 -283.1974856392 0.0544595319 0.0544595319
0.4675789192 -0.2272004969 0.0000000000 -0.0010879640 -0.0010879640 -287.7091194173 0.0544595319 0.0544595319
0.4778216316 -0.2115565061 0.0000000000 -0.0010879640 -0.0010879640 -293.3327004573 0.0544595319 0.0544595319
0.4874722339 -0.1955404679 0.0000000000 -0.0010879640 -0.0010879640 -299.9882825774 0.0544595319 0.0544595319
0.4965172288 -0.1791747820 0.0000000000 -0.0010879640 -0.0010879640 -307.5638349654 0.0544595319 0.0544595319
0.5049439659 -0.1624823374 0.0000000000 -0.0010879640 -0.0010879640 -316.0107726123 0.0544595319 0.0544595319
0.5127406599 -0.1454864800 0.0000000000 -0.0010879640 -0.0010879640 -325.3128132120 0.0544595319 0.0544595319
0.5198964063 -0.1282109801 0.0000000000 -0.0010879640 -0.0010879640 -335.4986832566 0.0544595319 0.0544595319
0.5264011971 -0.1106799989 0.0000000000 -0.0010879640 -0.0010879640 -346.6228885950 0.0544595319 0.0544595319
0.5322459348 -0.0929180551 0.0000000000 -0.0010879640 -0.0010879640 -358.7549620875 0.0544595319 0.0544595319
0.5374224451 -0.0749499904 0.0000000000 -0.0010879640 -0.0010879640 -371.9609336673 0.0544595319 0.0544595319
0.5419234880 -0.0568009349 0.0000000000 -0.0010879640 -0.0010879640 -386.2865761490 0.0544595319 0.0544595319
0.5457427685 -0.0384962715 0.0000000000 -0.0010879640 -0.0010879640 -401.7392053969 0.0544595319 0.0544595319
0.5488749450 -0.0200616010 0.0000000000 -0.0010879640 -0.0010879640 -418.2715002581 0.0544595319 0.0544595319
0.5513156368 -0.0015227060 0.0000000000 -0.0010879640 -0.0010879640 -435.7683676601 0.0544595319 0.0544595319
0.5530614305 0.0170944853 0.0000000000 -0.0010879640 -0.0010879640 -454.0396611367 0.0544595319 0.0544595319
0.5541098843 0.0357639349 0.0000000000 -0.0010879640 -0.0010879640 -472.8205519363 0.0544595319 0.0544595319
0.5544595319 0.0544595321 0.0000000000 -0.0010879640 -0.0010879640 -491.7808578017 0.0544595319 0.0544595319
0.5541098843 0.0731551292 0.0000000000 -0.0010879640 -0.0010879640 -510.5431528819 0.0544595319 0.0544595319
0.5530614304 0.0918245788 0.0000000000 -0.0010879640 -0.0010879640 -528.7080815156 0.0544595319 0.0544595319
0.5513156368 0.1104417701 0.0000000000 -0.0010879640 -0.0010879640 -545.8840201806 0.0544595319 0.0544595319
0.5488749450 0.1289806651 0.0000000000 -0.0010879640 -0.0010879640 -561.7173181686 0.0544595319 0.0544595319
0.5457427685 0.1474153356 0.0000000000 -0.0010879640 -0.0010879640 -575.9193891641 0.0544595319 0.0544595319
0.5419234879 0.1657199990 0.0000000000 -0.0010879640 -0.0010879640 -588.2870193791 0.0544595319 0.0544595319
0.5374224450 0.1838690546 0.0000000000 -0.0010879640 -0.0010879640 -598.7141205899 0.0544595319 0.0544595319
0.5322459347 0.2018371192 0.0000000000 -0.0010879640 -0.0010879640 -607.1930911202 0.0544595319 0.0544595319
0.5264011970 0.2195990630 0.0000000000 -0.0010879640 -0.0010879640 -613.8081304444 0.0544595319 0.0544595319
0.5198964061 0.2371300442 0.0000000000 -0.0010879640 -0.0010879640 -618.7190805734 0.0544595319 0.0544595319
0.5127406598 0.2544055441 0.0000000000 -0.0010879640 -0.0010879640 -622.1443897513 0.0544595319 0.0544595319
0.5049439658 0.2714014015 0.0000000000 -0.0010879640 -0.0010879640 -624.3354240655 0.0544595319 0.0544595319
0.4965172286 0.2880938461 0.0000000000 -0.0010879640 -0.0010879640 -625.5646895081 0.0544595319 0.0544595319
0.4874722337 0.3044595320 0.0000000000 -0.0010879640 -0.0010879640 -626.0952697948 0.0544595319 0.0544595319
0.4778216314 0.3204755702 0.0000000000 -0.0010879640 -0.0010879640 -626.1970765608 0.0544595319 0.0544595319
0.4675789190 0.3361195610 0.0000000000 -0.0010879640 -0.0010879640 -626.0966957108 0.0544595319 0.0544595319
0.4567584217 0.3513696247 0.0000000000 -0.0010879640 -0.0010879640 -626.0637937537 0.0544595319 0.0544595319
0.4453752731 0.3662044329 0.0000000000 -0.0010879640 -0.0010879640 -626.2647478778 0.0544595319 0.0544595319
0.4334453934 0.3806032376 0.0000000000 -0.0010879640 -0.0010879640 -627.0308506670 0.0544595319 0.0544595319
0.4209854677 0.3945459008 0.0000000000 -0.0010879640 -0.0010879640 -628.3632607952 0.0544595319 0.0544595319
0.3931003176 0.4223214872 0.0000000000 -0.0010879640 -0.0010879640 -634.2666289874 0.0544595319 0.0544595319
0.3776091508 0.4360015660 0.0000000000 -0.0010879640 -0.0010879640 -639.2896722627 0.0544595319 0.0544595319
0.3615658882 0.4490297866 0.0000000000 -0.0010879640 -0.0010879640 -645.3338115142 0.0544595319 0.0544595319
0.3449979395 0.4613838905 0.0000000000 -0.0010879640 -0.0010879640 -652.5935854360 0.0544595319 0.0544595319
0.3279336109 0.4730427710 0.0000000000 -0.0010879640 -0.0010879640 -660.8323038342 0.0544595319 0.0544595319
0.3104020564 0.4839865091 0.0000000000 -0.0010879640 -0.0010879640 -670.0933140946 0.0544595319 0.0544595319
0.2924332283 0.4941964075 0.0000000000 -0.0010879640 -0.0010879640 -680.3170170463 0.0544595319 0.0544595319
0.2740578262 0.5036550228 0.0000000000 -0.0010879640 -0.0010879640 -691.5415348132 0.0544595319 0.0544595319
0.2553072441 0.5123461952 0.0000000000 -0.0010879640 -0.0010879640 -703.7505863821 0.0544595319 0.0544595319
0.2362135171 0.5202550759 0.0000000000 -0.0010879640 -0.0010879640 -716.9177975475 0.0544595319 0.0544595319
0.2168092664 0.5273681527 0.0000000000 -0.0010879640 -0.0010879640 -730.9493576645 0.0544595319 0.0544595319
0.1971276439 0.5336732731 0.0000000000 -0.0010879640 -0.0010879640 -745.6957026006 0.0544595319 0.0544595319
0.1772022754 0.5391596649 0.0000000000 -0.0010879640 -0.0010879640 -760.9344238848 0.0544595319 0.0544595319
0.1570672029 0.5438179545 0.0000000000 -0.0010879640 -0.0010879640 -776.3761419211 0.0544595319 0.0544595319
0.1367568269 0.5476401836 0.0000000000 -0.0010879640 -0.0010879640 -791.6635083538 0.0544595319 0.0544595319
0.1163058474 0.5506198217 0.0000000000 -0.0010879640 -0.0010879640 -806.3799063903 0.0544595319 0.0544595319
0.0957492045 0.5527517784 0.0000000000 -0.0010879640 -0.0010879640 -820.0590731735 0.0544595319 0.0544595319
0.0751220189 0.5540324111 0.0000000000 -0.0010879640 -0.0010879640 -832.2000438293 0.0544595319 0.0544595319
0.0544595318 0.5544595319 0.0000000000 -0.0010879640 -0.0010879640 -842.2839065953 0.0544595319 0.0544595319
0.0337970446 0.5540324111 0.0000000000 -0.0010879640 -0.0010879640 -849.7925107528 0.0544595319 0.0544595319
0.0131698590 0.5527517784 0.0000000000 -0.0010879640 -0.0010879640 -854.2270594256 0.0544595319 0.0544595319
-0.0073867839 0.5506198217 0.0000000000 -0.0010879640 -0.0010879640 -855.1257015038 0.0544595319 0.0544595319
-0.0278377634 0.5476401835 0.0000000000 -0.0010879640 -0.0010879640 -852.0788903363 0.0544595319 0.0544595319
-0.0481481393 0.5438179545 0.0000000000 -0.0010879640 -0.0010879640 -844.7418819634 0.0544595319 0.0544595319
-0.0682832118 0.5391596648 0.0000000000 -0.0010879640 -0.0010879640 -832.8439404352 0.0544595319 0.0544595319
-0.0882085804 0.5336732731 0.0000000000 -0.0010879640 -0.0010879640 -816.1942095927 0.0544595319 0.0544595319
-0.1078902029 0.5273681527 0.0000000000 -0.0010879640 -0.0010879640 -794.6844337686 0.0544595319 0.0544595319
-0.1272944535 0.5202550758 0.0000000000 -0.0010879640 -0.0010879640 -768.2889084750 0.0544595319 0.0544595319
-0.1463881806 0.5123461951 0.0000000000 -0.0010879640 -0.0010879640 -737.0621361100 0.0544595319 0.0544595319
-0.1651387627 0.5036550228 0.0000000000 -0.0010879640 -0.0010879640 -701.1346980549 0.0544595319 0.0544595319
-0.1835141648 0.4941964074 0.0000000000 -0.0010879640 -0.0010879640 -660.7078310682 0.0544595319 0.0544595319
-0.2014829928 0.4839865090 0.0000000000 -0.0010879640 -0.0010879640 -616.0471375425 0.0544595319 0.0544595319
-0.2190145473 0.4730427709 0.0000000000 -0.0010879640 -0.0010879640 -567.4757780464 0.0544595319 0.0544595319
-0.2360788760 0.4613838904 0.0000000000 -0.0010879640 -0.0010879640 -515.3674063703 0.0544595319 0.0544595319
-0.2526468246 0.4490297865 0.0000000000 -0.0010879640 -0.0010879640 -460.1390239038 0.0544595319 0.0544595319
-0.2686900872 0.4360015659 0.0000000000 -0.0010879640 -0.0010879640 -402.2438631968 0.0544595319 0.0544595319
-0.2841812541 0.4223214871 0.0000000000 -0.0010879640 -0.0010879640 -342.1643682100 0.0544595319 0.0544595319
-0.3134024236 0.3931003176 0.0000000000 -0.0010879640 -0.0010879640 -217.4871910165 0.0544595319 0.0544595319
-0.3270825023 0.3776091507 0.0000000000 -0.0010879640 -0.0010879640 -153.9397243175 0.0544595319 0.0544595319
-0.3401107229 0.3615658881 0.0000000000 -0.0010879640 -0.0010879640 -90.2959380606 0.0544595319 0.0544595319
-0.3524648269 0.3449979394 0.0000000000 -0.0010879640 -0.0010879640 -27.0864913515 0.0544595319 0.0544595319
-0.3641237074 0.3279336108 0.0000000000 -0.0010879640 -0.0010879640 35.1654842786 0.0544595319 0.0544595319
-0.3750674454 0.3104020563 0.0000000000 -0.0010879640 -0.0010879640 95.9491208751 0.0544595319 0.0544595319
-0.3852773438 0.2924332282 0.0000000000 -0.0010879640 -0.0010879640 154.7701517701 0.0544595319 0.0544595319
-0.3947359592 0.2740578261 0.0000000000 -0.0010879640 -0.0010879640 211.1549021695 0.0544595319 0.0544595319
-0.4034271315 0.2553072440 0.0000000000 -0.0010879640 -0.0010879640 264.6539805453 0.0544595319 0.0544595319
-0.4113360122 0.2362135170 0.0000000000 -0.0010879640 -0.0010879640 314.8457046166 0.0544595319 0.0544595319
-0.4184490890 0.2168092663 0.0000000000 -0.0010879640 -0.0010879640 361.3392780512 0.0544595319 0.0544595319
-0.4247542094 0.1971276438 0.0000000000 -0.0010879640 -0.0010879640 403.7777185573 0.0544595319 0.0544595319
-0.4302406011 0.1772022753 0.0000000000 -0.0010879640 -0.0010879640 441.8405275211 0.0544595319 0.0544595319
-0.4348988908 0.1570672028 0.0000000000 -0.0010879640 -0.0010879640 475.2460860505 0.0544595319 0.0544595319
-0.4387211199 0.1367568268 0.0000000000 -0.0010879640 -0.0010879640 503.7537611621 0.0544595319 0.0544595319
-0.4417007580 0.1163058473 0.0000000000 -0.0010879640 -0.0010879640 527.1657074215 0.0544595319 0.0544595319
-0.4438327147 0.0957492044 0.0000000000 -0.0010879640 -0.0010879640 545.3283523337 0.0544595319 0.0544595319
-0.4451133473 0.0751220188 0.0000000000 -0.0010879640 -0.0010879640 558.1335571845 0.0544595319 0.0544595319
-0.4455404681 0.0544595317 0.0000000000 -0.0010879640 -0.0010879640 565.5194482078 0.0544595319 0.0544595319
-0.4451133473 0.0337970445 0.0000000000 -0.0010879640 -0.0010879640 567.4709154767 0.0544595319 0.0544595319
-0.4438327146 0.0131698589 0.0000000000 -0.0010879640 -0.0010879640 564.0197786074 0.0544595319 0.0544595319
-0.4417007580 -0.0073867840 0.0000000000 -0.0010879640 -0.0010879640 555.2446192339 0.0544595319 0.0544595319
-0.4387211198 -0.0278377635 0.0000000000 -0.0010879640 -0.0010879640 541.2702804000 0.0544595319 0.0544595319
-0.4348988908 -0.0481481394 0.0000000000 -0.0010879640 -0.0010879640 522.2670327690 0.0544595319 0.0544595319
-0.4302406010 -0.0682832119 0.0000000000 -0.0010879640 -0.0010879640 498.4494071611 0.0544595319 0.0544595319
-0.4247542093 -0.0882085805 0.0000000000 -0.0010879640 -0.0010879640 470.0746926201 0.0544595319 0.0544595319
-0.4184490889 -0.1078902029 0.0000000000 -0.0010879640 -0.0010879640 437.4410990731 0.0544595319 0.0544595319
-0.4113360121 -0.1272944536 0.0000000000 -0.0010879640 -0.0010879640 400.8855836388 0.0544595319 0.0544595319
-0.4034271314 -0.1463881807 0.0000000000 -0.0010879640 -0.0010879640 360.7813395709 0.0544595319 0.0544595319
-0.3947359590 -0.1651387628 0.0000000000 -0.0010879640 -0.0010879640 317.5349464469 0.0544595319 0.0544595319
-0.3852773436 -0.1835141649 0.0000000000 -0.0010879640 -0.0010879640 271.5831792956 0.0544595319 0.0544595319
-0.3750674452 -0.2014829929 0.0000000000 -0.0010879640 -0.0010879640 223.3894727357 0.0544595319 0.0544595319
-0.3641237071 -0.2190145474 0.0000000000 -0.0010879640 -0.0010879640 173.4400338436 0.0544595319 0.0544595319
-0.3524648266 -0.2360788760 0.0000000000 -0.0010879640 -0.0010879640 122.2395944827 0.0544595319 0.0544595319
-0.3401107227 -0.2526468247 0.0000000000 -0.0010879640 -0.0010879640 70.3067904934 0.0544595319 0.0544595319
-0.3270825021 -0.2686900873 0.0000000000 -0.0010879640 -0.0010879640 18.1691518796 0.0544595319 0.0544595319
-0.3134024233 -0.2841812541 0.0000000000 -0.0010879640 -0.0010879640 -33.6423143962 0.0544595319 0.0544595319
-0.2841812538 -0.3134024236 0.0000000000 -0.0010879640 -0.0010879640 -134.1808250814 0.0544595319 0.0544595319
-0.2686900869 -0.3270825024 0.0000000000 -0.0010879640 -0.0010879640 -181.8832985695 0.0544595319 0.0544595319
-0.2526468243 -0.3401107230 0.0000000000 -0.0010879640 -0.0010879640 -227.2243999589 0.0544595319 0.0544595319
-0.2360788756 -0.3524648269 0.0000000000 -0.0010879640 -0.0010879640 -269.7523689085 0.0544595319 0.0544595319
-0.2190145470 -0.3641237074 0.0000000000 -0.0010879640 -0.0010879640 -309.0536845482 0.0544595319 0.0544595319
-0.2014829924 -0.3750674455 0.0000000000 -0.0010879640 -0.0010879640 -344.7613578880 0.0544595319 0.0544595319
-0.1835141644 -0.3852773439 0.0000000000 -0.0010879640 -0.0010879640 -376.5633475082 0.0544595319 0.0544595319
-0.1651387623 -0.3947359592 0.0000000000 -0.0010879640 -0.0010879640 -404.2108648616 0.0544595319 0.0544595319
-0.1463881802 -0.4034271316 0.0000000000 -0.0010879640 -0.0010879640 -427.5262464435 0.0544595319 0.0544595319
-0.1272944532 -0.4113360123 0.0000000000 -0.0010879640 -0.0010879640 -446.4099729678 0.0544595319 0.0544595319
-0.1078902025 -0.4184490891 0.0000000000 -0.0010879640 -0.0010879640 -460.8463209784 0.0544595319 0.0544595319
-0.0882085800 -0.4247542094 0.0000000000 -0.0010879640 -0.0010879640 -470.9070559073 0.0544595319 0.0544595319
-0.0682832114 -0.4302406012 0.0000000000 -0.0010879640 -0.0010879640 -476.7525389654 0.0544595319 0.0544595319
-0.0481481389 -0.4348988909 0.0000000000 -0.0010879640 -0.0010879640 -478.6296476654 0.0544595319 0.0544595319
-0.0278377630 -0.4387211199 0.0000000000 -0.0010879640 -0.0010879640 -476.8660254457 0.0544595319 0.0544595319
-0.0073867835 -0.4417007580 0.0000000000 -0.0010879640 -0.0010879640 -471.8603942912 0.0544595319 0.0544595319
0.0131698594 -0.4438327147 0.0000000000 -0.0010879640 -0.0010879640 -464.0689877393 0.0544595319 0.0544595319
0.0337970450 -0.4451133473 0.0000000000 -0.0010879640 -0.0010879640 -453.9885619004 0.0544595319 0.0544595319
0.0544595322 -0.4455404681 0.0000000000 -0.0010879640 -0.0010879640 -442.1368785020 0.0544595319 0.0544595319
0.0751220193 -0.4451133473 0.0000000000 -0.0010879640 -0.0010879640 -429.0319351052 0.0544595319 0.0544595319
0.0957492049 -0.4438327146 0.0000000000 -0.0010879640 -0.0010879640 -415.1714993849 0.0544595319 0.0544595319
0.1163058478 -0.4417007580 0.0000000000 -0.0010879640 -0.0010879640 -401.0145462322 0.0544595319 0.0544595319
0.1367568273 -0.4387211198 0.0000000000 -0.0010879640 -0.0010879640 -386.9661177693 0.0544595319 0.0544595319
0.1570672033 -0.4348988907 0.0000000000 -0.0010879640 -0.0010879640 -373.3666587183 0.0544595319 0.0544595319
0.1772022758 -0.4302406010 0.0000000000 -0.0010879640 -0.0010879640 -360.4866426940 0.0544595319 0.0544595319
0.1971276443 -0.4247542093 0.0000000000 -0.0010879640 -0.0010879640 -348.5260834738 0.0544595319 0.0544595319
0.2168092668 -0.4184490889 0.0000000000 -0.0010879640 -0.0010879640 -337.6185748951 0.0544595319 0.0544595319
0.2362135175 -0.4113360120 0.0000000000 -0.0010879640 -0.0010879640 -327.8360161071 0.0544595319 0.0544595319
0.2553072445 -0.4034271313 0.0000000000 -0.0010879640 -0.0010879640 -319.1938649062 0.0544595319 0.0544595319
0.2740578266 -0.3947359589 0.0000000000 -0.0010879640 -0.0010879640 -311.6488006653 0.0544595319 0.0544595319
0.2924332287 -0.3852773436 0.0000000000 -0.0010879640 -0.0010879640 -305.1047943459 0.0544595319 0.0544595319
0.3104020567 -0.3750674451 0.0000000000 -0.0010879640 -0.0010879640 -299.4088197381 0.0544595319 0.0544595319
0.3279336112 -0.3641237071 0.0000000000 -0.0010879640 -0.0010879640 -294.4038904347 0.0544595319 0.0544595319
0.3449979399 -0.3524648266 0.0000000000 -0.0010879640 -0.0010879640 -289.9186424838 0.0544595319 0.0544595319
0.3615658885 -0.3401107226 0.0000000000 -0.0010879640 -0.0010879640 -285.9400033629 0.0544595319 0.0544595319
0.3776091511 -0.3270825020 0.0000000000 -0.0010879640 -0.0010879640 -282.4056485525 0.0544595319 0.0544595319
0.3931003179 -0.3134024232 0.0000000000 -0.0010879640 -0.0010879640 -279.7177654462 0.0544595319 0.0544595319
0.5951324728 -0.4650540046 0.0000000000 0.0644732733 0.0039036501 -253.3291464917 0.0453435686 0.0450755483
0.6140266313 -0.4442915649 0.0000000000 0.0078612613 0.0063278414 -251.9369126369 0.0455478386 0.0449239931
0.6321362365 -0.4228298690 0.0000000000 -0.0316077286 0.0040525297 -251.6884495613 0.0457626244 0.0447874820
0.6494351013 -0.4006983794 0.0000000000 -0.0545585832 -0.0036318114 -252.9510592439 0.0459867662 0.0446667594
0.6658981343 -0.3779275604 0.0000000000 -0.0643494396 -0.0160803700 -255.8598714348 0.0462190533 0.0445624828
0.6815013800 -0.3545488382 0.0000000000 -0.0662403485 -0.0313438503 -260.3297047103 0.0464582303 0.0444752188
0.6962220571 -0.3305945591 0.0000000000 -0.0657058618 -0.0468077349 -266.1850893559 0.0467030041 0.0444054405
0.7100385959 -0.3060979458 0.0000000000 -0.0669435619 -0.0599897268 -273.3013426948 0.0469520506 0.0443535250
0.7229306733 -0.2810930527 0.0000000000 -0.0722737305 -0.0690729761 -281.6704735910 0.0472040222 0.0443197513
0.7348792466 -0.2556147190 0.0000000000 -0.0823445566 -0.0730530035 -291.3962442576 0.0474575545 0.0443042989
0.7458665859 -0.2296985211 0.0000000000 -0.0966621060 -0.0716223669 -302.6625520041 0.0477112742 0.0443072468
0.7558763039 -0.2033807226 0.0000000000 -0.1140785621 -0.0649640551 -315.7001096542 0.0479638060 0.0443285734
0.7648933847 -0.1766982241 0.0000000000 -0.1331259429 -0.0535611711 -330.7520970733 0.0482137802 0.0443681563
0.7729042098 -0.1496885105 0.0000000000 -0.1522230029 -0.0380625997 -348.0340221807 0.0484598400 0.0444257729
0.7798965832 -0.1223895980 0.0000000000 -0.1698096146 -0.0192040853 -367.6879100676 0.0487006489 0.0445011021
0.7858597528 -0.0948399795 0.0000000000 -0.1844470011 0.0022332691 -389.7360569718 0.0489348978 0.0445937255
0.7907844315 -0.0670785693 0.0000000000 -0.1949018531 0.0254472987 -414.0421665687 0.0491613118 0.0447031300
0.7946628151 -0.0391446465 0.0000000000 -0.2002172875 0.0496357855 -440.2878100016 0.0493786576 0.0448287103
0.7974885975 -0.0110777977 0.0000000000 -0.1997653644 0.0740197272 -467.9702131264 0.0495857496 0.0449697722
0.7992569853 0.0170821410 0.0000000000 -0.1932740008 0.0978681528 -496.4238984840 0.0497814567 0.0451255364
0.7999647081 0.0452951431 0.0000000000 -0.1808238921 0.1205207491 -524.8644206523 0.0499647081 0.0452951428
0.7996100278 0.0735210505 0.0000000000 -0.1628163168 0.1414042769 -552.4483226121 0.0501344993 0.0454776545
0.7981927453 0.1017196341 0.0000000000 -0.1399181384 0.1600403232 -578.3406372979 0.0502898975 0.0456720637
0.7957142041 0.1298506534 0.0000000000 -0.1129938789 0.1760443351 -601.7805657372 0.0504300467 0.0458772960
0.7921772920 0.1578739172 0.0000000000 -0.0830351922 0.1891180150 -622.1373903675 0.0505541724 0.0460922173
0.7875864406 0.1857493446 0.0000000000 -0.0510956617 0.1990380653 -638.9514320794 0.0506615857 0.0463156390
0.7819476215 0.2134370254 0.0000000000 -0.0182350844 0.2056436733 -651.9578329392 0.0507516874 0.0465463247
0.7752683408 0.2408972810 0.0000000000 0.0145259735 0.2088236215 -661.0933626919 0.0508239712 0.0467829969
0.7675576305 0.2680907248 0.0000000000 0.0462427693 0.2085027793 -666.4880930384 0.0508780263 0.0470243438
0.7588260378 0.2949783228 0.0000000000 0.0760772489 0.2046281404 -668.4447729333 0.0509135402 0.0472690261
0.7490856116 0.3215214534 0.0000000000 0.1033292005 0.1971568141 -667.4091325463 0.0509303002 0.0475156849
0.7383498870 0.3476819667 0.0000000000 0.1274799513 0.1860513864 -663.9341059471 0.0509281951 0.0477629483
0.7266338664 0.3734222437 0.0000000000 0.1482724006 0.1712901484 -658.6403138105 0.0509072155 0.0480094393
0.7139539994 0.3987052544 0.0000000000 0.1658657471 0.1529003962 -652.1747747708 0.0508674543 0.0482537830
0.7003281593 0.4234946146 0.0000000000 0.1811020277 0.1310234372 -645.1701926415 0.0508091065 0.0484946145
0.6857756173 0.4477546433 0.0000000000 0.1958609935 0.1060165526 -638.2073762079 0.0507324680 0.0487305858
0.6703170152 0.4714504172 0.0000000000 0.2133316611 0.0785757364 -631.7815845569 0.0506379345 0.0489603735
0.6539743343 0.4945478255 0.0000000000 0.2378786883 0.0498167703 -626.2707728413 0.0505259995 0.0491826862
0.6367708635 0.5170136227 0.0000000000 0.2742466753 0.0212203562 -621.9056958542 0.0503972518 0.0493962713
0.6187311645 0.5388154804 0.0000000000 0.3262428410 -0.0056004411 -618.7521876816 0.0502523722 0.0495999219
0.5998810347 0.5599220373 0.0000000000 0.3955018751 -0.0292191140 -616.7194597380 0.0500921309 0.0497924839
0.5576696341 0.6019497786 0.0000000000 0.5902593054 -0.0645313792 -615.1796786930 0.0497084554 0.0501568455
0.5342087465 0.6226364482 0.0000000000 0.7089900143 -0.0741752309 -615.1615713458 0.0494843182 0.0503233970
0.5099059787 0.6423267243 0.0000000000 0.8302327000 -0.0776973082 -615.2372219521 0.0492464443 0.0504713422
0.4848040131 0.6609861680 0.0000000000 0.9476516489 -0.0753668405 -615.1408644180 0.0489964017 0.0505996300
0.4589469609 0.6785821989 0.0000000000 1.0560240455 -0.0677180367 -614.6478180553 0.0487358424 0.0507073402
0.4323802786 0.6950841559 0.0000000000 1.1515975381 -0.0555150392 -613.5981334040 0.0484664919 0.0507936901
0.4051506822 0.7104633536 0.0000000000 1.2322457413 -0.0396639930 -611.9029809647 0.0481901375 0.0508580401
0.3773060583 0.7246931353 0.0000000000 1.2973985241 -0.0210872042 -609.5361470238 0.0479086167 0.0508998989
0.3488953732 0.7377489218 0.0000000000 1.3477636476 -0.0006087254 -606.5128109301 0.0476238048 0.0509189267
0.3199685803 0.7496082549 0.0000000000 1.3849230359 0.0211179108 -602.8641868458 0.0473376025 0.0509149388
0.2905765247 0.7602508379 0.0000000000 1.4109084044 0.0436326661 -598.6151147011 0.0470519229 0.0508879066
0.2607708471 0.7696585708 0.0000000000 1.4278391118 0.0666520904 -593.7678725661 0.0467686790 0.0508379589
0.2306038855 0.7778155808 0.0000000000 1.4376655206 0.0900288145 -588.2929308201 0.0464897703 0.0507653813
0.2001285765 0.7847082492 0.0000000000 1.4420243718 0.1137033669 -582.1261888900 0.0462170699 0.0506706152
0.1693983547 0.7903252323 0.0000000000 1.4421882011 0.1376598785 -575.1715863021 0.0459524121 0.0505542547
0.1384670524 0.7946574786 0.0000000000 1.4390800796 0.1618917813 -567.3075576276 0.0456975791 0.0504170438
0.1073887982 0.7976982411 0.0000000000 1.4333249382 0.1863790269 -558.3956559768 0.0454542893 0.0502598714
0.0762179153 0.7994430847 0.0000000000 1.4253147597 0.2110755009 -548.2898341149 0.0452241848 0.0500837659
0.0450088202 0.7998898889 0.0000000000 1.4152728009 0.2359041005 -536.8452525694 0.0450088203 0.0498898889
0.0138159213 0.7990388458 0.0000000000 1.4033090476 0.2607568628 -523.9259312736 0.0448096521 0.0496795270
-0.0173064816 0.7968924541 0.0000000000 1.3894641561 0.2854980215 -509.4109520544 0.0446280277 0.0494540843
-0.0483042977 0.7934555071 0.0000000000 1.3737421376 0.3099685010 -493.1991929615 0.0444651759 0.0492150723
-0.0791237442 0.7887350779 0.0000000000 1.3561334611 0.3339909231 -475.2127279185 0.0443221987 0.0489641004
-0.1097114443 0.7827404986 0.0000000000 1.3366306538 0.3573746136 -455.3990843816 0.0442000625 0.0487028646
-0.1400145239 0.7754833360 0.0000000000 1.3152383431 0.3799203561 -433.7325539031 0.0440995916 0.0484331366
-0.1699807066 0.7669773631 0.0000000000 1.2919793348 0.4014247926 -410.2147261718 0.0440214618 0.0481567513
-0.1995584068 0.7572385253 0.0000000000 1.2668979349 0.4216844429 -384.8743859687 0.0439661953 0.0478755941
-0.2286968213 0.7462849045 0.0000000000 1.2400613831 0.4404993450 -357.7668845843 0.0439341568 0.0475915886
-0.2573460182 0.7341366772 0.0000000000 1.2115600022 0.4576763310 -328.9730759424 0.0439255505 0.0473066823
-0.2854570235 0.7208160703 0.0000000000 1.1815064742 0.4730319497 -298.5978927985 0.0439404183 0.0470228340
-0.3129819061 0.7063473125 0.0000000000 1.1500345239 0.4863950478 -266.7686283012 0.0439786389 0.0467419992
-0.3398738583 0.6907565827 0.0000000000 1.1172971969 0.4976090173 -233.6329811532 0.0440399287 0.0464661170
-0.3660872757 0.6740719547 0.0000000000 1.0834648652 0.5065337178 -199.3569171479 0.0441238431 0.0461970961
-0.3915778323 0.6563233390 0.0000000000 1.0487230525 0.5130470825 -164.1223950400 0.0442297794 0.0459368012
-0.4163025540 0.6375424218 0.0000000000 1.0132701474 0.5170464170 -128.1250000325 0.0443569807 0.0456870399
-0.4402198874 0.6177626008 0.0000000000 0.9773150563 0.5184494017 -91.5715234637 0.0445045411 0.0454495498
-0.4632897670 0.5970189188 0.0000000000 0.9410748356 0.5171948126 -54.6775226091 0.0446714118 0.0452259859
-0.5067347149 0.5527879520 0.0000000000 0.8686338654 0.5065759477 19.2405416411 0.0450582183 0.0448267735
-0.5270376398 0.5293783466 0.0000000000 0.8328869502 0.4971975131 55.8113383824 0.0452754115 0.0446539184
-0.5463489330 0.5051600906 0.0000000000 0.7977581121 0.4851328926 91.8207255243 0.0455064492 0.0445005563
-0.5646368428 0.4801753763 0.0000000000 0.7634707757 0.4704283061 127.0447550635 0.0457496953 0.0443677650
-0.5818714312 0.4544675981 0.0000000000 0.7302432615 0.4531503351 161.2643632723 0.0460034276 0.0442564797
-0.5980246155 0.4280812727 0.0000000000 0.6982868983 0.4333851302 194.2673063976 0.0462658504 0.0441674861
-0.6130702065 0.4010619590 0.0000000000 0.6678042616 0.4112374762 225.8499649961 0.0465351070 0.0441014144
-0.6269839434 0.3734561765 0.0000000000 0.6389875492 0.3868297319 255.8190109328 0.0468092932 0.0440587351
-0.6397435247 0.3453113233 0.0000000000 0.6120170973 0.3603006581 283.9929339955 0.0470864704 0.0440397550
-0.6513286360 0.3166755931 0.0000000000 0.5870600422 0.3318041453 310.2034267858 0.0473646801 0.0440446154
-0.6617209739 0.2875978921 0.0000000000 0.5642691304 0.3015078573 334.2966271319 0.0476419575 0.0440732905
-0.6709042662 0.2581277558 0.0000000000 0.5437816853 0.2695918013 356.1342177151 0.0479163458 0.0441255879
-0.6788642896 0.2283152649 0.0000000000 0.5257187392 0.2362468362 375.5943838336 0.0481859100 0.0442011498
-0.6855888831 0.1982109621 0.0000000000 0.5101843311 0.2016731206 392.5726312798 0.0484487509 0.0442994558
-0.6910679585 0.1678657684 0.0000000000 0.4972649519 0.1660784984 406.9824643398 0.0487030191 0.0444198260
-0.6952935075 0.1373308997 0.0000000000 0.4870290928 0.1296768226 418.7559171399 0.0489469273 0.0445614266
-0.6982596058 0.1066577844 0.0000000000 0.4795268535 0.0926862411 427.8439248176 0.0491787640 0.0447232756
-0.6999624137 0.0758979802 0.0000000000 0.4747895909 0.0553274818 434.2165245664 0.0493969051 0.0449042499
-0.7004001743 0.0451030931 0.0000000000 0.4728296467 0.0178221851 437.8628931182 0.0495998257 0.0451030934
-0.6995732078 0.0143246954 0.0000000000 0.4736402226 -0.0196087030 438.7912482868 0.0497861110 0.0453184264
-0.6974839038 -0.0163857543 0.0000000000 0.4771954325 -0.0567464759 437.0286334641 0.0499544659 0.0455487551
-0.6941367105 -0.0469769911 0.0000000000 0.4834505617 -0.0933761604 432.6206006578 0.0501037243 0.0457924826
-0.6895381201 -0.0773980225 0.0000000000 0.4923425675 -0.1292879830 425.6308047807 0.0502328574 0.0460479206