 TITLE = "Tecplot data"
 VARIABLES = "X", "Y", "Z" "U", "V", "p", "dispX", "dispY"
 ZONE SOLUTIONTIME=59.900000, NODES=26114 , ELEMENTS=25916, DATAPACKING=POINT, ZONETYPE=FEQUADRILATERAL
0.3535533906 0.3535533906 0.0000000000 0.0000000000 0.0000000000 -295.9895424387 0.0000000000 0.0000000000
0.3535533908 -0.3535533903 0.0000000000 0.0000000000 0.0000000000 -307.5988228792 0.0000000000 0.0000000000
-0.3535533907 0.3535533905 0.0000000000 0.0000000000 0.0000000000 -79.2781315313 0.0000000000 0.0000000000
-0.3535533904 -0.3535533908 0.0000000000 0.0000000000 0.0000000000 -69.2451962823 0.0000000000 0.0000000000
0.5303300858 0.5303300859 0.0000000000 0.1376393060 0.0390556414 -278.2299422599 0.0000000000 0.0000000000
0.5303300863 -0.5303300855 0.0000000000 0.1546162053 -0.0196778777 -294.5420042022 0.0000000000 0.0000000000
-0.5303300861 0.5303300857 0.0000000000 0.8240240482 0.5147534545 68.8332901423 0.0000000000 0.0000000000
-0.5303300856 -0.5303300862 0.0000000000 0.8162789303 -0.5055666369 73.7139379063 0.0000000000 0.0000000000
1.0606601717 1.0606601719 0.0000000000 1.2312893034 0.0829148020 -257.5364692673 0.0000000000 0.0000000000
1.0606601725 -1.0606601710 0.0000000000 1.1610522197 -0.0758134259 -201.0009927547 0.0000000000 0.0000000000
-1.0606601721 1.0606601715 0.0000000000 0.9267475854 0.1898669632 92.1386379321 0.0000000000 0.0000000000
-1.0606601712 -1.0606601723 0.0000000000 0.9216502723 -0.1855290932 94.1364364906 0.0000000000 0.0000000000
4.2000000000 3.3000000000 0.0000000000 1.0790203390 0.0062951891 -26.8129174212 0.0000000000 0.0000000000
4.2000000000 -3.3000000000 0.0000000000 1.0628893676 0.0307728455 -35.1582359967 0.0000000000 0.0000000000
20.0000000000 4.7000000000 0.0000000000 1.0381587302 -0.0252096889 -0.3646218413 0.0000000000 0.0000000000
20.0000000000 -4.7000000000 0.0000000000 1.0567964668 -0.0167556192 0.6982953922 0.0000000000 0.0000000000
-10.0000000000 15.0000000000 0.0000000000 1.0000000000 0.0000000000 15.5141075862 0.0000000000 0.0000000000
20.0000000000 15.0000000000 0.0000000000 1.0166240015 0.0000000000 -0.0296714826 0.0000000000 0.0000000000
20.0000000000 -15.0000000000 0.0000000000 1.0171806440 0.0000000000 -0.0320519280 0.0000000000 0.0000000000
-10.0000000000 -15.0000000000 0.0000000000 1.0000000000 0.0000000000 16.1979270340 0.0000000000 0.0000000000
0.3665259362 -0.3400863686 0.0000000000 0.0000000000 0.0000000000 -303.9352804888 0.0000000000 0.0000000000
0.3789858618 -0.3261437054 0.0000000000 0.0000000000 0.0000000000 -300.6014621035 0.0000000000 0.0000000000
0.3909157414 -0.3117449007 0.0000000000 0.0000000000 0.0000000000 -297.3711437603 0.0000000000 0.0000000000
0.4022988901 -0.2969100925 0.0000000000 0.0000000000 0.0000000000 -294.2887984799 0.0000000000 0.0000000000
0.4131193873 -0.2816600288 0.0000000000 0.0000000000 0.0000000000 -291.3083611333 0.0000000000 0.0000000000
0.4233620998 -0.2660160380 0.0000000000 0.0000000000 0.0000000000 -288.4301039348 0.0000000000 0.0000000000
0.4330127020 -0.2499999997 0.0000000000 0.0000000000 0.0000000000 -285.6487722740 0.0000000000 0.0000000000
0.4420576969 -0.2336343139 0.0000000000 0.0000000000 0.0000000000 -282.9742278442 0.0000000000 0.0000000000
0.4504844341 -0.2169418693 0.0000000000 0.0000000000 0.0000000000 -280.4209900492 0.0000000000 0.0000000000
0.4582811280 -0.1999460119 0.0000000000 0.0000000000 0.0000000000 -278.0105896140 0.0000000000 0.0000000000
0.4654368744 -0.1826705119 0.0000000000 0.0000000000 0.0000000000 -275.7678405481 0.0000000000 0.0000000000
0.4719416652 -0.1651395307 0.0000000000 0.0000000000 0.0000000000 -273.7196910346 0.0000000000 0.0000000000
0.4777864030 -0.1473775870 0.0000000000 0.0000000000 0.0000000000 -271.8928452549 0.0000000000 0.0000000000
0.4829629132 -0.1294095223 0.0000000000 0.0000000000 0.0000000000 -270.3120630257 0.0000000000 0.0000000000
0.4874639561 -0.1112604667 0.0000000000 0.0000000000 0.0000000000 -268.9983607679 0.0000000000 0.0000000000
0.4912832367 -0.0929558033 0.0000000000 0.0000000000 0.0000000000 -267.9675926093 0.0000000000 0.0000000000
0.4944154131 -0.0745211329 0.0000000000 0.0000000000 0.0000000000 -267.2292757180 0.0000000000 0.0000000000
0.4968561050 -0.0559822378 0.0000000000 0.0000000000 0.0000000000 -266.7858054899 0.0000000000 0.0000000000
0.4986018986 -0.0373650466 0.0000000000 0.0000000000 0.0000000000 -266.6320471169 0.0000000000 0.0000000000
0.4996503524 -0.0186955969 0.0000000000 0.0000000000 0.0000000000 -266.7553489022 0.0000000000 0.0000000000
0.5000000000 0.0000000002 0.0000000000 0.0000000000 0.0000000000 -267.1359587802 0.0000000000 0.0000000000
0.4996503524 0.0186955973 0.0000000000 0.0000000000 0.0000000000 -267.7478422899 0.0000000000 0.0000000000
0.4986018986 0.0373650470 0.0000000000 0.0000000000 0.0000000000 -268.5598344931 0.0000000000 0.0000000000
0.4968561049 0.0559822382 0.0000000000 0.0000000000 0.0000000000 -269.5371135994 0.0000000000 0.0000000000
0.4944154131 0.0745211333 0.0000000000 0.0000000000 0.0000000000 -270.6428386088 0.0000000000 0.0000000000
0.4912832366 0.0929558037 0.0000000000 0.0000000000 0.0000000000 -271.8400243630 0.0000000000 0.0000000000
0.4874639561 0.1112604671 0.0000000000 0.0000000000 0.0000000000 -273.0932844530 0.0000000000 0.0000000000
0.4829629131 0.1294095227 0.0000000000 0.0000000000 0.0000000000 -274.3708858702 0.0000000000 0.0000000000
0.4777864029 0.1473775873 0.0000000000 0.0000000000 0.0000000000 -275.6460927408 0.0000000000 0.0000000000
0.4719416651 0.1651395311 0.0000000000 0.0000000000 0.0000000000 -276.8994766534 0.0000000000 0.0000000000
0.4654368743 0.1826705123 0.0000000000 0.0000000000 0.0000000000 -278.1190127880 0.0000000000 0.0000000000
0.4582811279 0.1999460123 0.0000000000 0.0000000000 0.0000000000 -279.3035802384 0.0000000000 0.0000000000
0.4504844339 0.2169418697 0.0000000000 0.0000000000 0.0000000000 -280.4596487926 0.0000000000 0.0000000000
0.4420576967 0.2336343142 0.0000000000 0.0000000000 0.0000000000 -281.6093364446 0.0000000000 0.0000000000
0.4330127018 0.2500000001 0.0000000000 0.0000000000 0.0000000000 -282.7770992451 0.0000000000 0.0000000000
0.4233620996 0.2660160383 0.0000000000 0.0000000000 0.0000000000 -284.0132998898 0.0000000000 0.0000000000
0.4131193871 0.2816600291 0.0000000000 0.0000000000 0.0000000000 -285.3503325024 0.0000000000 0.0000000000
0.4022988898 0.2969100929 0.0000000000 0.0000000000 0.0000000000 -286.8774529981 0.0000000000 0.0000000000
0.3909157412 0.3117449010 0.0000000000 0.0000000000 0.0000000000 -288.6006215783 0.0000000000 0.0000000000
0.3789858615 0.3261437057 0.0000000000 0.0000000000 0.0000000000 -290.6885211572 0.0000000000 0.0000000000
0.3665259359 0.3400863689 0.0000000000 0.0000000000 0.0000000000 -293.0099066811 0.0000000000 0.0000000000
0.3386407858 0.3678619554 0.0000000000 0.0000000000 0.0000000000 -299.5199057070 0.0000000000 0.0000000000
0.3231496189 0.3815420341 0.0000000000 0.0000000000 0.0000000000 -303.9518971644 0.0000000000 0.0000000000
0.3071063563 0.3945702547 0.0000000000 0.0000000000 0.0000000000 -308.9199640074 0.0000000000 0.0000000000
0.2905384077 0.4069243587 0.0000000000 0.0000000000 0.0000000000 -314.6757042752 0.0000000000 0.0000000000
0.2734740790 0.4185832392 0.0000000000 0.0000000000 0.0000000000 -321.1194562556 0.0000000000 0.0000000000
0.2559425245 0.4295269772 0.0000000000 0.0000000000 0.0000000000 -328.3262965987 0.0000000000 0.0000000000
0.2379736965 0.4397368756 0.0000000000 0.0000000000 0.0000000000 -336.2586262842 0.0000000000 0.0000000000
0.2195982944 0.4491954910 0.0000000000 0.0000000000 0.0000000000 -344.9251794378 0.0000000000 0.0000000000
0.2008477123 0.4578866634 0.0000000000 0.0000000000 0.0000000000 -354.2880159052 0.0000000000 0.0000000000
0.1817539852 0.4657955441 0.0000000000 0.0000000000 0.0000000000 -364.3080306553 0.0000000000 0.0000000000
0.1623497345 0.4729086209 0.0000000000 0.0000000000 0.0000000000 -374.9110161579 0.0000000000 0.0000000000
0.1426681120 0.4792137413 0.0000000000 0.0000000000 0.0000000000 -385.9980310490 0.0000000000 0.0000000000
0.1227427435 0.4847001330 0.0000000000 0.0000000000 0.0000000000 -397.4320297109 0.0000000000 0.0000000000
0.1026076710 0.4893584227 0.0000000000 0.0000000000 0.0000000000 -409.0399358352 0.0000000000 0.0000000000
0.0822972951 0.4931806517 0.0000000000 0.0000000000 0.0000000000 -420.6089636133 0.0000000000 0.0000000000
0.0618463155 0.4961602899 0.0000000000 0.0000000000 0.0000000000 -431.8892979335 0.0000000000 0.0000000000
0.0412896726 0.4982922465 0.0000000000 0.0000000000 0.0000000000 -442.5964909309 0.0000000000 0.0000000000
0.0206624870 0.4995728792 0.0000000000 0.0000000000 0.0000000000 -452.4171383535 0.0000000000 0.0000000000
-0.0000000001 0.5000000000 0.0000000000 0.0000000000 0.0000000000 -461.0156481455 0.0000000000 0.0000000000
-0.0206624872 0.4995728792 0.0000000000 0.0000000000 0.0000000000 -468.0429142664 0.0000000000 0.0000000000
-0.0412896728 0.4982922465 0.0000000000 0.0000000000 0.0000000000 -473.1459202590 0.0000000000 0.0000000000
-0.0618463157 0.4961602899 0.0000000000 0.0000000000 0.0000000000 -475.9781227328 0.0000000000 0.0000000000
-0.0822972953 0.4931806517 0.0000000000 0.0000000000 0.0000000000 -476.2099302593 0.0000000000 0.0000000000
-0.1026076712 0.4893584226 0.0000000000 0.0000000000 0.0000000000 -473.5388534384 0.0000000000 0.0000000000
-0.1227427437 0.4847001329 0.0000000000 0.0000000000 0.0000000000 -467.6988110559 0.0000000000 0.0000000000
-0.1426681122 0.4792137412 0.0000000000 0.0000000000 0.0000000000 -458.4682313705 0.0000000000 0.0000000000
-0.1623497347 0.4729086208 0.0000000000 0.0000000000 0.0000000000 -445.6766562109 0.0000000000 0.0000000000
-0.1817539854 0.4657955440 0.0000000000 0.0000000000 0.0000000000 -429.2096895771 0.0000000000 0.0000000000
-0.2008477124 0.4578866633 0.0000000000 0.0000000000 0.0000000000 -409.0122338703 0.0000000000 0.0000000000
-0.2195982945 0.4491954909 0.0000000000 0.0000000000 0.0000000000 -385.0900583219 0.0000000000 0.0000000000
-0.2379736966 0.4397368755 0.0000000000 0.0000000000 0.0000000000 -357.5098160870 0.0000000000 0.0000000000
-0.2559425247 0.4295269771 0.0000000000 0.0000000000 0.0000000000 -326.3976755745 0.0000000000 0.0000000000
-0.2734740792 0.4185832391 0.0000000000 0.0000000000 0.0000000000 -291.9367519995 0.0000000000 0.0000000000
-0.2905384078 0.4069243586 0.0000000000 0.0000000000 0.0000000000 -254.3635234606 0.0000000000 0.0000000000
-0.3071063565 0.3945702546 0.0000000000 0.0000000000 0.0000000000 -213.9633989947 0.0000000000 0.0000000000
-0.3231496190 0.3815420340 0.0000000000 0.0000000000 0.0000000000 -171.0655864765 0.0000000000 0.0000000000
-0.3386407859 0.3678619552 0.0000000000 0.0000000000 0.0000000000 -126.0373975015 0.0000000000 0.0000000000
-0.3678619554 0.3386407857 0.0000000000 0.0000000000 0.0000000000 -31.2126996413 0.0000000000 0.0000000000
-0.3815420342 0.3231496188 0.0000000000 0.0000000000 0.0000000000 17.7148338520 0.0000000000 0.0000000000
-0.3945702548 0.3071063562 0.0000000000 0.0000000000 0.0000000000 67.0476125377 0.0000000000 0.0000000000
-0.4069243587 0.2905384076 0.0000000000 0.0000000000 0.0000000000 116.3220985085 0.0000000000 0.0000000000
-0.4185832392 0.2734740789 0.0000000000 0.0000000000 0.0000000000 165.0738289747 0.0000000000 0.0000000000
-0.4295269773 0.2559425244 0.0000000000 0.0000000000 0.0000000000 212.8427738505 0.0000000000 0.0000000000
-0.4397368757 0.2379736964 0.0000000000 0.0000000000 0.0000000000 259.1782980583 0.0000000000 0.0000000000
-0.4491954910 0.2195982943 0.0000000000 0.0000000000 0.0000000000 303.6437598931 0.0000000000 0.0000000000
-0.4578866634 0.2008477122 0.0000000000 0.0000000000 0.0000000000 345.8207821871 0.0000000000 0.0000000000
-0.4657955441 0.1817539851 0.0000000000 0.0000000000 0.0000000000 385.3132232079 0.0000000000 0.0000000000
-0.4729086209 0.1623497344 0.0000000000 0.0000000000 0.0000000000 421.7508584888 0.0000000000 0.0000000000
-0.4792137413 0.1426681119 0.0000000000 0.0000000000 0.0000000000 454.7927704649 0.0000000000 0.0000000000
-0.4847001330 0.1227427434 0.0000000000 0.0000000000 0.0000000000 484.1304333954 0.0000000000 0.0000000000
-0.4893584227 0.1026076709 0.0000000000 0.0000000000 0.0000000000 509.4904770144 0.0000000000 0.0000000000
-0.4931806517 0.0822972949 0.0000000000 0.0000000000 0.0000000000 530.6371123993 0.0000000000 0.0000000000
-0.4961602899 0.0618463154 0.0000000000 0.0000000000 0.0000000000 547.3742059122 0.0000000000 0.0000000000
-0.4982922465 0.0412896725 0.0000000000 0.0000000000 0.0000000000 559.5469903476 0.0000000000 0.0000000000
-0.4995728792 0.0206624869 0.0000000000 0.0000000000 0.0000000000 567.0434056330 0.0000000000 0.0000000000
-0.5000000000 -0.0000000002 0.0000000000 0.0000000000 0.0000000000 569.7950641344 0.0000000000 0.0000000000
-0.4995728792 -0.0206624873 0.0000000000 0.0000000000 0.0000000000 567.7778376584 0.0000000000 0.0000000000
-0.4982922465 -0.0412896729 0.0000000000 0.0000000000 0.0000000000 561.0120646877 0.0000000000 0.0000000000
-0.4961602898 -0.0618463158 0.0000000000 0.0000000000 0.0000000000 549.5623773880 0.0000000000 0.0000000000
-0.4931806517 -0.0822972954 0.0000000000 0.0000000000 0.0000000000 533.5371486782 0.0000000000 0.0000000000
-0.4893584226 -0.1026076713 0.0000000000 0.0000000000 0.0000000000 513.0875603214 0.0000000000 0.0000000000
-0.4847001329 -0.1227427438 0.0000000000 0.0000000000 0.0000000000 488.4062936992 0.0000000000 0.0000000000
-0.4792137412 -0.1426681123 0.0000000000 0.0000000000 0.0000000000 459.7258457241 0.0000000000 0.0000000000
-0.4729086208 -0.1623497348 0.0000000000 0.0000000000 0.0000000000 427.3164732209 0.0000000000 0.0000000000
-0.4657955439 -0.1817539855 0.0000000000 0.0000000000 0.0000000000 391.4837700397 0.0000000000 0.0000000000
-0.4578866632 -0.2008477125 0.0000000000 0.0000000000 0.0000000000 352.5658821014 0.0000000000 0.0000000000
-0.4491954908 -0.2195982946 0.0000000000 0.0000000000 0.0000000000 310.9303665241 0.0000000000 0.0000000000
-0.4397368755 -0.2379736967 0.0000000000 0.0000000000 0.0000000000 266.9707019746 0.0000000000 0.0000000000
-0.4295269771 -0.2559425248 0.0000000000 0.0000000000 0.0000000000 221.1024585492 0.0000000000 0.0000000000
-0.4185832390 -0.2734740793 0.0000000000 0.0000000000 0.0000000000 173.7591369869 0.0000000000 0.0000000000
-0.4069243585 -0.2905384079 0.0000000000 0.0000000000 0.0000000000 125.3876890921 0.0000000000 0.0000000000
-0.3945702545 -0.3071063565 0.0000000000 0.0000000000 0.0000000000 76.4437341923 0.0000000000 0.0000000000
-0.3815420339 -0.3231496191 0.0000000000 0.0000000000 0.0000000000 27.3864905814 0.0000000000 0.0000000000
-0.3678619552 -0.3386407860 0.0000000000 0.0000000000 0.0000000000 -21.3265533868 0.0000000000 0.0000000000
-0.3386407856 -0.3678619555 0.0000000000 0.0000000000 0.0000000000 -115.9322664425 0.0000000000 0.0000000000
-0.3231496187 -0.3815420343 0.0000000000 0.0000000000 0.0000000000 -160.9694959269 0.0000000000 0.0000000000
-0.3071063561 -0.3945702549 0.0000000000 0.0000000000 0.0000000000 -203.9634554763 0.0000000000 0.0000000000
-0.2905384075 -0.4069243588 0.0000000000 0.0000000000 0.0000000000 -244.5514621845 0.0000000000 0.0000000000
-0.2734740788 -0.4185832393 0.0000000000 0.0000000000 0.0000000000 -282.4073508942 0.0000000000 0.0000000000
-0.2559425243 -0.4295269773 0.0000000000 0.0000000000 0.0000000000 -317.2469778095 0.0000000000 0.0000000000
-0.2379736963 -0.4397368757 0.0000000000 0.0000000000 0.0000000000 -348.8333017761 0.0000000000 0.0000000000
-0.2195982942 -0.4491954911 0.0000000000 0.0000000000 0.0000000000 -376.9808670109 0.0000000000 0.0000000000
-0.2008477121 -0.4578866634 0.0000000000 0.0000000000 0.0000000000 -401.5594933891 0.0000000000 0.0000000000
-0.1817539850 -0.4657955441 0.0000000000 0.0000000000 0.0000000000 -422.4969699698 0.0000000000 0.0000000000
-0.1623497343 -0.4729086209 0.0000000000 0.0000000000 0.0000000000 -439.7805479632 0.0000000000 0.0000000000
-0.1426681118 -0.4792137413 0.0000000000 0.0000000000 0.0000000000 -453.4570446287 0.0000000000 0.0000000000
-0.1227427433 -0.4847001330 0.0000000000 0.0000000000 0.0000000000 -463.6314028822 0.0000000000 0.0000000000
-0.1026076708 -0.4893584227 0.0000000000 0.0000000000 0.0000000000 -470.4636049342 0.0000000000 0.0000000000
-0.0822972948 -0.4931806518 0.0000000000 0.0000000000 0.0000000000 -474.1639119184 0.0000000000 0.0000000000
-0.0618463153 -0.4961602899 0.0000000000 0.0000000000 0.0000000000 -474.9864930453 0.0000000000 0.0000000000
-0.0412896724 -0.4982922465 0.0000000000 0.0000000000 0.0000000000 -473.2216106939 0.0000000000 0.0000000000
-0.0206624868 -0.4995728792 0.0000000000 0.0000000000 0.0000000000 -469.1866346321 0.0000000000 0.0000000000
0.0000000003 -0.5000000000 0.0000000000 0.0000000000 0.0000000000 -463.2162550700 0.0000000000 0.0000000000
0.0206624874 -0.4995728792 0.0000000000 0.0000000000 0.0000000000 -455.6523436241 0.0000000000 0.0000000000
0.0412896730 -0.4982922465 0.0000000000 0.0000000000 0.0000000000 -446.8339522088 0.0000000000 0.0000000000
0.0618463159 -0.4961602898 0.0000000000 0.0000000000 0.0000000000 -437.0879545269 0.0000000000 0.0000000000
0.0822972955 -0.4931806516 0.0000000000 0.0000000000 0.0000000000 -426.7207823280 0.0000000000 0.0000000000
0.1026076714 -0.4893584226 0.0000000000 0.0000000000 0.0000000000 -416.0116662311 0.0000000000 0.0000000000
0.1227427439 -0.4847001329 0.0000000000 0.0000000000 0.0000000000 -405.2076155036 0.0000000000 0.0000000000
0.1426681124 -0.4792137411 0.0000000000 0.0000000000 0.0000000000 -394.5203603530 0.0000000000 0.0000000000
0.1623497349 -0.4729086207 0.0000000000 0.0000000000 0.0000000000 -384.1250479039 0.0000000000 0.0000000000
0.1817539856 -0.4657955439 0.0000000000 0.0000000000 0.0000000000 -374.1608294315 0.0000000000 0.0000000000
0.2008477126 -0.4578866632 0.0000000000 0.0000000000 0.0000000000 -364.7322014430 0.0000000000 0.0000000000
0.2195982947 -0.4491954908 0.0000000000 0.0000000000 0.0000000000 -355.9121246219 0.0000000000 0.0000000000
0.2379736968 -0.4397368754 0.0000000000 0.0000000000 0.0000000000 -347.7432074764 0.0000000000 0.0000000000
0.2559425248 -0.4295269770 0.0000000000 0.0000000000 0.0000000000 -340.2434642713 0.0000000000 0.0000000000
0.2734740794 -0.4185832389 0.0000000000 0.0000000000 0.0000000000 -333.4019677812 0.0000000000 0.0000000000
0.2905384080 -0.4069243584 0.0000000000 0.0000000000 0.0000000000 -327.1964871681 0.0000000000 0.0000000000
0.3071063566 -0.3945702545 0.0000000000 0.0000000000 0.0000000000 -321.5628502164 0.0000000000 0.0000000000
0.3231496192 -0.3815420339 0.0000000000 0.0000000000 0.0000000000 -316.4763757345 0.0000000000 0.0000000000
0.3386407861 -0.3678619551 0.0000000000 0.0000000000 0.0000000000 -311.7684472346 0.0000000000 0.0000000000
0.5497889042 -0.5101295529 0.0000000000 0.1169386962 -0.0218189776 -293.5435013750 0.0000000000 0.0000000000
0.5684787927 -0.4892155581 0.0000000000 0.0844573136 -0.0239684250 -292.5063506816 0.0000000000 0.0000000000
0.5863736122 -0.4676173510 0.0000000000 0.0567031178 -0.0257733845 -291.4406489550 0.0000000000 0.0000000000
0.6034483351 -0.4453651388 0.0000000000 0.0331481918 -0.0269556464 -290.3126910499 0.0000000000 0.0000000000
0.6196790810 -0.4224900431 0.0000000000 0.0132649191 -0.0273097054 -289.1017951084 0.0000000000 0.0000000000
0.6350431497 -0.3990240570 0.0000000000 -0.0034423810 -0.0267007675 -287.8014696992 0.0000000000 0.0000000000
0.6495190531 -0.3749999996 0.0000000000 -0.0174201518 -0.0250576177 -286.4183968243 0.0000000000 0.0000000000
0.6630865453 -0.3504514708 0.0000000000 -0.0290591827 -0.0223626162 -284.9706087217 0.0000000000 0.0000000000
0.6757266511 -0.3254128039 0.0000000000 -0.0386951937 -0.0186408515 -283.4849399160 0.0000000000 0.0000000000
0.6874216921 -0.2999190178 0.0000000000 -0.0466131147 -0.0139498423 -281.9941520077 0.0000000000 0.0000000000
0.6981553116 -0.2740057679 0.0000000000 -0.0530527422 -0.0083706071 -280.5340392295 0.0000000000 0.0000000000
0.7079124979 -0.2477092961 0.0000000000 -0.0582144373 -0.0020004608 -279.1407450573 0.0000000000 0.0000000000
0.7166796045 -0.2210663804 0.0000000000 -0.0622642883 0.0050524281 -277.8484337148 0.0000000000 0.0000000000
0.7244443698 -0.1941142835 0.0000000000 -0.0653386565 0.0126728868 -276.6873840459 0.0000000000 0.0000000000
0.7311959342 -0.1668907001 0.0000000000 -0.0675482614 0.0207412735 -275.6825157240 0.0000000000 0.0000000000
0.7369248550 -0.1394337050 0.0000000000 -0.0689820315 0.0291350189 -274.8523229057 0.0000000000 0.0000000000
0.7416231197 -0.1117816993 0.0000000000 -0.0697108966 0.0377294934 -274.2081770639 0.0000000000 0.0000000000
0.7452841575 -0.0839733567 0.0000000000 -0.0697916048 0.0463984817 -273.7539637025 0.0000000000 0.0000000000
0.7479028479 -0.0560475699 0.0000000000 -0.0692705442 0.0550144969 -273.4860296323 0.0000000000 0.0000000000
0.7494755286 -0.0280433954 0.0000000000 -0.0681874623 0.0634491037 -273.3934309646 0.0000000000 0.0000000000
0.7500000000 0.0000000003 0.0000000000 -0.0665789190 0.0715733686 -273.4584809506 0.0000000000 0.0000000000
0.7494755286 0.0280433960 0.0000000000 -0.0644812737 0.0792585081 -273.6575977167 0.0000000000 0.0000000000
0.7479028479 0.0560475705 0.0000000000 -0.0619329894 0.0863767808 -273.9624439211 0.0000000000 0.0000000000
0.7452841574 0.0839733573 0.0000000000 -0.0589760254 0.0928026606 -274.3413349404 0.0000000000 0.0000000000
0.7416231196 0.1117816999 0.0000000000 -0.0556560648 0.0984143351 -274.7608722420 0.0000000000 0.0000000000
0.7369248549 0.1394337056 0.0000000000 -0.0520212884 0.1030955955 -275.1877376630 0.0000000000 0.0000000000
0.7311959341 0.1668907007 0.0000000000 -0.0481193414 0.1067382119 -275.5905659495 0.0000000000 0.0000000000
0.7244443697 0.1941142840 0.0000000000 -0.0439920668 0.1092449162 -275.9418006522 0.0000000000 0.0000000000
0.7166796043 0.2210663810 0.0000000000 -0.0396675034 0.1105331331 -276.2194354527 0.0000000000 0.0000000000
0.7079124977 0.2477092967 0.0000000000 -0.0351486271 0.1105395973 -276.4085512984 0.0000000000 0.0000000000
0.6981553114 0.2740057685 0.0000000000 -0.0303984209 0.1092259516 -276.5025788334 0.0000000000 0.0000000000
0.6874216918 0.2999190184 0.0000000000 -0.0253212234 0.1065853072 -276.5042400595 0.0000000000 0.0000000000
0.6757266509 0.3254128045 0.0000000000 -0.0197410502 0.1026495437 -276.4261402536 0.0000000000 0.0000000000
0.6630865451 0.3504514714 0.0000000000 -0.0133788174 0.0974967854 -276.2909725629 0.0000000000 0.0000000000
0.6495190528 0.3750000001 0.0000000000 -0.0058320565 0.0912580501 -276.1312484152 0.0000000000 0.0000000000
0.6350431493 0.3990240575 0.0000000000 0.0034375553 0.0841215869 -275.9883858379 0.0000000000 0.0000000000
0.6196790807 0.4224900437 0.0000000000 0.0151024130 0.0763331221 -275.9109273776 0.0000000000 0.0000000000
0.6034483348 0.4453651393 0.0000000000 0.0299469759 0.0681904009 -275.9517180396 0.0000000000 0.0000000000
0.5863736118 0.4676173515 0.0000000000 0.0488223038 0.0600312879 -276.1641117766 0.0000000000 0.0000000000
0.5684787923 0.4892155585 0.0000000000 0.0725789242 0.0522162868 -276.5976686604 0.0000000000 0.0000000000
0.5497889038 0.5101295534 0.0000000000 0.1019848040 0.0451083461 -277.2894079395 0.0000000000 0.0000000000
0.5079611787 0.5517929331 0.0000000000 0.1848296094 0.0339914228 -279.7646877901 0.0000000000 0.0000000000
0.4847244283 0.5723130512 0.0000000000 0.2402271158 0.0310088097 -281.6205640832 0.0000000000 0.0000000000
0.4606595344 0.5918553821 0.0000000000 0.3034376673 0.0304400151 -283.8701567010 0.0000000000 0.0000000000
0.4358076115 0.6103865380 0.0000000000 0.3736035932 0.0325550759 -286.5129427141 0.0000000000 0.0000000000
0.4102111185 0.6278748587 0.0000000000 0.4494222808 0.0375582632 -289.5376825449 0.0000000000 0.0000000000
0.3839137867 0.6442904658 0.0000000000 0.5292110154 0.0455666639 -292.9168890215 0.0000000000 0.0000000000
0.3569605447 0.6596053135 0.0000000000 0.6110070354 0.0565855929 -296.5988700139 0.0000000000 0.0000000000
0.3293974415 0.6737932365 0.0000000000 0.6927014648 0.0704918686 -300.5005087749 0.0000000000 0.0000000000
0.3012715684 0.6868299950 0.0000000000 0.7721959628 0.0870336706 -304.5036763087 0.0000000000 0.0000000000
0.2726309778 0.6986933161 0.0000000000 0.8475613566 0.1058498709 -308.4568529384 0.0000000000 0.0000000000
0.2435246018 0.7093629313 0.0000000000 0.9171735580 0.1265051456 -312.1820563127 0.0000000000 0.0000000000
0.2140021681 0.7188206119 0.0000000000 0.9798062520 0.1485328763 -315.4856316737 0.0000000000 0.0000000000
0.1841141152 0.7270501995 0.0000000000 1.0346700464 0.1714768841 -318.1704533311 0.0000000000 0.0000000000
0.1539115065 0.7340376340 0.0000000000 1.0813995957 0.1949248368 -320.0469945063 0.0000000000 0.0000000000
0.1234459426 0.7397709776 0.0000000000 1.1199996339 0.2185293848 -320.9414631111 0.0000000000 0.0000000000
0.0927694733 0.7442404348 0.0000000000 1.1507657654 0.2420163941 -320.7003261185 0.0000000000 0.0000000000
0.0619345090 0.7474383698 0.0000000000 1.1741962124 0.2651821613 -319.1915609571 0.0000000000 0.0000000000
0.0309937305 0.7493593188 0.0000000000 1.1909077872 0.2878828767 -316.3035901325 0.0000000000 0.0000000000
-0.0000000002 0.7500000000 0.0000000000 1.2015648650 0.3100199084 -311.9430326886 0.0000000000 0.0000000000
-0.0309937308 0.7493593188 0.0000000000 1.2068255667 0.3315240340 -306.0322586305 0.0000000000 0.0000000000
-0.0619345093 0.7474383697 0.0000000000 1.2073056458 0.3523409109 -298.5074215288 0.0000000000 0.0000000000
-0.0927694736 0.7442404348 0.0000000000 1.2035581115 0.3724191551 -289.3173065173 0.0000000000 0.0000000000
-0.1234459429 0.7397709775 0.0000000000 1.1960653570 0.3917016021 -278.4230500857 0.0000000000 0.0000000000
-0.1539115068 0.7340376340 0.0000000000 1.1852402429 0.4101197398 -265.7985992979 0.0000000000 0.0000000000
-0.1841141155 0.7270501994 0.0000000000 1.1714328815 0.4275909415 -251.4316811416 0.0000000000 0.0000000000
-0.2140021684 0.7188206118 0.0000000000 1.1549404674 0.4440179588 -235.3250285952 0.0000000000 0.0000000000
-0.2435246021 0.7093629312 0.0000000000 1.1360181912 0.4592900986 -217.4976335632 0.0000000000 0.0000000000
-0.2726309781 0.6986933160 0.0000000000 1.1148899134 0.4732855524 -197.9858449598 0.0000000000 0.0000000000
-0.3012715687 0.6868299949 0.0000000000 1.0917578024 0.4858744343 -176.8441855662 0.0000000000 0.0000000000
-0.3293974418 0.6737932363 0.0000000000 1.0668105323 0.4969221786 -154.1458129405 0.0000000000 0.0000000000
-0.3569605450 0.6596053133 0.0000000000 1.0402299071 0.5062930392 -129.9825922112 0.0000000000 0.0000000000
-0.3839137870 0.6442904657 0.0000000000 1.0121959497 0.5138535102 -104.4647804275 0.0000000000 0.0000000000
-0.4102111188 0.6278748586 0.0000000000 0.9828905886 0.5194755456 -77.7203439618 0.0000000000 0.0000000000
-0.4358076117 0.6103865378 0.0000000000 0.9525001226 0.5230395040 -49.8939439673 0.0000000000 0.0000000000
-0.4606595347 0.5918553819 0.0000000000 0.9212166542 0.5244367748 -21.1456320956 0.0000000000 0.0000000000
-0.4847244286 0.5723130510 0.0000000000 0.8892386771 0.5235720655 8.3506985998 0.0000000000 0.0000000000
-0.5079611789 0.5517929329 0.0000000000 0.8567709852 0.5203653464 38.4090628969 0.0000000000 0.0000000000
-0.5517929332 0.5079611785 0.0000000000 0.7912129795 0.5066913706 99.4190488593 0.0000000000 0.0000000000
-0.5723130513 0.4847244282 0.0000000000 0.7585561986 0.4961531806 129.9559529191 0.0000000000 0.0000000000
-0.5918553822 0.4606595343 0.0000000000 0.7262738743 0.4831327398 160.2297162438 0.0000000000 0.0000000000
-0.6103865381 0.4358076114 0.0000000000 0.6945862192 0.4676440554 190.0243260062 0.0000000000 0.0000000000
-0.6278748588 0.4102111184 0.0000000000 0.6637116918 0.4497214071 219.1242069764 0.0000000000 0.0000000000
-0.6442904659 0.3839137866 0.0000000000 0.6338651553 0.4294192230 247.3163521462 0.0000000000 0.0000000000
-0.6596053135 0.3569605446 0.0000000000 0.6052560330 0.4068117289 274.3923972250 0.0000000000 0.0000000000
-0.6737932365 0.3293974414 0.0000000000 0.5780864922 0.3819923905 300.1506191863 0.0000000000 0.0000000000
-0.6868299951 0.3012715682 0.0000000000 0.5525496874 0.3550731632 324.3978417946 0.0000000000 0.0000000000
-0.6986933161 0.2726309777 0.0000000000 0.5288280839 0.3261835676 346.9512337385 0.0000000000 0.0000000000
-0.7093629314 0.2435246016 0.0000000000 0.5070918839 0.2954696043 367.6399873821 0.0000000000 0.0000000000
-0.7188206119 0.2140021679 0.0000000000 0.4874975670 0.2630925224 386.3068678852 0.0000000000 0.0000000000
-0.7270501995 0.1841141151 0.0000000000 0.4701865593 0.2292274547 402.8096236158 0.0000000000 0.0000000000
-0.7340376341 0.1539115064 0.0000000000 0.4552840356 0.1940619334 417.0222492958 0.0000000000 0.0000000000
-0.7397709776 0.1234459424 0.0000000000 0.4428978617 0.1577943007 428.8360937550 0.0000000000 0.0000000000
-0.7442404348 0.0927694732 0.0000000000 0.4331176773 0.1206320305 438.1608047236 0.0000000000 0.0000000000
-0.7474383698 0.0619345088 0.0000000000 0.4260141234 0.0827899787 444.9251038283 0.0000000000 0.0000000000
-0.7493593188 0.0309937304 0.0000000000 0.4216382202 0.0444885846 449.0773873753 0.0000000000 0.0000000000
-0.7500000000 -0.0000000003 0.0000000000 0.4200209075 0.0059520417 450.5861521270 0.0000000000 0.0000000000
-0.7493593188 -0.0309937310 0.0000000000 0.4211727668 -0.0325935455 449.4402509045 0.0000000000 0.0000000000
-0.7474383697 -0.0619345094 0.0000000000 0.4250839383 -0.0709220120 445.6489825238 0.0000000000 0.0000000000
-0.7442404348 -0.0927694738 0.0000000000 0.4317242384 -0.1088089846 439.2420169381 0.0000000000 0.0000000000
-0.7397709775 -0.1234459430 0.0000000000 0.4410434674 -0.1460337340 430.2691519036 0.0000000000 0.0000000000
-0.7340376339 -0.1539115070 0.0000000000 0.4529718899 -0.1823810148 418.7998932582 0.0000000000 0.0000000000
-0.7270501994 -0.1841141157 0.0000000000 0.4674208676 -0.2176428760 404.9228539418 0.0000000000 0.0000000000
-0.7188206117 -0.2140021685 0.0000000000 0.4842836300 -0.2516204209 388.7449721251 0.0000000000 0.0000000000