 TITLE = "Tecplot data"
 VARIABLES = "X", "Y", "Z" "U", "V", "p", "dispX", "dispY"
 ZONE SOLUTIONTIME=12.900000, NODES=26114 , ELEMENTS=25916, DATAPACKING=POINT, ZONETYPE=FEQUADRILATERAL
0.3931314022 0.3535695622 0.0000000000 0.0000000000 0.0000000000 -243.7513433102 0.0395780116 0.0000161715
0.3931314024 -0.3535372188 0.0000000000 0.0000000000 0.0000000000 -244.0849044007 0.0395780116 0.0000161715
-0.3139753791 0.3535695620 0.0000000000 0.0000000000 0.0000000000 -92.3813895249 0.0395780116 0.0000161715
-0.3139753788 -0.3535372193 0.0000000000 0.0000000000 0.0000000000 -92.3573274317 0.0395780116 0.0000161715
0.5698369298 0.5303394553 0.0000000000 0.0689381884 0.0472498812 -231.4151739446 0.0395068440 0.0000093694
0.5696133976 -0.5303835603 0.0000000000 0.0704643079 -0.0462089082 -231.9745456923 0.0392833114 -0.0000534747
-0.4908305907 0.5303098052 0.0000000000 0.8240966124 0.4749878481 88.8385221429 0.0394994954 -0.0000202805
-0.4908720318 -0.5302324450 0.0000000000 0.8240412832 -0.4746032324 88.8576902789 0.0394580538 0.0000976412
1.0997433990 1.0605348473 0.0000000000 1.2870477031 0.1866410764 -303.8607312257 0.0390832273 -0.0001253246
1.0984294263 -1.0609261538 0.0000000000 1.2841175137 -0.1869113994 -301.6707989346 0.0377692537 -0.0002659828
-1.0215755740 1.0604591269 0.0000000000 0.9242556591 0.1802782561 94.1955142364 0.0390845981 -0.0002010445
-1.0219783511 -1.0602229707 0.0000000000 0.9241111584 -0.1799038771 94.0893019331 0.0386818201 0.0004372016
4.2376143832 3.2988757298 0.0000000000 1.0428886301 -0.0572038867 -35.8288241614 0.0376143832 -0.0011242702
4.2311166131 -3.3029359375 0.0000000000 1.0434245890 0.0572422128 -36.1598381071 0.0311166131 -0.0029359375
20.0000000000 4.7000000000 0.0000000000 0.9995050712 -0.0016739338 0.0040297863 0.0000000000 0.0000000000
20.0000000000 -4.7000000000 0.0000000000 0.9995114591 0.0016779610 0.0044504615 0.0000000000 0.0000000000
-10.0000000000 15.0000000000 0.0000000000 1.0000000000 0.0000000000 7.0575781183 0.0000000000 0.0000000000
20.0000000000 15.0000000000 0.0000000000 1.0008955541 0.0000000000 -0.0001199903 0.0000000000 0.0000000000
20.0000000000 -15.0000000000 0.0000000000 1.0009060028 0.0000000000 0.0001143820 0.0000000000 0.0000000000
-10.0000000000 -15.0000000000 0.0000000000 1.0000000000 0.0000000000 7.0429124985 0.0000000000 0.0000000000
0.4061039478 -0.3400701971 0.0000000000 0.0000000000 0.0000000000 -243.2106841113 0.0395780116 0.0000161715
0.4185638734 -0.3261275339 0.0000000000 0.0000000000 0.0000000000 -242.9562741320 0.0395780116 0.0000161715
0.4304937530 -0.3117287291 0.0000000000 0.0000000000 0.0000000000 -242.7338010597 0.0395780116 0.0000161715
0.4418769017 -0.2968939210 0.0000000000 0.0000000000 0.0000000000 -242.6824253901 0.0395780116 0.0000161715
0.4526973989 -0.2816438572 0.0000000000 0.0000000000 0.0000000000 -242.6066632855 0.0395780116 0.0000161715
0.4629401114 -0.2659998665 0.0000000000 0.0000000000 0.0000000000 -242.4868137565 0.0395780116 0.0000161715
0.4725907136 -0.2499838282 0.0000000000 0.0000000000 0.0000000000 -242.2394516879 0.0395780116 0.0000161715
0.4816357085 -0.2336181423 0.0000000000 0.0000000000 0.0000000000 -241.8285774209 0.0395780116 0.0000161715
0.4900624457 -0.2169256978 0.0000000000 0.0000000000 0.0000000000 -241.2137261400 0.0395780116 0.0000161715
0.4978591396 -0.1999298404 0.0000000000 0.0000000000 0.0000000000 -240.3758254528 0.0395780116 0.0000161715
0.5050148860 -0.1826543404 0.0000000000 0.0000000000 0.0000000000 -239.3082928521 0.0395780116 0.0000161715
0.5115196768 -0.1651233592 0.0000000000 0.0000000000 0.0000000000 -238.0249635078 0.0395780116 0.0000161715
0.5173644146 -0.1473614154 0.0000000000 0.0000000000 0.0000000000 -236.5593143781 0.0395780116 0.0000161715
0.5225409248 -0.1293933508 0.0000000000 0.0000000000 0.0000000000 -234.9657722008 0.0395780116 0.0000161715
0.5270419677 -0.1112442952 0.0000000000 0.0000000000 0.0000000000 -233.3170645147 0.0395780116 0.0000161715
0.5308612483 -0.0929396318 0.0000000000 0.0000000000 0.0000000000 -231.7000737566 0.0395780116 0.0000161715
0.5339934247 -0.0745049613 0.0000000000 0.0000000000 0.0000000000 -230.2091463328 0.0395780116 0.0000161715
0.5364341166 -0.0559660663 0.0000000000 0.0000000000 0.0000000000 -228.9380677199 0.0395780116 0.0000161715
0.5381799102 -0.0373488751 0.0000000000 0.0000000000 0.0000000000 -227.9712890431 0.0395780116 0.0000161715
0.5392283640 -0.0186794254 0.0000000000 0.0000000000 0.0000000000 -227.3756195593 0.0395780116 0.0000161715
0.5395780116 0.0000161717 0.0000000000 0.0000000000 0.0000000000 -227.1933707124 0.0395780116 0.0000161715
0.5392283640 0.0187117689 0.0000000000 0.0000000000 0.0000000000 -227.4379188433 0.0395780116 0.0000161715
0.5381799102 0.0373812185 0.0000000000 0.0000000000 0.0000000000 -228.0922392839 0.0395780116 0.0000161715
0.5364341165 0.0559984098 0.0000000000 0.0000000000 0.0000000000 -229.1106875854 0.0395780116 0.0000161715
0.5339934247 0.0745373048 0.0000000000 0.0000000000 0.0000000000 -230.4236669731 0.0395780116 0.0000161715
0.5308612482 0.0929719753 0.0000000000 0.0000000000 0.0000000000 -231.9447698463 0.0395780116 0.0000161715
0.5270419677 0.1112766387 0.0000000000 0.0000000000 0.0000000000 -233.5790504404 0.0395780116 0.0000161715
0.5225409247 0.1294256942 0.0000000000 0.0000000000 0.0000000000 -235.2320968403 0.0395780116 0.0000161715
0.5173644144 0.1473937589 0.0000000000 0.0000000000 0.0000000000 -236.8174755349 0.0395780116 0.0000161715
0.5115196767 0.1651557026 0.0000000000 0.0000000000 0.0000000000 -238.2641572149 0.0395780116 0.0000161715
0.5050148859 0.1826866838 0.0000000000 0.0000000000 0.0000000000 -239.5188497770 0.0395780116 0.0000161715
0.4978591395 0.1999621838 0.0000000000 0.0000000000 0.0000000000 -240.5511765473 0.0395780116 0.0000161715
0.4900624455 0.2169580412 0.0000000000 0.0000000000 0.0000000000 -241.3472948773 0.0395780116 0.0000161715
0.4816357083 0.2336504858 0.0000000000 0.0000000000 0.0000000000 -241.9187247760 0.0395780116 0.0000161715
0.4725907134 0.2500161716 0.0000000000 0.0000000000 0.0000000000 -242.2804435045 0.0395780116 0.0000161715
0.4629401112 0.2660322099 0.0000000000 0.0000000000 0.0000000000 -242.4825430836 0.0395780116 0.0000161715
0.4526973987 0.2816762006 0.0000000000 0.0000000000 0.0000000000 -242.5483479217 0.0395780116 0.0000161715
0.4418769014 0.2969262644 0.0000000000 0.0000000000 0.0000000000 -242.5810383624 0.0395780116 0.0000161715
0.4304937528 0.3117610725 0.0000000000 0.0000000000 0.0000000000 -242.5770845748 0.0395780116 0.0000161715
0.4185638731 0.3261598772 0.0000000000 0.0000000000 0.0000000000 -242.7542412670 0.0395780116 0.0000161715
0.4061039475 0.3401025404 0.0000000000 0.0000000000 0.0000000000 -242.9812459075 0.0395780116 0.0000161715
0.3782187974 0.3678781269 0.0000000000 0.0000000000 0.0000000000 -244.7131238855 0.0395780116 0.0000161715
0.3627276305 0.3815582057 0.0000000000 0.0000000000 0.0000000000 -246.5411624905 0.0395780116 0.0000161715
0.3466843679 0.3945864263 0.0000000000 0.0000000000 0.0000000000 -248.8677744700 0.0395780116 0.0000161715
0.3301164192 0.4069405302 0.0000000000 0.0000000000 0.0000000000 -251.9796320357 0.0395780116 0.0000161715
0.3130520906 0.4185994107 0.0000000000 0.0000000000 0.0000000000 -255.7351256848 0.0395780116 0.0000161715
0.2955205361 0.4295431487 0.0000000000 0.0000000000 0.0000000000 -260.2236019483 0.0395780116 0.0000161715
0.2775517081 0.4397530472 0.0000000000 0.0000000000 0.0000000000 -265.4199638092 0.0395780116 0.0000161715
0.2591763060 0.4492116625 0.0000000000 0.0000000000 0.0000000000 -271.4061436691 0.0395780116 0.0000161715
0.2404257239 0.4579028349 0.0000000000 0.0000000000 0.0000000000 -278.2478698036 0.0395780116 0.0000161715
0.2213319968 0.4658117156 0.0000000000 0.0000000000 0.0000000000 -286.0468286170 0.0395780116 0.0000161715
0.2019277461 0.4729247924 0.0000000000 0.0000000000 0.0000000000 -294.8821218368 0.0395780116 0.0000161715
0.1822461236 0.4792299128 0.0000000000 0.0000000000 0.0000000000 -304.8129712151 0.0395780116 0.0000161715
0.1623207551 0.4847163045 0.0000000000 0.0000000000 0.0000000000 -315.8517587973 0.0395780116 0.0000161715
0.1421856826 0.4893745942 0.0000000000 0.0000000000 0.0000000000 -327.9585287796 0.0395780116 0.0000161715
0.1218753066 0.4931968232 0.0000000000 0.0000000000 0.0000000000 -341.0266392740 0.0395780116 0.0000161715
0.1014243271 0.4961764614 0.0000000000 0.0000000000 0.0000000000 -354.8758338455 0.0395780116 0.0000161715
0.0808676842 0.4983084180 0.0000000000 0.0000000000 0.0000000000 -369.2452661963 0.0395780116 0.0000161715
0.0602404986 0.4995890507 0.0000000000 0.0000000000 0.0000000000 -383.7930306935 0.0395780116 0.0000161715
0.0395780115 0.5000161715 0.0000000000 0.0000000000 0.0000000000 -398.1007904701 0.0395780116 0.0000161715
0.0189155244 0.4995890507 0.0000000000 0.0000000000 0.0000000000 -411.6853027745 0.0395780116 0.0000161715
-0.0017116612 0.4983084180 0.0000000000 0.0000000000 0.0000000000 -424.0155338449 0.0395780116 0.0000161715
-0.0222683041 0.4961764614 0.0000000000 0.0000000000 0.0000000000 -434.5343981964 0.0395780116 0.0000161715
-0.0427192837 0.4931968232 0.0000000000 0.0000000000 0.0000000000 -442.6829816586 0.0395780116 0.0000161715
-0.0630296596 0.4893745942 0.0000000000 0.0000000000 0.0000000000 -447.9251888712 0.0395780116 0.0000161715
-0.0831647321 0.4847163045 0.0000000000 0.0000000000 0.0000000000 -449.7707053643 0.0395780116 0.0000161715
-0.1030901006 0.4792299127 0.0000000000 0.0000000000 0.0000000000 -447.7946437507 0.0395780116 0.0000161715
-0.1227717231 0.4729247923 0.0000000000 0.0000000000 0.0000000000 -441.6527716330 0.0395780116 0.0000161715
-0.1421759738 0.4658117155 0.0000000000 0.0000000000 0.0000000000 -431.0918507957 0.0395780116 0.0000161715
-0.1612697008 0.4579028348 0.0000000000 0.0000000000 0.0000000000 -415.9551533770 0.0395780116 0.0000161715
-0.1800202829 0.4492116624 0.0000000000 0.0000000000 0.0000000000 -396.1836359673 0.0395780116 0.0000161715
-0.1983956850 0.4397530471 0.0000000000 0.0000000000 0.0000000000 -371.8135000822 0.0395780116 0.0000161715
-0.2163645131 0.4295431486 0.0000000000 0.0000000000 0.0000000000 -342.9709663483 0.0395780116 0.0000161715
-0.2338960676 0.4185994106 0.0000000000 0.0000000000 0.0000000000 -309.8650664388 0.0395780116 0.0000161715
-0.2509603962 0.4069405301 0.0000000000 0.0000000000 0.0000000000 -272.7791538635 0.0395780116 0.0000161715
-0.2675283449 0.3945864261 0.0000000000 0.0000000000 0.0000000000 -232.0616920865 0.0395780116 0.0000161715
-0.2835716074 0.3815582055 0.0000000000 0.0000000000 0.0000000000 -188.1167323921 0.0395780116 0.0000161715
-0.2990627743 0.3678781268 0.0000000000 0.0000000000 0.0000000000 -141.3943710204 0.0395780116 0.0000161715
-0.3282839438 0.3386569572 0.0000000000 0.0000000000 0.0000000000 -41.5922333455 0.0395780116 0.0000161715
-0.3419640226 0.3231657903 0.0000000000 0.0000000000 0.0000000000 10.4395425737 0.0395780116 0.0000161715
-0.3549922432 0.3071225277 0.0000000000 0.0000000000 0.0000000000 63.1692549176 0.0395780116 0.0000161715
-0.3673463471 0.2905545791 0.0000000000 0.0000000000 0.0000000000 116.0484270233 0.0395780116 0.0000161715
-0.3790052276 0.2734902504 0.0000000000 0.0000000000 0.0000000000 168.5314508601 0.0395780116 0.0000161715
-0.3899489657 0.2559586959 0.0000000000 0.0000000000 0.0000000000 220.0815976494 0.0395780116 0.0000161715
-0.4001588641 0.2379898679 0.0000000000 0.0000000000 0.0000000000 270.1764363838 0.0395780116 0.0000161715
-0.4096174794 0.2196144658 0.0000000000 0.0000000000 0.0000000000 318.3127370411 0.0395780116 0.0000161715
-0.4183086518 0.2008638837 0.0000000000 0.0000000000 0.0000000000 364.0109325010 0.0395780116 0.0000161715
-0.4262175325 0.1817701566 0.0000000000 0.0000000000 0.0000000000 406.8191966213 0.0395780116 0.0000161715
-0.4333306093 0.1623659060 0.0000000000 0.0000000000 0.0000000000 446.3171743093 0.0395780116 0.0000161715
-0.4396357297 0.1426842835 0.0000000000 0.0000000000 0.0000000000 482.1193796822 0.0395780116 0.0000161715
-0.4451221214 0.1227589149 0.0000000000 0.0000000000 0.0000000000 513.8782641564 0.0395780116 0.0000161715
-0.4497804111 0.1026238424 0.0000000000 0.0000000000 0.0000000000 541.2869482003 0.0395780116 0.0000161715
-0.4536026401 0.0823134665 0.0000000000 0.0000000000 0.0000000000 564.0816074856 0.0395780116 0.0000161715
-0.4565822783 0.0618624870 0.0000000000 0.0000000000 0.0000000000 582.0435045828 0.0395780116 0.0000161715
-0.4587142349 0.0413058441 0.0000000000 0.0000000000 0.0000000000 595.0006595598 0.0395780116 0.0000161715
-0.4599948676 0.0206786584 0.0000000000 0.0000000000 0.0000000000 602.8291555746 0.0395780116 0.0000161715
-0.4604219884 0.0000161713 0.0000000000 0.0000000000 0.0000000000 605.4540779320 0.0395780116 0.0000161715
-0.4599948676 -0.0206463158 0.0000000000 0.0000000000 0.0000000000 602.8500866179 0.0395780116 0.0000161715
-0.4587142349 -0.0412735014 0.0000000000 0.0000000000 0.0000000000 595.0416229111 0.0395780116 0.0000161715
-0.4565822782 -0.0618301443 0.0000000000 0.0000000000 0.0000000000 582.1027504506 0.0395780116 0.0000161715
-0.4536026401 -0.0822811238 0.0000000000 0.0000000000 0.0000000000 564.1566304547 0.0395780116 0.0000161715
-0.4497804110 -0.1025914998 0.0000000000 0.0000000000 0.0000000000 541.3746299943 0.0395780116 0.0000161715
-0.4451221213 -0.1227265723 0.0000000000 0.0000000000 0.0000000000 513.9750617452 0.0395780116 0.0000161715
-0.4396357296 -0.1426519408 0.0000000000 0.0000000000 0.0000000000 482.2215536086 0.0395780116 0.0000161715
-0.4333306092 -0.1623335633 0.0000000000 0.0000000000 0.0000000000 446.4210469864 0.0395780116 0.0000161715
-0.4262175323 -0.1817378140 0.0000000000 0.0000000000 0.0000000000 406.9214229889 0.0395780116 0.0000161715
-0.4183086516 -0.2008315410 0.0000000000 0.0000000000 0.0000000000 364.1087561549 0.0395780116 0.0000161715
-0.4096174792 -0.2195821231 0.0000000000 0.0000000000 0.0000000000 318.4041947592 0.0395780116 0.0000161715
-0.4001588639 -0.2379575252 0.0000000000 0.0000000000 0.0000000000 270.2604655540 0.0395780116 0.0000161715
-0.3899489655 -0.2559263532 0.0000000000 0.0000000000 0.0000000000 220.1579979030 0.0395780116 0.0000161715
-0.3790052274 -0.2734579077 0.0000000000 0.0000000000 0.0000000000 168.6006592076 0.0395780116 0.0000161715
-0.3673463469 -0.2905222364 0.0000000000 0.0000000000 0.0000000000 116.1110876867 0.0395780116 0.0000161715
-0.3549922429 -0.3070901850 0.0000000000 0.0000000000 0.0000000000 63.2256056120 0.0395780116 0.0000161715
-0.3419640223 -0.3231334476 0.0000000000 0.0000000000 0.0000000000 10.4886866291 0.0395780116 0.0000161715
-0.3282839436 -0.3386246145 0.0000000000 0.0000000000 0.0000000000 -41.5530456596 0.0395780116 0.0000161715
-0.2990627740 -0.3678457840 0.0000000000 0.0000000000 0.0000000000 -141.3932862007 0.0395780116 0.0000161715
-0.2835716071 -0.3815258627 0.0000000000 0.0000000000 0.0000000000 -188.1490391668 0.0395780116 0.0000161715
-0.2675283445 -0.3945540833 0.0000000000 0.0000000000 0.0000000000 -232.1398351034 0.0395780116 0.0000161715
-0.2509603959 -0.4069081873 0.0000000000 0.0000000000 0.0000000000 -272.9167464567 0.0395780116 0.0000161715
-0.2338960672 -0.4185670678 0.0000000000 0.0000000000 0.0000000000 -310.0758210923 0.0395780116 0.0000161715
-0.2163645127 -0.4295108058 0.0000000000 0.0000000000 0.0000000000 -343.2675780841 0.0395780116 0.0000161715
-0.1983956847 -0.4397207042 0.0000000000 0.0000000000 0.0000000000 -372.2066185458 0.0395780116 0.0000161715
-0.1800202826 -0.4491793195 0.0000000000 0.0000000000 0.0000000000 -396.6810280270 0.0395780116 0.0000161715
-0.1612697005 -0.4578704919 0.0000000000 0.0000000000 0.0000000000 -416.5611069955 0.0395780116 0.0000161715
-0.1421759734 -0.4657793726 0.0000000000 0.0000000000 0.0000000000 -431.8068332054 0.0395780116 0.0000161715
-0.1227717227 -0.4728924494 0.0000000000 0.0000000000 0.0000000000 -442.4733275570 0.0395780116 0.0000161715
-0.1030901002 -0.4791975698 0.0000000000 0.0000000000 0.0000000000 -448.7135079438 0.0395780116 0.0000161715
-0.0831647317 -0.4846839615 0.0000000000 0.0000000000 0.0000000000 -450.7771007142 0.0395780116 0.0000161715
-0.0630296592 -0.4893422512 0.0000000000 0.0000000000 0.0000000000 -449.0052823283 0.0395780116 0.0000161715
-0.0427192832 -0.4931644802 0.0000000000 0.0000000000 0.0000000000 -443.8204729086 0.0395780116 0.0000161715
-0.0222683037 -0.4961441184 0.0000000000 0.0000000000 0.0000000000 -435.7112132349 0.0395780116 0.0000161715
-0.0017116608 -0.4982760750 0.0000000000 0.0000000000 0.0000000000 -425.2125997738 0.0395780116 0.0000161715
0.0189155248 -0.4995567077 0.0000000000 0.0000000000 0.0000000000 -412.8833655638 0.0395780116 0.0000161715
0.0395780119 -0.4999838285 0.0000000000 0.0000000000 0.0000000000 -399.2812593935 0.0395780116 0.0000161715
0.0602404990 -0.4995567077 0.0000000000 0.0000000000 0.0000000000 -384.9387804309 0.0395780116 0.0000161715
0.0808676846 -0.4982760750 0.0000000000 0.0000000000 0.0000000000 -370.3414198150 0.0395780116 0.0000161715
0.1014243275 -0.4961441183 0.0000000000 0.0000000000 0.0000000000 -355.9103562281 0.0395780116 0.0000161715
0.1218753071 -0.4931644801 0.0000000000 0.0000000000 0.0000000000 -341.9909234810 0.0395780116 0.0000161715
0.1421856830 -0.4893422511 0.0000000000 0.0000000000 0.0000000000 -328.8474889301 0.0395780116 0.0000161715
0.1623207555 -0.4846839614 0.0000000000 0.0000000000 0.0000000000 -316.6642123784 0.0395780116 0.0000161715
0.1822461240 -0.4791975696 0.0000000000 0.0000000000 0.0000000000 -305.5508511180 0.0395780116 0.0000161715
0.2019277465 -0.4728924492 0.0000000000 0.0000000000 0.0000000000 -295.5512414395 0.0395780116 0.0000161715
0.2213319972 -0.4657793724 0.0000000000 0.0000000000 0.0000000000 -286.6544936442 0.0395780116 0.0000161715
0.2404257242 -0.4578704917 0.0000000000 0.0000000000 0.0000000000 -278.8055080014 0.0395780116 0.0000161715
0.2591763063 -0.4491793193 0.0000000000 0.0000000000 0.0000000000 -271.9223021709 0.0395780116 0.0000161715
0.2775517084 -0.4397207039 0.0000000000 0.0000000000 0.0000000000 -265.9079945006 0.0395780116 0.0000161715
0.2955205364 -0.4295108055 0.0000000000 0.0000000000 0.0000000000 -260.6840835091 0.0395780116 0.0000161715
0.3130520909 -0.4185670674 0.0000000000 0.0000000000 0.0000000000 -256.1790086604 0.0395780116 0.0000161715
0.3301164196 -0.4069081869 0.0000000000 0.0000000000 0.0000000000 -252.3927427894 0.0395780116 0.0000161715
0.3466843682 -0.3945540830 0.0000000000 0.0000000000 0.0000000000 -249.2593441274 0.0395780116 0.0000161715
0.3627276308 -0.3815258623 0.0000000000 0.0000000000 0.0000000000 -246.8979479749 0.0395780116 0.0000161715
0.3782187977 -0.3678457836 0.0000000000 0.0000000000 0.0000000000 -245.0121731367 0.0395780116 0.0000161715
0.5890876645 -0.5101864006 0.0000000000 0.0479409648 -0.0599874689 -232.6193336757 0.0392987603 -0.0000568476
0.6077928803 -0.4892751967 0.0000000000 0.0349144357 -0.0775711119 -233.8094577575 0.0393140876 -0.0000596387
0.6257027892 -0.4676792425 0.0000000000 0.0276151207 -0.0971002822 -235.4939199719 0.0393291771 -0.0000618915
0.6427922502 -0.4454287770 0.0000000000 0.0226508869 -0.1166635062 -237.5359618028 0.0393439151 -0.0000636382
0.6590372788 -0.4225549523 0.0000000000 0.0175469095 -0.1346264648 -239.7866462978 0.0393581978 -0.0000649091
0.6744150847 -0.3990897914 0.0000000000 0.0108320296 -0.1497923064 -242.0959409340 0.0393719350 -0.0000657344
0.6889041062 -0.3750661441 0.0000000000 0.0018464094 -0.1614096579 -244.3161153766 0.0393850532 -0.0000661445
0.7024840416 -0.3505176401 0.0000000000 -0.0095219565 -0.1691038213 -246.3082384339 0.0393974962 -0.0000661693
0.7151358771 -0.3254786423 0.0000000000 -0.0230525079 -0.1727862394 -247.9530717798 0.0394092260 -0.0000658384
0.7268419132 -0.2999841977 0.0000000000 -0.0383351041 -0.1725660462 -249.1624606372 0.0394202211 -0.0000651799
0.7375857866 -0.2740699885 0.0000000000 -0.0548584103 -0.1686730956 -249.8874646464 0.0394304749 -0.0000642207
0.7473524912 -0.2477722818 0.0000000000 -0.0720643566 -0.1613984362 -250.1217404951 0.0394399933 -0.0000629857
0.7561283965 -0.2211278786 0.0000000000 -0.0893820348 -0.1510554423 -249.9003915492 0.0394487920 -0.0000614982
0.7639012638 -0.1941740632 0.0000000000 -0.1062492337 -0.1379604093 -249.2951618191 0.0394568940 -0.0000597797
0.7706602617 -0.1669485505 0.0000000000 -0.1221273252 -0.1224276932 -248.4068890887 0.0394643275 -0.0000578504
0.7763959791 -0.1394894341 0.0000000000 -0.1365135027 -0.1047731142 -247.3559756961 0.0394711241 -0.0000557291
0.7811004369 -0.1118351331 0.0000000000 -0.1489526769 -0.0853201412 -246.2715319874 0.0394773172 -0.0000534338
0.7847670982 -0.0840243388 0.0000000000 -0.1590497837 -0.0644051759 -245.2798778189 0.0394829408 -0.0000509821
0.7873908763 -0.0560959609 0.0000000000 -0.1664821139 -0.0423800869 -244.4932147119 0.0394880284 -0.0000483910
0.7889681412 -0.0280890733 0.0000000000 -0.1710106369 -0.0196115145 -243.9994089145 0.0394926126 -0.0000456779
0.7894967241 -0.0000428600 0.0000000000 -0.1724890999 0.0035226713 -243.8538561930 0.0394967241 -0.0000428603
0.7889759202 0.0280034401 0.0000000000 -0.1708698436 0.0266389207 -244.0742757141 0.0395003916 -0.0000399559
0.7874064894 0.0560105873 0.0000000000 -0.1662056447 0.0493545154 -244.6390028749 0.0395036416 -0.0000369832
0.7847906554 0.0839393965 0.0000000000 -0.1586473824 0.0712939220 -245.4889681855 0.0395064980 -0.0000339608
0.7811321022 0.1117507920 0.0000000000 -0.1484378464 0.0920938849 -246.5331291774 0.0395089825 -0.0000309079
0.7764359696 0.1394058618 0.0000000000 -0.1359024634 0.1114062646 -247.6567538989 0.0395111147 -0.0000278438
0.7707088462 0.1668659129 0.0000000000 -0.1214380382 0.1288978842 -248.7317055831 0.0395129121 -0.0000247878
0.7639587602 0.1940925248 0.0000000000 -0.1055006867 0.1442471714 -249.6277850617 0.0395143906 -0.0000217592
0.7561951686 0.2210476042 0.0000000000 -0.0885938758 0.1571383009 -250.2242342659 0.0395155644 -0.0000187768
0.7474289441 0.2476934381 0.0000000000 -0.0712568096 0.1672549378 -250.4206203572 0.0395164464 -0.0000158586
0.7376723597 0.2739927466 0.0000000000 -0.0540522885 0.1742774383 -250.1464054251 0.0395170483 -0.0000130219
0.7269390718 0.2999087359 0.0000000000 -0.0375517514 0.1778889420 -249.3684804345 0.0395173800 -0.0000102825
0.7152441011 0.3254051496 0.0000000000 -0.0223137731 0.1777962096 -248.0957998293 0.0395174502 -0.0000076549
0.7026038108 0.3504463195 0.0000000000 -0.0088508807 0.1737693447 -246.3801093287 0.0395172657 -0.0000051519
0.6890358843 0.3749972159 0.0000000000 0.0024228775 0.1657007663 -244.3118825220 0.0395168316 -0.0000027843
0.6745593001 0.3990234963 0.0000000000 0.0112772083 0.1536800746 -242.0114480619 0.0395161508 -0.0000005612
0.6591943051 0.4224915535 0.0000000000 0.0178070190 0.1380803178 -239.6173818404 0.0395152245 0.0000015098
0.6429623870 0.4453685619 0.0000000000 0.0226528680 0.1196495918 -237.2768502412 0.0395140523 0.0000034226
0.6258862441 0.4676225230 0.0000000000 0.0272788210 0.0995868415 -235.1420932359 0.0395126323 0.0000051715
0.6079897540 0.4892223094 0.0000000000 0.0341797683 0.0795438069 -233.3694673758 0.0395109617 0.0000067509
0.5892979394 0.5101377070 0.0000000000 0.0467914735 0.0614675191 -232.1034109682 0.0395090356 0.0000081536
0.5474657335 0.5518042461 0.0000000000 0.1087073730 0.0377499360 -231.4815026232 0.0395045549 0.0000113131
0.5242263633 0.5723260183 0.0000000000 0.1669169279 0.0354699755 -232.1901977459 0.0395019349 0.0000129670
0.5001585605 0.5918697470 0.0000000000 0.2437275804 0.0401310740 -233.3881578877 0.0394990261 0.0000143649
0.4753034748 0.6104020618 0.0000000000 0.3370911297 0.0508953095 -234.9203602164 0.0394958634 0.0000155238
0.4497036005 0.6278913141 0.0000000000 0.4432607756 0.0668377266 -236.7181420405 0.0394924819 0.0000164554
0.4234027056 0.6443076341 0.0000000000 0.5571829821 0.0870580096 -238.7849464164 0.0394889188 0.0000171683
0.3964457589 0.6596229820 0.0000000000 0.6728763362 0.1105297496 -241.1349440906 0.0394852142 0.0000176685
0.3688788534 0.6738111966 0.0000000000 0.7840876685 0.1359802167 -243.7287724828 0.0394814119 0.0000179601
0.3407491273 0.6868480406 0.0000000000 0.8852214534 0.1619717443 -246.4462785806 0.0394775589 0.0000180456
0.3121046830 0.6987112431 0.0000000000 0.9722141770 0.1871389981 -249.1080830310 0.0394737051 0.0000179270
0.2829945040 0.7093805375 0.0000000000 1.0430082841 0.2104357135 -251.5221937863 0.0394699022 0.0000176062
0.2534683707 0.7188376979 0.0000000000 1.0975071294 0.2312776876 -253.5229155953 0.0394662026 0.0000170860
0.2235767736 0.7270665699 0.0000000000 1.1371274829 0.2495503260 -254.9869471214 0.0394626584 0.0000163704
0.1933708267 0.7340530990 0.0000000000 1.1641730767 0.2655113721 -255.8294516127 0.0394593202 0.0000154650
0.1629021793 0.7397853547 0.0000000000 1.1812353549 0.2796440251 -255.9891344337 0.0394562367 0.0000143771
0.1322229268 0.7442535511 0.0000000000 1.1907475032 0.2925113676 -255.4106332327 0.0394534535 0.0000131162
0.1013855216 0.7474500631 0.0000000000 1.1947305156 0.3046443875 -254.0300540754 0.0394510126 0.0000116933
0.0704426827 0.7493694397 0.0000000000 1.1947069830 0.3164748630 -251.7667442997 0.0394489522 0.0000101209
0.0394473057 0.7500084132 0.0000000000 1.1917287727 0.3283086441 -248.5217857217 0.0394473058 0.0000084132
0.0084523714 0.7493659041 0.0000000000 1.1864629306 0.3403271969 -244.1817967941 0.0394461022 0.0000065853
-0.0224891443 0.7474430236 0.0000000000 1.1792936180 0.3526044491 -238.6258146233 0.0394453650 0.0000046538
-0.0533243612 0.7442430713 0.0000000000 1.1704152438 0.3651289487 -231.7331574452 0.0394451124 0.0000026365
-0.0840005857 0.7397715300 0.0000000000 1.1599063374 0.3778253236 -223.3908064514 0.0394453572 0.0000005525
-0.1144654006 0.7340360567 0.0000000000 1.1477828237 0.3905723449 -213.4995602163 0.0394461062 -0.0000015772
-0.1446667548 0.7270464696 0.0000000000 1.1340337850 0.4032170228 -201.9787547811 0.0394473607 -0.0000037299
-0.1745530525 0.7188147313 0.0000000000 1.1186440912 0.4155852170 -188.7696452538 0.0394491159 -0.0000058805
-0.2040732411 0.7093549294 0.0000000000 1.1016079621 0.4274895900 -173.8376586628 0.0394513610 -0.0000080019
-0.2331768987 0.6986832513 0.0000000000 1.0829366121 0.4387356971 -157.1737321177 0.0394540794 -0.0000100646
-0.2618143204 0.6868179576 0.0000000000 1.0626621796 0.4491268327 -138.7949105916 0.0394572483 -0.0000120373
-0.2899366029 0.6737793495 0.0000000000 1.0408393685 0.4584680542 -118.7443334079 0.0394608389 -0.0000138869
-0.3174957283 0.6595897344 0.0000000000 1.0175456859 0.4665696438 -97.0907038815 0.0394648167 -0.0000155789
-0.3444446459 0.6442733870 0.0000000000 0.9928807994 0.4732501545 -73.9273152410 0.0394691411 -0.0000170787
-0.3707373525 0.6278565065 0.0000000000 0.9669653279 0.4783391123 -49.3706949327 0.0394737663 -0.0000183521
-0.3963289703 0.6103671717 0.0000000000 0.9399392474 0.4816794056 -23.5589244113 0.0394786415 -0.0000193662
-0.4211758234 0.5918352914 0.0000000000 0.9119600284 0.4831293723 3.3503108654 0.0394837113 -0.0000200905
-0.4452355112 0.5722925529 0.0000000000 0.8832005817 0.4825645857 31.1818886060 0.0394889173 -0.0000204981
-0.4684669802 0.5517723662 0.0000000000 0.8538470678 0.4798793412 59.7455834188 0.0394941987 -0.0000205666
-0.5122881987 0.5079415723 0.0000000000 0.7941549832 0.4678251029 118.2477117908 0.0395047345 -0.0000196063
-0.5328031839 0.4847058710 0.0000000000 0.7642341911 0.4583475739 147.7526117477 0.0395098674 -0.0000185572
-0.5523405465 0.4606424064 0.0000000000 0.7345501635 0.4465334876 177.1277077482 0.0395148357 -0.0000171279
-0.5708669508 0.4357922903 0.0000000000 0.7053204020 0.4323829597 206.1450536739 0.0395195873 -0.0000153211
-0.5883507821 0.4101979735 0.0000000000 0.6767617046 0.4159178633 234.5767619673 0.0395240768 -0.0000131449
-0.6047622004 0.3839031740 0.0000000000 0.6490879634 0.3971814849 262.1974148268 0.0395282655 -0.0000106126
-0.6200731911 0.3569528032 0.0000000000 0.6225080554 0.3762379804 288.7863784836 0.0395321224 -0.0000077414
-0.6342576128 0.3293928890 0.0000000000 0.5972238436 0.3531716485 314.1300060312 0.0395356238 -0.0000045524
-0.6472912424 0.3012704982 0.0000000000 0.5734282966 0.3280860314 338.0237175297 0.0395387527 -0.0000010701
-0.6591518176 0.2726336565 0.0000000000 0.5513037387 0.3011028590 360.2739478327 0.0395414985 0.0000026788
-0.6698190759 0.2435312667 0.0000000000 0.5310202394 0.2723608506 380.6999533101 0.0395438555 0.0000066651
-0.6792747899 0.2140130258 0.0000000000 0.5127341551 0.2420143882 399.1354696054 0.0395458220 0.0000108578
-0.6875028004 0.1841293399 0.0000000000 0.4965868366 0.2102320725 415.4302145418 0.0395473991 0.0000152248
-0.6944890444 0.1539312390 0.0000000000 0.4827035011 0.1771951632 429.4512317415 0.0395485897 0.0000197326
-0.7002215799 0.1234702895 0.0000000000 0.4711922431 0.1430959015 441.0840681373 0.0395493977 0.0000243471
-0.7046906076 0.0927985068 0.0000000000 0.4621431350 0.1081357259 450.2337713420 0.0395498273 0.0000290336
-0.7078884872 0.0619682664 0.0000000000 0.4556273787 0.0725234133 456.8256877293 0.0395498825 0.0000337576
-0.7098097517 0.0310322148 0.0000000000 0.4516965165 0.0364732009 460.8060507689 0.0395495671 0.0000384844
-0.7104511163 0.0000431798 0.0000000000 0.4503817764 0.0002029346 462.1423710139 0.0395488837 0.0000431801
-0.7098114846 -0.0309459192 0.0000000000 0.4516936457 -0.0360677478 460.8236602522 0.0395478341 0.0000478118
-0.7078919505 -0.0618821615 0.0000000000 0.4556216991 -0.0721192077 456.8605029227 0.0395464192 0.0000523479
-0.7046957963 -0.0927127151 0.0000000000 0.4621347093 -0.1077335841 450.2849844586 0.0395446385 0.0000567587
-0.7002284875 -0.1233849263 0.0000000000 0.4711810747 -0.1426965902 441.1504827692 0.0395424900 0.0000610167
-0.6944976636 -0.1538464097 0.0000000000 0.4826894841 -0.1767993538 429.5312908889 0.0395399703 0.0000650973
-0.6875131248 -0.1840451368 0.0000000000 0.4965697311 -0.2098402886 415.5220438126 0.0395370746 0.0000689789
-0.6792868159 -0.2139295251 0.0000000000 0.5127136083 -0.2416269540 399.2369346546 0.0395337958 0.0000726434