 TITLE = "Tecplot data"
 VARIABLES = "X", "Y", "Z" "U", "V", "p", "dispX", "dispY"
 ZONE SOLUTIONTIME=80.900000, NODES=26114 , ELEMENTS=25916, DATAPACKING=POINT, ZONETYPE=FEQUADRILATERAL
0.5186417840 1.3998396062 0.0000000000 0.0000000000 0.0000000000 -2138.9606767119 0.1650883934 1.0462862156
0.5186417843 0.6927328252 0.0000000000 0.0000000000 0.0000000000 -173.6757760314 0.1650883934 1.0462862156
-0.1884649973 1.3998396061 0.0000000000 0.0000000000 0.0000000000 217.9789903325 0.1650883934 1.0462862156
-0.1884649970 0.6927328248 0.0000000000 0.0000000000 0.0000000000 581.0920690477 0.1650883934 1.0462862156
0.6985766283 1.5724919702 0.0000000000 1.0139190338 -0.4287896690 -1022.4451825713 0.1682465425 1.0421618843
0.6890186973 0.5101908559 0.0000000000 0.1307894974 0.2568887490 -170.5993381219 0.1586886110 1.0405209414
-0.3640666678 1.5763223506 0.0000000000 1.1783673927 0.7402531770 333.1764358584 0.1662634182 1.0459922648
-0.3671984867 0.5170126448 0.0000000000 0.2003151540 -0.1198521080 581.2434101733 0.1631315989 1.0473427310
1.2460750492 2.0750255025 0.0000000000 1.0145767669 0.0541576368 -386.5377347532 0.1854148775 1.0143653306
1.1876796213 -0.0512779754 0.0000000000 0.1202799417 0.0006251459 -178.2094802362 0.1270194488 1.0093821956
-0.8889776504 2.1033512826 0.0000000000 1.0394582238 0.3020752809 248.6804310502 0.1716825217 1.0426911111
-0.9107833609 -0.0103861802 0.0000000000 0.5775606514 -0.0974062241 452.6416247176 0.1498768103 1.0502739921
4.4733100696 4.1461541440 0.0000000000 1.1490810276 -0.0876351134 -118.8183392348 0.2733100696 0.8461541440
4.1811077503 -2.4803937463 0.0000000000 1.1849601142 -0.0876229318 -68.5690668098 -0.0188922497 0.8196062537
20.0000000000 4.7000000000 0.0000000000 1.0878779024 0.0454841012 0.5032903958 0.0000000000 0.0000000000
20.0000000000 -4.7000000000 0.0000000000 1.0427531751 -0.0321404483 0.0645692808 0.0000000000 0.0000000000
-10.0000000000 15.0000000000 0.0000000000 1.0000000000 0.0000000000 80.9807070059 0.0000000000 0.0000000000
20.0000000000 15.0000000000 0.0000000000 1.0464492615 0.0000000000 0.0154197817 0.0000000000 0.0000000000
20.0000000000 -15.0000000000 0.0000000000 1.0462361830 0.0000000000 0.0274949677 0.0000000000 0.0000000000
-10.0000000000 -15.0000000000 0.0000000000 1.0000000000 0.0000000000 128.9044846155 0.0000000000 0.0000000000
0.5316143296 0.7061998470 0.0000000000 0.0000000000 0.0000000000 -186.2519448798 0.1650883934 1.0462862156
0.5440742552 0.7201425102 0.0000000000 0.0000000000 0.0000000000 -198.2222348344 0.1650883934 1.0462862156
0.5560041349 0.7345413149 0.0000000000 0.0000000000 0.0000000000 -210.4571110533 0.1650883934 1.0462862156
0.5673872835 0.7493761231 0.0000000000 0.0000000000 0.0000000000 -222.6820450210 0.1650883934 1.0462862156
0.5782077808 0.7646261868 0.0000000000 0.0000000000 0.0000000000 -235.1844288205 0.1650883934 1.0462862156
0.5884504932 0.7802701776 0.0000000000 0.0000000000 0.0000000000 -248.0644205453 0.1650883934 1.0462862156
0.5981010955 0.7962862158 0.0000000000 0.0000000000 0.0000000000 -261.5489985737 0.1650883934 1.0462862156
0.6071460903 0.8126519017 0.0000000000 0.0000000000 0.0000000000 -275.8682124073 0.1650883934 1.0462862156
0.6155728275 0.8293443463 0.0000000000 0.0000000000 0.0000000000 -291.2995382668 0.1650883934 1.0462862156
0.6233695215 0.8463402037 0.0000000000 0.0000000000 0.0000000000 -308.1427991163 0.1650883934 1.0462862156
0.6305252679 0.8636157037 0.0000000000 0.0000000000 0.0000000000 -326.7184804930 0.1650883934 1.0462862156
0.6370300587 0.8811466849 0.0000000000 0.0000000000 0.0000000000 -347.3543627395 0.1650883934 1.0462862156
0.6428747964 0.8989086286 0.0000000000 0.0000000000 0.0000000000 -370.3751563368 0.1650883934 1.0462862156
0.6480513067 0.9168766933 0.0000000000 0.0000000000 0.0000000000 -396.0903818261 0.1650883934 1.0462862156
0.6525523496 0.9350257488 0.0000000000 0.0000000000 0.0000000000 -424.7834114269 0.1650883934 1.0462862156
0.6563716301 0.9533304122 0.0000000000 0.0000000000 0.0000000000 -456.7012998224 0.1650883934 1.0462862156
0.6595038066 0.9717650827 0.0000000000 0.0000000000 0.0000000000 -492.0466651608 0.1650883934 1.0462862156
0.6619444984 0.9903039778 0.0000000000 0.0000000000 0.0000000000 -530.9713659789 0.1650883934 1.0462862156
0.6636902920 1.0089211690 0.0000000000 0.0000000000 0.0000000000 -573.5733403207 0.1650883934 1.0462862156
0.6647387458 1.0275906187 0.0000000000 0.0000000000 0.0000000000 -619.8946563926 0.1650883934 1.0462862156
0.6650883934 1.0462862158 0.0000000000 0.0000000000 0.0000000000 -669.9238149836 0.1650883934 1.0462862156
0.6647387458 1.0649818129 0.0000000000 0.0000000000 0.0000000000 -723.5958794750 0.1650883934 1.0462862156
0.6636902920 1.0836512626 0.0000000000 0.0000000000 0.0000000000 -780.8001008087 0.1650883934 1.0462862156
0.6619444984 1.1022684538 0.0000000000 0.0000000000 0.0000000000 -841.3766705362 0.1650883934 1.0462862156
0.6595038065 1.1208073488 0.0000000000 0.0000000000 0.0000000000 -905.1327676016 0.1650883934 1.0462862156
0.6563716300 1.1392420193 0.0000000000 0.0000000000 0.0000000000 -971.8253635736 0.1650883934 1.0462862156
0.6525523495 1.1575466827 0.0000000000 0.0000000000 0.0000000000 -1041.1993879616 0.1650883934 1.0462862156
0.6480513065 1.1756957383 0.0000000000 0.0000000000 0.0000000000 -1112.9316175757 0.1650883934 1.0462862156
0.6428747963 1.1936638029 0.0000000000 0.0000000000 0.0000000000 -1186.7314327593 0.1650883934 1.0462862156
0.6370300585 1.2114257467 0.0000000000 0.0000000000 0.0000000000 -1262.1796155559 0.1650883934 1.0462862156
0.6305252677 1.2289567279 0.0000000000 0.0000000000 0.0000000000 -1339.0010698892 0.1650883934 1.0462862156
0.6233695213 1.2462322279 0.0000000000 0.0000000000 0.0000000000 -1416.6212507309 0.1650883934 1.0462862156
0.6155728273 1.2632280852 0.0000000000 0.0000000000 0.0000000000 -1494.9006848046 0.1650883934 1.0462862156
0.6071460901 1.2799205298 0.0000000000 0.0000000000 0.0000000000 -1572.9391254359 0.1650883934 1.0462862156
0.5981010953 1.2962862157 0.0000000000 0.0000000000 0.0000000000 -1651.0356419210 0.1650883934 1.0462862156
0.5884504930 1.3123022539 0.0000000000 0.0000000000 0.0000000000 -1727.5004269952 0.1650883934 1.0462862156
0.5782077805 1.3279462447 0.0000000000 0.0000000000 0.0000000000 -1803.8621142392 0.1650883934 1.0462862156
0.5673872833 1.3431963084 0.0000000000 0.0000000000 0.0000000000 -1876.3720705022 0.1650883934 1.0462862156
0.5560041346 1.3580311166 0.0000000000 0.0000000000 0.0000000000 -1949.9775562503 0.1650883934 1.0462862156
0.5440742550 1.3724299213 0.0000000000 0.0000000000 0.0000000000 -2015.1384617546 0.1650883934 1.0462862156
0.5316143293 1.3863725845 0.0000000000 0.0000000000 0.0000000000 -2087.2792288791 0.1650883934 1.0462862156
0.5037291792 1.4141481710 0.0000000000 0.0000000000 0.0000000000 -2208.8140249849 0.1650883934 1.0462862156
0.4882380123 1.4278282497 0.0000000000 0.0000000000 0.0000000000 -2264.2650307723 0.1650883934 1.0462862156
0.4721947497 1.4408564703 0.0000000000 0.0000000000 0.0000000000 -2316.3825257233 0.1650883934 1.0462862156
0.4556268011 1.4532105743 0.0000000000 0.0000000000 0.0000000000 -2360.7380569568 0.1650883934 1.0462862156
0.4385624724 1.4648694548 0.0000000000 0.0000000000 0.0000000000 -2398.1087343542 0.1650883934 1.0462862156
0.4210309179 1.4758131928 0.0000000000 0.0000000000 0.0000000000 -2427.7588247872 0.1650883934 1.0462862156
0.4030620899 1.4860230912 0.0000000000 0.0000000000 0.0000000000 -2449.3191085621 0.1650883934 1.0462862156
0.3846866878 1.4954817066 0.0000000000 0.0000000000 0.0000000000 -2462.5288019208 0.1650883934 1.0462862156
0.3659361057 1.5041728789 0.0000000000 0.0000000000 0.0000000000 -2467.0583635352 0.1650883934 1.0462862156
0.3468423786 1.5120817596 0.0000000000 0.0000000000 0.0000000000 -2462.7489842758 0.1650883934 1.0462862156
0.3274381280 1.5191948365 0.0000000000 0.0000000000 0.0000000000 -2449.4320526014 0.1650883934 1.0462862156
0.3077565055 1.5254999568 0.0000000000 0.0000000000 0.0000000000 -2427.0492951849 0.1650883934 1.0462862156
0.2878311369 1.5309863486 0.0000000000 0.0000000000 0.0000000000 -2395.5851715480 0.1650883934 1.0462862156
0.2676960645 1.5356446383 0.0000000000 0.0000000000 0.0000000000 -2355.1040929177 0.1650883934 1.0462862156
0.2473856885 1.5394668673 0.0000000000 0.0000000000 0.0000000000 -2305.7317356737 0.1650883934 1.0462862156
0.2269347090 1.5424465055 0.0000000000 0.0000000000 0.0000000000 -2247.6625750388 0.1650883934 1.0462862156
0.2063780661 1.5445784621 0.0000000000 0.0000000000 0.0000000000 -2181.1545808359 0.1650883934 1.0462862156
0.1857508805 1.5458590948 0.0000000000 0.0000000000 0.0000000000 -2106.5283423539 0.1650883934 1.0462862156
0.1650883933 1.5462862156 0.0000000000 0.0000000000 0.0000000000 -2024.1637694074 0.1650883934 1.0462862156
0.1444259062 1.5458590948 0.0000000000 0.0000000000 0.0000000000 -1934.4967989681 0.1650883934 1.0462862156
0.1237987206 1.5445784621 0.0000000000 0.0000000000 0.0000000000 -1838.0155459577 0.1650883934 1.0462862156
0.1032420777 1.5424465054 0.0000000000 0.0000000000 0.0000000000 -1735.2559614604 0.1650883934 1.0462862156
0.0827910982 1.5394668673 0.0000000000 0.0000000000 0.0000000000 -1626.7971834513 0.1650883934 1.0462862156
0.0624807222 1.5356446382 0.0000000000 0.0000000000 0.0000000000 -1513.2565307569 0.1650883934 1.0462862156
0.0423456498 1.5309863485 0.0000000000 0.0000000000 0.0000000000 -1395.2842989850 0.1650883934 1.0462862156
0.0224202812 1.5254999568 0.0000000000 0.0000000000 0.0000000000 -1273.5584077885 0.1650883934 1.0462862156
0.0027386587 1.5191948364 0.0000000000 0.0000000000 0.0000000000 -1148.7790239452 0.1650883934 1.0462862156
-0.0166655920 1.5120817596 0.0000000000 0.0000000000 0.0000000000 -1021.6632542915 0.1650883934 1.0462862156
-0.0357593190 1.5041728789 0.0000000000 0.0000000000 0.0000000000 -892.9400049635 0.1650883934 1.0462862156
-0.0545099011 1.4954817065 0.0000000000 0.0000000000 0.0000000000 -763.3450655479 0.1650883934 1.0462862156
-0.0728853032 1.4860230911 0.0000000000 0.0000000000 0.0000000000 -633.6164207099 0.1650883934 1.0462862156
-0.0908541312 1.4758131927 0.0000000000 0.0000000000 0.0000000000 -504.4897067370 0.1650883934 1.0462862156
-0.1083856857 1.4648694546 0.0000000000 0.0000000000 0.0000000000 -376.6936312365 0.1650883934 1.0462862156
-0.1254500144 1.4532105741 0.0000000000 0.0000000000 0.0000000000 -250.9450885551 0.1650883934 1.0462862156
-0.1420179630 1.4408564702 0.0000000000 0.0000000000 0.0000000000 -127.9436765539 0.1650883934 1.0462862156
-0.1580612256 1.4278282496 0.0000000000 0.0000000000 0.0000000000 -8.3653990883 0.1650883934 1.0462862156
-0.1735523925 1.4141481708 0.0000000000 0.0000000000 0.0000000000 107.1444571588 0.1650883934 1.0462862156
-0.2027735620 1.3849270013 0.0000000000 0.0000000000 0.0000000000 323.5773362167 0.1650883934 1.0462862156
-0.2164536408 1.3694358344 0.0000000000 0.0000000000 0.0000000000 423.4316118492 0.1650883934 1.0462862156
-0.2294818614 1.3533925718 0.0000000000 0.0000000000 0.0000000000 517.0925479693 0.1650883934 1.0462862156
-0.2418359653 1.3368246232 0.0000000000 0.0000000000 0.0000000000 604.1735052699 0.1650883934 1.0462862156
-0.2534948458 1.3197602945 0.0000000000 0.0000000000 0.0000000000 684.3529482671 0.1650883934 1.0462862156
-0.2644385838 1.3022287400 0.0000000000 0.0000000000 0.0000000000 757.3757559450 0.1650883934 1.0462862156
-0.2746484822 1.2842599120 0.0000000000 0.0000000000 0.0000000000 823.0538805788 0.1650883934 1.0462862156
-0.2841070976 1.2658845099 0.0000000000 0.0000000000 0.0000000000 881.2668120982 0.1650883934 1.0462862156
-0.2927982700 1.2471339277 0.0000000000 0.0000000000 0.0000000000 931.9621334168 0.1650883934 1.0462862156
-0.3007071507 1.2280402007 0.0000000000 0.0000000000 0.0000000000 975.1562472406 0.1650883934 1.0462862156
-0.3078202275 1.2086359500 0.0000000000 0.0000000000 0.0000000000 1010.9351832051 0.1650883934 1.0462862156
-0.3141253478 1.1889543275 0.0000000000 0.0000000000 0.0000000000 1039.4552800210 0.1650883934 1.0462862156
-0.3196117396 1.1690289590 0.0000000000 0.0000000000 0.0000000000 1060.9434725263 0.1650883934 1.0462862156
-0.3242700293 1.1488938865 0.0000000000 0.0000000000 0.0000000000 1075.6968723025 0.1650883934 1.0462862156
-0.3280922583 1.1285835105 0.0000000000 0.0000000000 0.0000000000 1084.0812850186 0.1650883934 1.0462862156
-0.3310718965 1.1081325310 0.0000000000 0.0000000000 0.0000000000 1086.5282378700 0.1650883934 1.0462862156
-0.3332038531 1.0875758881 0.0000000000 0.0000000000 0.0000000000 1083.5299929468 0.1650883934 1.0462862156
-0.3344844858 1.0669487025 0.0000000000 0.0000000000 0.0000000000 1075.6319194896 0.1650883934 1.0462862156
-0.3349116066 1.0462862154 0.0000000000 0.0000000000 0.0000000000 1063.4215486078 0.1650883934 1.0462862156
-0.3344844857 1.0256237283 0.0000000000 0.0000000000 0.0000000000 1047.5137364817 0.1650883934 1.0462862156
-0.3332038530 1.0049965426 0.0000000000 0.0000000000 0.0000000000 1028.5317360484 0.1650883934 1.0462862156
-0.3310718964 0.9844398997 0.0000000000 0.0000000000 0.0000000000 1007.0847096048 0.1650883934 1.0462862156
-0.3280922582 0.9639889202 0.0000000000 0.0000000000 0.0000000000 983.7432740616 0.1650883934 1.0462862156
-0.3242700292 0.9436785443 0.0000000000 0.0000000000 0.0000000000 959.0158259243 0.1650883934 1.0462862156
-0.3196117395 0.9235434718 0.0000000000 0.0000000000 0.0000000000 933.3292117095 0.1650883934 1.0462862156
-0.3141253477 0.9036181032 0.0000000000 0.0000000000 0.0000000000 907.0172934744 0.1650883934 1.0462862156
-0.3078202273 0.8839364808 0.0000000000 0.0000000000 0.0000000000 880.3198082871 0.1650883934 1.0462862156
-0.3007071505 0.8645322301 0.0000000000 0.0000000000 0.0000000000 853.3917867631 0.1650883934 1.0462862156
-0.2927982698 0.8454385030 0.0000000000 0.0000000000 0.0000000000 826.3213349931 0.1650883934 1.0462862156
-0.2841070974 0.8266879209 0.0000000000 0.0000000000 0.0000000000 799.1517022297 0.1650883934 1.0462862156
-0.2746484821 0.8083125189 0.0000000000 0.0000000000 0.0000000000 771.9029588596 0.1650883934 1.0462862156
-0.2644385836 0.7903436908 0.0000000000 0.0000000000 0.0000000000 744.5894394295 0.1650883934 1.0462862156
-0.2534948456 0.7728121363 0.0000000000 0.0000000000 0.0000000000 717.2308967822 0.1650883934 1.0462862156
-0.2418359651 0.7557478077 0.0000000000 0.0000000000 0.0000000000 689.8572937470 0.1650883934 1.0462862156
-0.2294818611 0.7391798590 0.0000000000 0.0000000000 0.0000000000 662.5086256680 0.1650883934 1.0462862156
-0.2164536405 0.7231365965 0.0000000000 0.0000000000 0.0000000000 635.2318255819 0.1650883934 1.0462862156
-0.2027735617 0.7076454296 0.0000000000 0.0000000000 0.0000000000 608.0766685511 0.1650883934 1.0462862156
-0.1735523922 0.6784242601 0.0000000000 0.0000000000 0.0000000000 554.3234132327 0.1650883934 1.0462862156
-0.1580612253 0.6647441813 0.0000000000 0.0000000000 0.0000000000 527.8111231860 0.1650883934 1.0462862156
-0.1420179627 0.6517159607 0.0000000000 0.0000000000 0.0000000000 501.5901585420 0.1650883934 1.0462862156
-0.1254500140 0.6393618568 0.0000000000 0.0000000000 0.0000000000 475.6902029622 0.1650883934 1.0462862156
-0.1083856854 0.6277029763 0.0000000000 0.0000000000 0.0000000000 450.1361340532 0.1650883934 1.0462862156
-0.0908541309 0.6167592383 0.0000000000 0.0000000000 0.0000000000 424.9485923610 0.1650883934 1.0462862156
-0.0728853028 0.6065493398 0.0000000000 0.0000000000 0.0000000000 400.1444816967 0.1650883934 1.0462862156
-0.0545099007 0.5970907245 0.0000000000 0.0000000000 0.0000000000 375.7373807205 0.1650883934 1.0462862156
-0.0357593186 0.5883995521 0.0000000000 0.0000000000 0.0000000000 351.7378656941 0.1650883934 1.0462862156
-0.0166655916 0.5804906715 0.0000000000 0.0000000000 0.0000000000 328.1537883902 0.1650883934 1.0462862156
0.0027386591 0.5733775946 0.0000000000 0.0000000000 0.0000000000 304.9905366655 0.1650883934 1.0462862156
0.0224202816 0.5670724743 0.0000000000 0.0000000000 0.0000000000 282.2512982921 0.1650883934 1.0462862156
0.0423456502 0.5615860825 0.0000000000 0.0000000000 0.0000000000 259.9373282829 0.1650883934 1.0462862156
0.0624807226 0.5569277929 0.0000000000 0.0000000000 0.0000000000 238.0482143211 0.1650883934 1.0462862156
0.0827910986 0.5531055638 0.0000000000 0.0000000000 0.0000000000 216.5821289986 0.1650883934 1.0462862156
0.1032420781 0.5501259257 0.0000000000 0.0000000000 0.0000000000 195.5360637683 0.1650883934 1.0462862156
0.1237987210 0.5479939691 0.0000000000 0.0000000000 0.0000000000 174.9060362131 0.1650883934 1.0462862156
0.1444259066 0.5467133364 0.0000000000 0.0000000000 0.0000000000 154.6872775462 0.1650883934 1.0462862156
0.1650883937 0.5462862156 0.0000000000 0.0000000000 0.0000000000 134.8743868991 0.1650883934 1.0462862156
0.1857508809 0.5467133364 0.0000000000 0.0000000000 0.0000000000 115.4614815200 0.1650883934 1.0462862156
0.2063780665 0.5479939691 0.0000000000 0.0000000000 0.0000000000 96.4422933258 0.1650883934 1.0462862156
0.2269347094 0.5501259258 0.0000000000 0.0000000000 0.0000000000 77.8103104939 0.1650883934 1.0462862156
0.2473856889 0.5531055639 0.0000000000 0.0000000000 0.0000000000 59.5587790196 0.1650883934 1.0462862156
0.2676960649 0.5569277930 0.0000000000 0.0000000000 0.0000000000 41.6809183957 0.1650883934 1.0462862156
0.2878311373 0.5615860827 0.0000000000 0.0000000000 0.0000000000 24.1696667433 0.1650883934 1.0462862156
0.3077565059 0.5670724744 0.0000000000 0.0000000000 0.0000000000 7.0182714615 0.1650883934 1.0462862156
0.3274381284 0.5733775948 0.0000000000 0.0000000000 0.0000000000 -9.7808465341 0.1650883934 1.0462862156
0.3468423790 0.5804906717 0.0000000000 0.0000000000 0.0000000000 -26.2339462819 0.1650883934 1.0462862156
0.3659361061 0.5883995524 0.0000000000 0.0000000000 0.0000000000 -42.3504112722 0.1650883934 1.0462862156
0.3846866882 0.5970907248 0.0000000000 0.0000000000 0.0000000000 -58.1343156894 0.1650883934 1.0462862156
0.4030620903 0.6065493401 0.0000000000 0.0000000000 0.0000000000 -73.6018151357 0.1650883934 1.0462862156
0.4210309183 0.6167592386 0.0000000000 0.0000000000 0.0000000000 -88.7472816577 0.1650883934 1.0462862156
0.4385624728 0.6277029766 0.0000000000 0.0000000000 0.0000000000 -103.6123163041 0.1650883934 1.0462862156
0.4556268014 0.6393618572 0.0000000000 0.0000000000 0.0000000000 -118.1490461925 0.1650883934 1.0462862156
0.4721947501 0.6517159611 0.0000000000 0.0000000000 0.0000000000 -132.4952930794 0.1650883934 1.0462862156
0.4882380126 0.6647441817 0.0000000000 0.0000000000 0.0000000000 -146.4295817332 0.1650883934 1.0462862156
0.5037291795 0.6784242605 0.0000000000 0.0000000000 0.0000000000 -160.4466263503 0.1650883934 1.0462862156
0.7088341591 0.5299902436 0.0000000000 0.1316403157 0.2632658352 -180.5224226710 0.1590452548 1.0401197965
0.7278835471 0.5505152705 0.0000000000 0.1343013287 0.2608206005 -190.4062875273 0.1594047544 1.0397308285
0.7461390942 0.5717377234 0.0000000000 0.1388949223 0.2506941108 -200.3680355914 0.1597654821 1.0393550744
0.7635738645 0.5936291290 0.0000000000 0.1452777239 0.2348989015 -210.5007734279 0.1601255294 1.0389942678
0.7801620912 0.6161603000 0.0000000000 0.1531070024 0.2156992751 -220.8748912873 0.1604830102 1.0386503431
0.7958793482 0.6393012267 0.0000000000 0.1619515941 0.1950635506 -231.5411733680 0.1608361985 1.0383252837
0.8107026591 0.6630210442 0.0000000000 0.1714054409 0.1743527906 -242.5403939923 0.1611836060 1.0380210438
0.8246105664 0.6872880294 0.0000000000 0.1811669091 0.1542627342 -253.9118633279 0.1615240211 1.0377395002
0.8375831684 0.7120696142 0.0000000000 0.1910695556 0.1349491565 -265.6986103068 0.1618565173 1.0374824181
0.8496021277 0.7373324076 0.0000000000 0.2010702942 0.1162329808 -277.9490232989 0.1621804356 1.0372514254
0.8606506603 0.7630422234 0.0000000000 0.2112134044 0.0977958907 -290.7162485915 0.1624953487 1.0370479913
0.8707135131 0.7891641102 0.0000000000 0.2215904170 0.0793168036 -304.0568410124 0.1628010152 1.0368734063
0.8797769370 0.8156623836 0.0000000000 0.2323094681 0.0605399666 -318.0296068820 0.1630973325 1.0367287640
0.8878286638 0.8425006597 0.0000000000 0.2434786749 0.0412912487 -332.6948579643 0.1633842940 1.0366149431
0.8948578873 0.8696418910 0.0000000000 0.2552011609 0.0214671611 -348.1138033120 0.1636619531 1.0365325911
0.9008552500 0.8970484045 0.0000000000 0.2675765062 0.0010165680 -364.3476718969 0.1639303950 1.0364821095
0.9058128355 0.9246819423 0.0000000000 0.2807039107 -0.0200741043 -381.4562965338 0.1641897158 1.0364636416
0.9097241653 0.9525037057 0.0000000000 0.2946843544 -0.0417892134 -399.4961180636 0.1644400079 1.0364770625
0.9125841988 0.9804744020 0.0000000000 0.3096209218 -0.0640871680 -418.5177439099 0.1646813509 1.0365219719
0.9143893371 1.0085542949 0.0000000000 0.3256175294 -0.0869011736 -438.5632681929 0.1649138085 1.0365976903
0.9151374295 1.0367032582 0.0000000000 0.3427766153 -0.1101395274 -459.6635566402 0.1651374295 1.0367032579
0.9148277813 1.0648808331 0.0000000000 0.3611962743 -0.1336866119 -481.8356654761 0.1653522528 1.0368374371
0.9134611652 1.0930462896 0.0000000000 0.3809671523 -0.1574049988 -505.0805319570 0.1655583174 1.0369987192
0.9110398316 1.1211586918 0.0000000000 0.4021692992 -0.1811386558 -529.3810547116 0.1657556742 1.0371853345
0.9075675196 1.1491769674 0.0000000000 0.4248691418 -0.2047170619 -554.7006686055 0.1659444000 1.0373952676
0.9030494668 1.1770599829 0.0000000000 0.4491167333 -0.2279599647 -580.9825012327 0.1661246119 1.0376262773
0.8974924149 1.2047666242 0.0000000000 0.4749434417 -0.2506824680 -608.1491691835 0.1662964809 1.0378759235
0.8909046134 1.2322558841 0.0000000000 0.5023602255 -0.2727001225 -636.1032304834 0.1664602437 1.0381416000
0.8832958167 1.2594869573 0.0000000000 0.5313566105 -0.2938336758 -664.7282586930 0.1666162125 1.0384205763
0.8746772790 1.2864193430 0.0000000000 0.5619004324 -0.3139131599 -693.8904511609 0.1667647813 1.0387100463
0.8650617436 1.3130129544 0.0000000000 0.5939383435 -0.3327810419 -723.4406373424 0.1669064322 1.0390071860
0.8544634306 1.3392282358 0.0000000000 0.6273970210 -0.3502942472 -753.2165212335 0.1670417388 1.0393092174
0.8428980223 1.3650262829 0.0000000000 0.6621849545 -0.3663249754 -783.0449812861 0.1671713714 1.0396134784
0.8303826470 1.3903689661 0.0000000000 0.6981946453 -0.3807603556 -812.7442650141 0.1672961020 1.0399174947
0.8169358626 1.4152190530 0.0000000000 0.7353050272 -0.3935011118 -842.1259533909 0.1674168098 1.0402190529
0.8025776354 1.4395403280 0.0000000000 0.7733839148 -0.4044595227 -870.9966260042 0.1675344860 1.0405162705
0.7873293119 1.4632977072 0.0000000000 0.8122903080 -0.4135570322 -899.1592236907 0.1676502312 1.0408076635
0.7712135802 1.4864573503 0.0000000000 0.8518764174 -0.4207218919 -926.4141488004 0.1677652455 1.0410922110
0.7542544259 1.5089867709 0.0000000000 0.8919893088 -0.4258871756 -952.5601359527 0.1678808141 1.0413694194
0.7364771141 1.5308549558 0.0000000000 0.9324721677 -0.4289896019 -977.3957731263 0.1679983218 1.0416393973
0.7179082994 1.5520324952 0.0000000000 0.9731628069 -0.4299664354 -1000.7067271792 0.1681193956 1.0419029418
0.6762832477 1.5941796927 0.0000000000 1.0588210205 -0.4250351248 -1044.2871796423 0.1683220691 1.0423867597
0.6531261730 1.6149186365 0.0000000000 1.1034143907 -0.4184574212 -1063.6024705452 0.1684017447 1.0426055853
0.6291431005 1.6346721469 0.0000000000 1.1474432569 -0.4090571377 -1080.1223027138 0.1684835660 1.0428167648
0.6043736342 1.6534063939 0.0000000000 1.1906877749 -0.3968094230 -1093.6132254651 0.1685660227 1.0430198559
0.5788588722 1.6710896536 0.0000000000 1.2329244178 -0.3817116839 -1103.8621910553 0.1686477537 1.0432147949
0.5526412335 1.6876921467 0.0000000000 1.2739313072 -0.3637838531 -1110.6754079398 0.1687274467 1.0434016809
0.5257643178 1.7031860288 0.0000000000 1.3134893628 -0.3430699414 -1113.8800825863 0.1688037731 1.0435807154
0.4982728076 1.7175454092 0.0000000000 1.3513838227 -0.3196378563 -1113.3261596795 0.1688753661 1.0437521727
0.4702123959 1.7307463664 0.0000000000 1.3874057947 -0.2935782866 -1108.8877517788 0.1689408275 1.0439163714
0.4416297326 1.7427669610 0.0000000000 1.4213537892 -0.2650030133 -1100.4642837520 0.1689987548 1.0440736449
0.4125723808 1.7535872478 0.0000000000 1.4530351936 -0.2340430079 -1087.9814283793 0.1690477790 1.0442243165
0.3830887752 1.7631892918 0.0000000000 1.4822676752 -0.2008466123 -1071.3919042916 0.1690866072 1.0443686799
0.3532281776 1.7715571858 0.0000000000 1.5088805281 -0.1655779865 -1050.6761799839 0.1691140624 1.0445069864
0.3230406251 1.7786770690 0.0000000000 1.5327159941 -0.1284158838 -1025.8430915980 0.1691291186 1.0446394350
0.2925768697 1.7845371439 0.0000000000 1.5536305802 -0.0895526968 -996.9303472966 0.1691309271 1.0447661663
0.2618883079 1.7891276935 0.0000000000 1.5714963668 -0.0491936360 -964.0048646976 0.1691188346 1.0448872587
0.2310269015 1.7924410974 0.0000000000 1.5862022630 -0.0075558621 -927.1628747354 0.1690923925 1.0450027276
0.2000450904 1.7944718480 0.0000000000 1.5976551376 0.0351325983 -886.5297285268 0.1690513599 1.0451125292
0.1689957007 1.7952165675 0.0000000000 1.6057807608 0.0786342560 -842.2593640855 0.1689957008 1.0452165675
0.1379318471 1.7946740240 0.0000000000 1.6105245417 0.1227038905 -794.5334223725 0.1689255779 1.0453147052
0.1069068346 1.7928451466 0.0000000000 1.6118521132 0.1670905095 -743.5600347978 0.1688413439 1.0454067769
0.0759740579 1.7897330377 0.0000000000 1.6097498547 0.2115393891 -689.5723204733 0.1687435315 1.0454926029
0.0451869004 1.7853429811 0.0000000000 1.6042254024 0.2557940738 -632.8266222403 0.1686328432 1.0455720036
0.0145986328 1.7796824456 0.0000000000 1.5953080905 0.2995983213 -573.6004852750 0.1685101397 1.0456448116
-0.0157376877 1.7727610825 0.0000000000 1.5830491629 0.3426980823 -512.1903665391 0.1683764278 1.0457108831
-0.0457693201 1.7645907196 0.0000000000 1.5675215868 0.3848436256 -448.9090779122 0.1682328483 1.0457701078
-0.0754439412 1.7551853498 0.0000000000 1.5488194281 0.4257918311 -384.0830030700 0.1680806609 1.0458224186
-0.1047097483 1.7445611167 0.0000000000 1.5270569117 0.4653085297 -318.0491562651 0.1679212298 1.0458678007
-0.1335155627 1.7327362972 0.0000000000 1.5023673782 0.5031706999 -251.1521463499 0.1677560060 1.0459063022
-0.1618109330 1.7197312800 0.0000000000 1.4749022743 0.5391683683 -183.7410803409 0.1675865088 1.0459380437
-0.1895462396 1.7055685409 0.0000000000 1.4448301514 0.5731061844 -116.1664145277 0.1674143054 1.0459632276
-0.2166727991 1.6902726120 0.0000000000 1.4123354893 0.6048047696 -48.7767558633 0.1672409879 1.0459821463
-0.2431429701 1.6738700460 0.0000000000 1.3776171169 0.6341020029 18.0843586936 0.1670681487 1.0459951874
-0.2689102576 1.6563893727 0.0000000000 1.3408861741 0.6608543391 84.0816250136 0.1668973541 1.0460028349
-0.2939294190 1.6378610483 0.0000000000 1.3023638564 0.6849380461 148.8909691172 0.1667301157 1.0460056663
-0.3181565681 1.6183173971 0.0000000000 1.2622792924 0.7062500936 212.2023323911 0.1665678605 1.0460043461
-0.3415492764 1.5977925462 0.0000000000 1.2208675524 0.7247086052 273.7222854627 0.1664119025 1.0459996133
-0.3856696659 1.5539442616 0.0000000000 1.1350183963 0.7528452191 390.3117875379 0.1661232673 1.0459830830
-0.4063206955 1.5306974261 0.0000000000 1.0910591072 0.7624682324 444.8976649005 0.1659923558 1.0459729979
-0.4259841561 1.5066223947 0.0000000000 1.0467244353 0.7691275292 496.7279581815 0.1658712261 1.0459628604
-0.4446263485 1.4817611156 0.0000000000 1.0022443471 0.7728493480 545.6219777137 0.1657601896 1.0459535043
-0.4622155425 1.4561568435 0.0000000000 0.9578424022 0.7736796816 591.4254353377 0.1656593164 1.0459457251
-0.4787220280 1.4298540477 0.0000000000 0.9137340895 0.7716830829 634.0111153005 0.1655684380 1.0459402611
-0.4941181517 1.4028983219 0.0000000000 0.8701250421 0.7669415283 673.2792336942 0.1654871618 1.0459377773
-0.5083783411 1.3753362947 0.0000000000 0.8272092402 0.7595533061 709.1574739936 0.1654148954 1.0459388533
-0.5214791166 1.3472155430 0.0000000000 0.7851673519 0.7496318244 741.6007233782 0.1653508784 1.0459439748
-0.5333990964 1.3185845068 0.0000000000 0.7441652783 0.7373042490 770.5905304730 0.1652942197 1.0459535291
-0.5441189949 1.2894924059 0.0000000000 0.7043529022 0.7227099434 796.1342912601 0.1652439365 1.0459678043
-0.5536216197 1.2599891584 0.0000000000 0.6658630228 0.7059987271 818.2641579371 0.1651989922 1.0459869905
-0.5618918682 1.2301252992 0.0000000000 0.6288104773 0.6873289873 837.0356624766 0.1651583313 1.0460111841
-0.5689167269 1.1999518997 0.0000000000 0.5932914717 0.6668656680 852.5260502323 0.1651209071 1.0460403933
-0.5746852729 1.1695204859 0.0000000000 0.5593831579 0.6447781536 864.8323243507 0.1650857047 1.0460745435
-0.5791886799 1.1388829570 0.0000000000 0.5271434866 0.6212380555 874.0690069771 0.1650517549 1.0461134839
-0.5824202259 1.1080915022 0.0000000000 0.4966113515 0.5964169104 880.3656295050 0.1650181438 1.0461569934
-0.5843753039 1.0771985174 0.0000000000 0.4678070339 0.5704838064 883.8639752449 0.1649840149 1.0462047870
-0.5850514319 1.0462565213 0.0000000000 0.4407329517 0.5436029737 884.7151200312 0.1649485681 1.0462565216
-0.5844482632 1.0153180719 0.0000000000 0.4153747436 0.5159314535 883.0763580075 0.1649110555 1.0463118029
-0.5825675938 0.9844356822 0.0000000000 0.3917027489 0.4876171279 879.1081685537 0.1648707759 1.0463701916
-0.5794133674 0.9536617369 0.0000000000 0.3696739670 0.4587976739 872.9714711764 0.1648270674 1.0464312107
-0.5749916776 0.9230484097 0.0000000000 0.3492345367 0.4296012958 864.8254916302 0.1647792999 1.0464943528
-0.5693107668 0.8926475808 0.0000000000 0.3303225803 0.4001500299 854.8265387357 0.1647268671 1.0465590878
-0.5623810227 0.8625107551 0.0000000000 0.3128708762 0.3705653116 843.1277405869 0.1646691767 1.0466248708
-0.5542149723 0.8326889813 0.0000000000 0.2968083686 0.3409724387 829.8792101704 0.1646056395 1.0466911498
-0.5448272733 0.8032327718 0.0000000000 0.2820593998 0.3114951564 815.2272648820 0.1645356579 1.0467573740