 TITLE = "Tecplot data"
 VARIABLES = "X", "Y", "Z" "U", "V", "p", "dispX", "dispY"
 ZONE SOLUTIONTIME=39.900000, NODES=26114 , ELEMENTS=25916, DATAPACKING=POINT, ZONETYPE=FEQUADRILATERAL
0.4049047228 0.4049047228 0.0000000000 -0.0075502409 -0.0075502409 -265.2691451035 0.0513513322 0.0513513322
0.4049047230 -0.3022020581 0.0000000000 -0.0075502409 -0.0075502409 -647.8640029214 0.0513513322 0.0513513322
-0.3022020585 0.4049047227 0.0000000000 -0.0075502409 -0.0075502409 -85.0207768808 0.0513513322 0.0513513322
-0.3022020582 -0.3022020586 0.0000000000 -0.0075502409 -0.0075502409 -273.9701296078 0.0513513322 0.0513513322
0.5773985051 0.5774508186 0.0000000000 0.0671933341 -0.0074121998 -245.1198188970 0.0470684193 0.0471207327
0.5729040792 -0.4876708491 0.0000000000 0.6112492279 0.0736580989 -631.2356131902 0.0425739929 0.0426592364
-0.4880337930 0.5727786620 0.0000000000 0.8421453204 0.4779790815 116.1589005918 0.0422962931 0.0424485763
-0.4836299934 -0.4831772196 0.0000000000 0.9196250140 -0.5113223182 -21.4932619333 0.0467000922 0.0471528666
1.0980030284 1.0980725251 0.0000000000 1.3084883094 0.0204924576 -150.6064942858 0.0373428567 0.0374123532
1.0907414465 -1.0302637143 0.0000000000 1.1132692718 0.1990276376 -221.1749227540 0.0300812740 0.0303964567
-1.0313147041 1.0904416972 0.0000000000 0.9430576580 0.1610849590 123.7137813919 0.0293454680 0.0297815258
-1.0244384785 -1.0232912812 0.0000000000 0.9726168369 -0.1582896330 47.7002526738 0.0362216927 0.0373688911
4.2192731463 3.3169183396 0.0000000000 1.0057214665 0.0104402264 39.9109157800 0.0192731463 0.0169183396
4.2115754837 -3.2897306311 0.0000000000 1.0302975294 0.0286560589 26.0803880777 0.0115754837 0.0102693689
20.0000000000 4.7000000000 0.0000000000 1.0433492946 0.0316222901 0.0496667154 0.0000000000 0.0000000000
20.0000000000 -4.7000000000 0.0000000000 1.0654340897 -0.0309152427 0.2412426105 0.0000000000 0.0000000000
-10.0000000000 15.0000000000 0.0000000000 1.0000000000 0.0000000000 47.9904937981 0.0000000000 0.0000000000
20.0000000000 15.0000000000 0.0000000000 1.0357819684 0.0000000000 0.0199207401 0.0000000000 0.0000000000
20.0000000000 -15.0000000000 0.0000000000 1.0349220454 0.0000000000 0.0147139361 0.0000000000 0.0000000000
-10.0000000000 -15.0000000000 0.0000000000 1.0000000000 0.0000000000 32.5156059187 0.0000000000 0.0000000000
0.4178772683 -0.2887350364 0.0000000000 -0.0075502409 -0.0075502409 -644.9033360022 0.0513513322 0.0513513322
0.4303371940 -0.2747923732 0.0000000000 -0.0075502409 -0.0075502409 -642.9765159967 0.0513513322 0.0513513322
0.4422670736 -0.2603935685 0.0000000000 -0.0075502409 -0.0075502409 -641.7390160090 0.0513513322 0.0513513322
0.4536502223 -0.2455587603 0.0000000000 -0.0075502409 -0.0075502409 -641.0651061456 0.0513513322 0.0513513322
0.4644707195 -0.2303086966 0.0000000000 -0.0075502409 -0.0075502409 -640.7014612101 0.0513513322 0.0513513322
0.4747134320 -0.2146647058 0.0000000000 -0.0075502409 -0.0075502409 -640.4224507956 0.0513513322 0.0513513322
0.4843640342 -0.1986486675 0.0000000000 -0.0075502409 -0.0075502409 -639.9779452821 0.0513513322 0.0513513322
0.4934090291 -0.1822829817 0.0000000000 -0.0075502409 -0.0075502409 -639.1137533094 0.0513513322 0.0513513322
0.5018357663 -0.1655905371 0.0000000000 -0.0075502409 -0.0075502409 -637.5590759752 0.0513513322 0.0513513322
0.5096324602 -0.1485946797 0.0000000000 -0.0075502409 -0.0075502409 -635.0337989428 0.0513513322 0.0513513322
0.5167882066 -0.1313191797 0.0000000000 -0.0075502409 -0.0075502409 -631.2563381140 0.0513513322 0.0513513322
0.5232929974 -0.1137881985 0.0000000000 -0.0075502409 -0.0075502409 -625.9606435683 0.0513513322 0.0513513322
0.5291377352 -0.0960262548 0.0000000000 -0.0075502409 -0.0075502409 -618.9160603133 0.0513513322 0.0513513322
0.5343142454 -0.0780581901 0.0000000000 -0.0075502409 -0.0075502409 -609.9493382578 0.0513513322 0.0513513322
0.5388152883 -0.0599091345 0.0000000000 -0.0075502409 -0.0075502409 -598.9648739115 0.0513513322 0.0513513322
0.5426345689 -0.0416044712 0.0000000000 -0.0075502409 -0.0075502409 -585.9605231089 0.0513513322 0.0513513322
0.5457667453 -0.0231698007 0.0000000000 -0.0075502409 -0.0075502409 -571.0360194181 0.0513513322 0.0513513322
0.5482074372 -0.0046309056 0.0000000000 -0.0075502409 -0.0075502409 -554.3921224496 0.0513513322 0.0513513322
0.5499532308 0.0139862856 0.0000000000 -0.0075502409 -0.0075502409 -536.3197097762 0.0513513322 0.0513513322
0.5510016846 0.0326557353 0.0000000000 -0.0075502409 -0.0075502409 -517.1795568423 0.0513513322 0.0513513322
0.5513513322 0.0513513324 0.0000000000 -0.0075502409 -0.0075502409 -497.3750029627 0.0513513322 0.0513513322
0.5510016846 0.0700469295 0.0000000000 -0.0075502409 -0.0075502409 -477.3208313816 0.0513513322 0.0513513322
0.5499532308 0.0887163792 0.0000000000 -0.0075502409 -0.0075502409 -457.4123736973 0.0513513322 0.0513513322
0.5482074371 0.1073335704 0.0000000000 -0.0075502409 -0.0075502409 -437.9986118331 0.0513513322 0.0513513322
0.5457667453 0.1258724655 0.0000000000 -0.0075502409 -0.0075502409 -419.3625564226 0.0513513322 0.0513513322
0.5426345688 0.1443071359 0.0000000000 -0.0075502409 -0.0075502409 -401.7103754573 0.0513513322 0.0513513322
0.5388152882 0.1626117993 0.0000000000 -0.0075502409 -0.0075502409 -385.1701619389 0.0513513322 0.0513513322
0.5343142453 0.1807608549 0.0000000000 -0.0075502409 -0.0075502409 -369.7981605550 0.0513513322 0.0513513322
0.5291377350 0.1987289195 0.0000000000 -0.0075502409 -0.0075502409 -355.5923674032 0.0513513322 0.0513513322
0.5232929973 0.2164908633 0.0000000000 -0.0075502409 -0.0075502409 -342.5076571868 0.0513513322 0.0513513322
0.5167882065 0.2340218445 0.0000000000 -0.0075502409 -0.0075502409 -330.4766219529 0.0513513322 0.0513513322
0.5096324601 0.2512973445 0.0000000000 -0.0075502409 -0.0075502409 -319.4235188857 0.0513513322 0.0513513322
0.5018357661 0.2682932019 0.0000000000 -0.0075502409 -0.0075502409 -309.2902189047 0.0513513322 0.0513513322
0.4934090289 0.2849856464 0.0000000000 -0.0075502409 -0.0075502409 -300.0380115920 0.0513513322 0.0513513322
0.4843640340 0.3013513323 0.0000000000 -0.0075502409 -0.0075502409 -291.6857489477 0.0513513322 0.0513513322
0.4747134318 0.3173673705 0.0000000000 -0.0075502409 -0.0075502409 -284.2714677425 0.0513513322 0.0513513322
0.4644707193 0.3330113613 0.0000000000 -0.0075502409 -0.0075502409 -277.9267329034 0.0513513322 0.0513513322
0.4536502220 0.3482614250 0.0000000000 -0.0075502409 -0.0075502409 -272.7223613814 0.0513513322 0.0513513322
0.4422670734 0.3630962332 0.0000000000 -0.0075502409 -0.0075502409 -268.8746391449 0.0513513322 0.0513513322
0.4303371937 0.3774950379 0.0000000000 -0.0075502409 -0.0075502409 -266.3023470430 0.0513513322 0.0513513322
0.4178772681 0.3914377011 0.0000000000 -0.0075502409 -0.0075502409 -265.2709254196 0.0513513322 0.0513513322
0.3899921180 0.4192132876 0.0000000000 -0.0075502409 -0.0075502409 -266.8813991096 0.0513513322 0.0513513322
0.3745009511 0.4328933663 0.0000000000 -0.0075502409 -0.0075502409 -269.3817755009 0.0513513322 0.0513513322
0.3584576885 0.4459215869 0.0000000000 -0.0075502409 -0.0075502409 -272.7701564053 0.0513513322 0.0513513322
0.3418897398 0.4582756909 0.0000000000 -0.0075502409 -0.0075502409 -276.6507690421 0.0513513322 0.0513513322
0.3248254112 0.4699345714 0.0000000000 -0.0075502409 -0.0075502409 -281.0578783944 0.0513513322 0.0513513322
0.3072938567 0.4808783094 0.0000000000 -0.0075502409 -0.0075502409 -285.9684318220 0.0513513322 0.0513513322
0.2893250287 0.4910882078 0.0000000000 -0.0075502409 -0.0075502409 -291.5605937521 0.0513513322 0.0513513322
0.2709496266 0.5005468232 0.0000000000 -0.0075502409 -0.0075502409 -297.9859326672 0.0513513322 0.0513513322
0.2521990445 0.5092379956 0.0000000000 -0.0075502409 -0.0075502409 -305.4189438397 0.0513513322 0.0513513322
0.2331053174 0.5171468762 0.0000000000 -0.0075502409 -0.0075502409 -313.9668202731 0.0513513322 0.0513513322
0.2137010667 0.5242599531 0.0000000000 -0.0075502409 -0.0075502409 -323.6902610148 0.0513513322 0.0513513322
0.1940194442 0.5305650734 0.0000000000 -0.0075502409 -0.0075502409 -334.5844560454 0.0513513322 0.0513513322
0.1740940757 0.5360514652 0.0000000000 -0.0075502409 -0.0075502409 -346.5903256711 0.0513513322 0.0513513322
0.1539590032 0.5407097549 0.0000000000 -0.0075502409 -0.0075502409 -359.5855267917 0.0513513322 0.0513513322
0.1336486272 0.5445319839 0.0000000000 -0.0075502409 -0.0075502409 -373.3819655195 0.0513513322 0.0513513322
0.1131976477 0.5475116221 0.0000000000 -0.0075502409 -0.0075502409 -387.7192394745 0.0513513322 0.0513513322
0.0926410048 0.5496435787 0.0000000000 -0.0075502409 -0.0075502409 -402.2648429550 0.0513513322 0.0513513322
0.0720138192 0.5509242114 0.0000000000 -0.0075502409 -0.0075502409 -416.6181358405 0.0513513322 0.0513513322
0.0513513321 0.5513513322 0.0000000000 -0.0075502409 -0.0075502409 -430.3205931694 0.0513513322 0.0513513322
0.0306888450 0.5509242114 0.0000000000 -0.0075502409 -0.0075502409 -442.8704478527 0.0513513322 0.0513513322
0.0100616594 0.5496435787 0.0000000000 -0.0075502409 -0.0075502409 -453.7412990307 0.0513513322 0.0513513322
-0.0104949835 0.5475116220 0.0000000000 -0.0075502409 -0.0075502409 -462.4028340625 0.0513513322 0.0513513322
-0.0309459631 0.5445319839 0.0000000000 -0.0075502409 -0.0075502409 -468.3421914141 0.0513513322 0.0513513322
-0.0512563390 0.5407097548 0.0000000000 -0.0075502409 -0.0075502409 -471.0842450639 0.0513513322 0.0513513322
-0.0713914115 0.5360514651 0.0000000000 -0.0075502409 -0.0075502409 -470.2094931096 0.0513513322 0.0513513322
-0.0913167800 0.5305650734 0.0000000000 -0.0075502409 -0.0075502409 -465.3685465767 0.0513513322 0.0513513322
-0.1109984025 0.5242599530 0.0000000000 -0.0075502409 -0.0075502409 -456.2926988944 0.0513513322 0.0513513322
-0.1304026532 0.5171468762 0.0000000000 -0.0075502409 -0.0075502409 -442.8004613663 0.0513513322 0.0513513322
-0.1494963803 0.5092379955 0.0000000000 -0.0075502409 -0.0075502409 -424.8003060360 0.0513513322 0.0513513322
-0.1682469623 0.5005468231 0.0000000000 -0.0075502409 -0.0075502409 -402.2900937069 0.0513513322 0.0513513322
-0.1866223644 0.4910882077 0.0000000000 -0.0075502409 -0.0075502409 -375.3537976391 0.0513513322 0.0513513322
-0.2045911925 0.4808783093 0.0000000000 -0.0075502409 -0.0075502409 -344.1561663139 0.0513513322 0.0513513322
-0.2221227470 0.4699345712 0.0000000000 -0.0075502409 -0.0075502409 -308.9359291320 0.0513513322 0.0513513322
-0.2391870756 0.4582756907 0.0000000000 -0.0075502409 -0.0075502409 -269.9980617043 0.0513513322 0.0513513322
-0.2557550243 0.4459215868 0.0000000000 -0.0075502409 -0.0075502409 -227.7055195088 0.0513513322 0.0513513322
-0.2717982869 0.4328933662 0.0000000000 -0.0075502409 -0.0075502409 -182.4707428616 0.0513513322 0.0513513322
-0.2872894537 0.4192132874 0.0000000000 -0.0075502409 -0.0075502409 -134.7471499532 0.0513513322 0.0513513322
-0.3165106232 0.3899921179 0.0000000000 -0.0075502409 -0.0075502409 -33.8021922646 0.0513513322 0.0513513322
-0.3301907020 0.3745009510 0.0000000000 -0.0075502409 -0.0075502409 18.3812024619 0.0513513322 0.0513513322
-0.3432189226 0.3584576884 0.0000000000 -0.0075502409 -0.0075502409 70.9923929326 0.0513513322 0.0513513322
-0.3555730265 0.3418897398 0.0000000000 -0.0075502409 -0.0075502409 123.4914257086 0.0513513322 0.0513513322
-0.3672319070 0.3248254111 0.0000000000 -0.0075502409 -0.0075502409 175.3415092222 0.0513513322 0.0513513322
-0.3781756451 0.3072938566 0.0000000000 -0.0075502409 -0.0075502409 226.0145563614 0.0513513322 0.0513513322
-0.3883855435 0.2893250286 0.0000000000 -0.0075502409 -0.0075502409 274.9962150871 0.0513513322 0.0513513322
-0.3978441588 0.2709496265 0.0000000000 -0.0075502409 -0.0075502409 321.7904482674 0.0513513322 0.0513513322
-0.4065353312 0.2521990444 0.0000000000 -0.0075502409 -0.0075502409 365.9237217041 0.0513513322 0.0513513322
-0.4144442119 0.2331053173 0.0000000000 -0.0075502409 -0.0075502409 406.9488457767 0.0513513322 0.0513513322
-0.4215572887 0.2137010666 0.0000000000 -0.0075502409 -0.0075502409 444.4484985127 0.0513513322 0.0513513322
-0.4278624091 0.1940194441 0.0000000000 -0.0075502409 -0.0075502409 478.0384419184 0.0513513322 0.0513513322
-0.4333488008 0.1740940756 0.0000000000 -0.0075502409 -0.0075502409 507.3704319380 0.0513513322 0.0513513322
-0.4380070905 0.1539590031 0.0000000000 -0.0075502409 -0.0075502409 532.1348159284 0.0513513322 0.0513513322
-0.4418293195 0.1336486271 0.0000000000 -0.0075502409 -0.0075502409 552.0628091500 0.0513513322 0.0513513322
-0.4448089577 0.1131976476 0.0000000000 -0.0075502409 -0.0075502409 566.9284421515 0.0513513322 0.0513513322
-0.4469409143 0.0926410047 0.0000000000 -0.0075502409 -0.0075502409 576.5501728348 0.0513513322 0.0513513322
-0.4482215470 0.0720138191 0.0000000000 -0.0075502409 -0.0075502409 580.7921594628 0.0513513322 0.0513513322
-0.4486486678 0.0513513320 0.0000000000 -0.0075502409 -0.0075502409 579.5651932619 0.0513513322 0.0513513322
-0.4482215470 0.0306888449 0.0000000000 -0.0075502409 -0.0075502409 572.8272911510 0.0513513322 0.0513513322
-0.4469409143 0.0100616592 0.0000000000 -0.0075502409 -0.0075502409 560.5839503151 0.0513513322 0.0513513322
-0.4448089576 -0.0104949837 0.0000000000 -0.0075502409 -0.0075502409 542.8880668656 0.0513513322 0.0513513322
-0.4418293195 -0.0309459632 0.0000000000 -0.0075502409 -0.0075502409 519.8395208629 0.0513513322 0.0513513322
-0.4380070904 -0.0512563391 0.0000000000 -0.0075502409 -0.0075502409 491.5844298001 0.0513513322 0.0513513322
-0.4333488007 -0.0713914116 0.0000000000 -0.0075502409 -0.0075502409 458.3140725556 0.0513513322 0.0513513322
-0.4278624090 -0.0913167801 0.0000000000 -0.0075502409 -0.0075502409 420.2634860593 0.0513513322 0.0513513322
-0.4215572886 -0.1109984026 0.0000000000 -0.0075502409 -0.0075502409 377.7097375562 0.0513513322 0.0513513322
-0.4144442117 -0.1304026533 0.0000000000 -0.0075502409 -0.0075502409 330.9698763219 0.0513513322 0.0513513322
-0.4065353310 -0.1494963803 0.0000000000 -0.0075502409 -0.0075502409 280.3985697628 0.0513513322 0.0513513322
-0.3978441586 -0.1682469624 0.0000000000 -0.0075502409 -0.0075502409 226.3854297377 0.0513513322 0.0513513322
-0.3883855433 -0.1866223645 0.0000000000 -0.0075502409 -0.0075502409 169.3520353934 0.0513513322 0.0513513322
-0.3781756449 -0.2045911926 0.0000000000 -0.0075502409 -0.0075502409 109.7486586152 0.0513513322 0.0513513322
-0.3672319068 -0.2221227471 0.0000000000 -0.0075502409 -0.0075502409 48.0506972706 0.0513513322 0.0513513322
-0.3555730263 -0.2391870757 0.0000000000 -0.0075502409 -0.0075502409 -15.2451802223 0.0513513322 0.0513513322
-0.3432189224 -0.2557550243 0.0000000000 -0.0075502409 -0.0075502409 -79.6251776974 0.0513513322 0.0513513322
-0.3301907017 -0.2717982869 0.0000000000 -0.0075502409 -0.0075502409 -144.5628027494 0.0513513322 0.0513513322
-0.3165106230 -0.2872894538 0.0000000000 -0.0075502409 -0.0075502409 -209.5235909959 0.0513513322 0.0513513322
-0.2872894534 -0.3165106233 0.0000000000 -0.0075502409 -0.0075502409 -337.3673882741 0.0513513322 0.0513513322
-0.2717982865 -0.3301907021 0.0000000000 -0.0075502409 -0.0075502409 -399.1883659795 0.0513513322 0.0513513322
-0.2557550239 -0.3432189227 0.0000000000 -0.0075502409 -0.0075502409 -458.9200598116 0.0513513322 0.0513513322
-0.2391870753 -0.3555730266 0.0000000000 -0.0075502409 -0.0075502409 -516.0697563613 0.0513513322 0.0513513322
-0.2221227466 -0.3672319071 0.0000000000 -0.0075502409 -0.0075502409 -570.1716357071 0.0513513322 0.0513513322
-0.2045911921 -0.3781756451 0.0000000000 -0.0075502409 -0.0075502409 -620.7936608366 0.0513513322 0.0513513322
-0.1866223641 -0.3883855435 0.0000000000 -0.0075502409 -0.0075502409 -667.5446998999 0.0513513322 0.0513513322
-0.1682469620 -0.3978441589 0.0000000000 -0.0075502409 -0.0075502409 -710.0817932379 0.0513513322 0.0513513322
-0.1494963799 -0.4065353312 0.0000000000 -0.0075502409 -0.0075502409 -748.1174304709 0.0513513322 0.0513513322
-0.1304026528 -0.4144442119 0.0000000000 -0.0075502409 -0.0075502409 -781.4266448755 0.0513513322 0.0513513322
-0.1109984021 -0.4215572887 0.0000000000 -0.0075502409 -0.0075502409 -809.8536642871 0.0513513322 0.0513513322
-0.0913167797 -0.4278624091 0.0000000000 -0.0075502409 -0.0075502409 -833.3177838978 0.0513513322 0.0513513322
-0.0713914111 -0.4333488008 0.0000000000 -0.0075502409 -0.0075502409 -851.8180538410 0.0513513322 0.0513513322
-0.0512563386 -0.4380070905 0.0000000000 -0.0075502409 -0.0075502409 -865.4363147246 0.0513513322 0.0513513322
-0.0309459627 -0.4418293196 0.0000000000 -0.0075502409 -0.0075502409 -874.3380819557 0.0513513322 0.0513513322
-0.0104949831 -0.4448089577 0.0000000000 -0.0075502409 -0.0075502409 -878.7707929258 0.0513513322 0.0513513322
0.0100616598 -0.4469409143 0.0000000000 -0.0075502409 -0.0075502409 -879.0590061997 0.0513513322 0.0513513322
0.0306888454 -0.4482215470 0.0000000000 -0.0075502409 -0.0075502409 -875.5962943011 0.0513513322 0.0513513322
0.0513513325 -0.4486486678 0.0000000000 -0.0075502409 -0.0075502409 -868.8338003146 0.0513513322 0.0513513322
0.0720138196 -0.4482215470 0.0000000000 -0.0075502409 -0.0075502409 -859.2657313746 0.0513513322 0.0513513322
0.0926410052 -0.4469409143 0.0000000000 -0.0075502409 -0.0075502409 -847.4123899493 0.0513513322 0.0513513322
0.1131976481 -0.4448089576 0.0000000000 -0.0075502409 -0.0075502409 -833.8016886508 0.0513513322 0.0513513322
0.1336486276 -0.4418293195 0.0000000000 -0.0075502409 -0.0075502409 -818.9503172147 0.0513513322 0.0513513322
0.1539590036 -0.4380070904 0.0000000000 -0.0075502409 -0.0075502409 -803.3459380856 0.0513513322 0.0513513322
0.1740940761 -0.4333488007 0.0000000000 -0.0075502409 -0.0075502409 -787.4315937250 0.0513513322 0.0513513322
0.1940194446 -0.4278624089 0.0000000000 -0.0075502409 -0.0075502409 -771.5935875095 0.0513513322 0.0513513322
0.2137010671 -0.4215572885 0.0000000000 -0.0075502409 -0.0075502409 -756.1530089892 0.0513513322 0.0513513322
0.2331053178 -0.4144442117 0.0000000000 -0.0075502409 -0.0075502409 -741.3619306562 0.0513513322 0.0513513322
0.2521990448 -0.4065353310 0.0000000000 -0.0075502409 -0.0075502409 -727.4020645444 0.0513513322 0.0513513322
0.2709496269 -0.3978441586 0.0000000000 -0.0075502409 -0.0075502409 -714.3900092060 0.0513513322 0.0513513322
0.2893250290 -0.3883855432 0.0000000000 -0.0075502409 -0.0075502409 -702.3813175775 0.0513513322 0.0513513322
0.3072938570 -0.3781756448 0.0000000000 -0.0075502409 -0.0075502409 -691.3940742452 0.0513513322 0.0513513322
0.3248254115 -0.3672319067 0.0000000000 -0.0075502409 -0.0075502409 -681.4130534445 0.0513513322 0.0513513322
0.3418897402 -0.3555730262 0.0000000000 -0.0075502409 -0.0075502409 -672.4574965583 0.0513513322 0.0513513322
0.3584576888 -0.3432189223 0.0000000000 -0.0075502409 -0.0075502409 -664.5172192176 0.0513513322 0.0513513322
0.3745009514 -0.3301907017 0.0000000000 -0.0075502409 -0.0075502409 -657.7475096861 0.0513513322 0.0513513322
0.3899921183 -0.3165106229 0.0000000000 -0.0075502409 -0.0075502409 -652.0342044010 0.0513513322 0.0513513322
0.5925445536 -0.4676266269 0.0000000000 0.5113559141 0.0572259029 -632.4285330721 0.0427556494 0.0425029261
0.6114270537 -0.4468555374 0.0000000000 0.4237927124 0.0362135927 -634.1856516878 0.0429482610 0.0423600206
0.6295244004 -0.4253860503 0.0000000000 0.3520121140 0.0114263974 -636.7937253614 0.0431507882 0.0422313007
0.6468104726 -0.4032476706 0.0000000000 0.2971362786 -0.0159435841 -640.4290861942 0.0433621375 0.0421174682
0.6632602481 -0.3804709001 0.0000000000 0.2576010051 -0.0444059121 -645.1530807847 0.0435811671 0.0420191430
0.6788498431 -0.3570871975 0.0000000000 0.2296978631 -0.0724229792 -650.8741254881 0.0438066934 0.0419368595
0.6935565502 -0.3331289359 0.0000000000 0.2088111042 -0.0986909544 -657.3395923191 0.0440374971 0.0418710637
0.7073588750 -0.3086293596 0.0000000000 0.1906981585 -0.1223041005 -664.1516204090 0.0442723297 0.0418221112
0.7202365714 -0.2836225389 0.0000000000 0.1722527387 -0.1427526765 -670.7949117400 0.0445099203 0.0417902650
0.7321706748 -0.2581433233 0.0000000000 0.1516373694 -0.1598144024 -676.6699317854 0.0447489827 0.0417756945
0.7431435333 -0.2322272936 0.0000000000 0.1280313768 -0.1734284508 -681.1302557986 0.0449882217 0.0417784743
0.7531388384 -0.2059107124 0.0000000000 0.1012938293 -0.1836031624 -683.5232262833 0.0452263406 0.0417985837
0.7621416523 -0.1792304730 0.0000000000 0.0717043588 -0.1903658542 -683.2320992732 0.0454620478 0.0418359074
0.7701384340 -0.1522240478 0.0000000000 0.0398087823 -0.1937442746 -679.7178622916 0.0456940642 0.0418902357
0.7771170635 -0.1249294346 0.0000000000 0.0063369595 -0.1937672246 -672.5591341642 0.0459211292 0.0419612655
0.7830668637 -0.0973851024 0.0000000000 -0.0278438761 -0.1904745023 -661.4881138745 0.0461420087 0.0420486026
0.7879786202 -0.0696299363 0.0000000000 -0.0617637799 -0.1839295700 -646.4197193843 0.0463555005 0.0421517630
0.7918445990 -0.0417031808 0.0000000000 -0.0943844683 -0.1742318475 -627.4705687118 0.0465604415 0.0422701759
0.7946585620 -0.0136443829 0.0000000000 -0.1246388477 -0.1615284788 -604.9646081980 0.0467557141 0.0424031869
0.7964157801 0.0145066658 0.0000000000 -0.1514787338 -0.1460267028 -579.4228341931 0.0469402515 0.0425500612
0.7971130440 0.0427099878 0.0000000000 -0.1739325209 -0.1280072741 -551.5355595230 0.0471130440 0.0427099875
0.7967486732 0.0709254786 0.0000000000 -0.1911722863 -0.1078374977 -522.1172567730 0.0472731446 0.0428820826
0.7953225216 0.0991129666 0.0000000000 -0.2025859246 -0.0859807380 -492.0464677366 0.0474196737 0.0430653961
0.7928359815 0.1272322725 0.0000000000 -0.2078456480 -0.0629989409 -462.1964288271 0.0475518241 0.0432589152
0.7892919851 0.1552432700 0.0000000000 -0.2069617292 -0.0395461309 -433.3650023558 0.0476688655 0.0434615701
0.7846950032 0.1831059460 0.0000000000 -0.2003113355 -0.0163534324 -406.2139336038 0.0477701484 0.0436722404
0.7790510417 0.2107804607 0.0000000000 -0.1886366570 0.0057913380 -381.2265052668 0.0478551077 0.0438897600
0.7723676356 0.2382272085 0.0000000000 -0.1730125430 0.0260653976 -358.6894273142 0.0479232659 0.0441129245
0.7646538402 0.2654068778 0.0000000000 -0.1547889592 0.0436314890 -338.7002115753 0.0479742359 0.0443404968
0.7559202205 0.2922805109 0.0000000000 -0.1355151361 0.0576595006 -321.1965435345 0.0480077229 0.0445712143
0.7461788378 0.3188095638 0.0000000000 -0.1168482737 0.0673593912 -306.0003663945 0.0480235264 0.0448037953
0.7354432333 0.3449559649 0.0000000000 -0.1004392593 0.0720433203 -292.8674722683 0.0480215414 0.0450369465
0.7237284101 0.3706821739 0.0000000000 -0.0877714467 0.0712370594 -281.5341569737 0.0480017592 0.0452693694
0.7110508124 0.3959512389 0.0000000000 -0.0799074790 0.0648520990 -271.7567469934 0.0479642673 0.0454997675
0.6974283024 0.4207268540 0.0000000000 -0.0770858510 0.0534061598 -263.3477275539 0.0479092496 0.0457268539
0.6828801345 0.4449734150 0.0000000000 -0.0781595143 0.0382319997 -256.2174969470 0.0478369851 0.0459493575
0.6674269277 0.4686560741 0.0000000000 -0.0800727221 0.0215358597 -250.4153605332 0.0477478470 0.0461660304
0.6510906353 0.4917407942 0.0000000000 -0.0778664313 0.0061102846 -246.1230488162 0.0476423006 0.0463756550
0.6338945127 0.5141944014 0.0000000000 -0.0656859770 -0.0053828816 -243.5443230798 0.0475209009 0.0465770499
0.6158630825 0.5359846360 0.0000000000 -0.0385951229 -0.0113046211 -242.7205036942 0.0473842902 0.0467690775
0.5970220982 0.5570802027 0.0000000000 0.0058346557 -0.0115653701 -243.4067432609 0.0472331943 0.0469506493
0.5548325953 0.5990871486 0.0000000000 0.1520987304 0.0002381844 -247.6855394609 0.0468714166 0.0472942155
0.5313845001 0.6197643125 0.0000000000 0.2513279273 0.0094118806 -250.3011991579 0.0466600717 0.0474512613
0.5070953086 0.6394461448 0.0000000000 0.3617126149 0.0194795625 -252.7612605472 0.0464357741 0.0475907627
0.4820076138 0.6580982667 0.0000000000 0.4803765525 0.0308581295 -255.0451700895 0.0462000023 0.0477117287
0.4561654326 0.6756881502 0.0000000000 0.6037873198 0.0443316044 -257.2489139489 0.0459543141 0.0478132915
0.4296141231 0.6921851789 0.0000000000 0.7272611002 0.0603967278 -259.4710034662 0.0457003364 0.0478947131
0.4024002992 0.7075607039 0.0000000000 0.8453856107 0.0789628380 -261.7331799628 0.0454397545 0.0479553904
0.3745717427 0.7217880966 0.0000000000 0.9530380710 0.0994173870 -263.9609509776 0.0451743011 0.0479948602
0.3461773129 0.7348427971 0.0000000000 1.0463639311 0.1208821205 -266.0182906623 0.0449057445 0.0480128020
0.3172668545 0.7467023578 0.0000000000 1.1232978193 0.1424816014 -267.7583225566 0.0446358767 0.0480090417
0.2878911037 0.7573464836 0.0000000000 1.1835639636 0.1635303104 -269.0573375677 0.0443665019 0.0479835523
0.2581015918 0.7667570672 0.0000000000 1.2283096216 0.1836176820 -269.8245145854 0.0440994238 0.0479364553
0.2279505486 0.7749182195 0.0000000000 1.2595765280 0.2026069104 -269.9950268245 0.0438364333 0.0478680200
0.1974908035 0.7818162965 0.0000000000 1.2797790344 0.2205770699 -269.5161107396 0.0435792970 0.0477786625
0.1667756867 0.7874399207 0.0000000000 1.2912927919 0.2377403521 -268.3327381203 0.0433297441 0.0476689431
0.1358589286 0.7917799981 0.0000000000 1.2961937362 0.2543607188 -266.3767743437 0.0430894553 0.0475395633
0.1047945599 0.7948297311 0.0000000000 1.2961386815 0.2706901537 -263.5614797655 0.0428600509 0.0473913613
0.0736368098 0.7965846256 0.0000000000 1.2923521783 0.2869282188 -259.7815253888 0.0426430793 0.0472253068
0.0424400063 0.7970424950 0.0000000000 1.2856774776 0.3032030267 -254.9174136663 0.0424400065 0.0470424950
0.0112584747 0.7962034581 0.0000000000 1.2766555496 0.3195680170 -248.8425581647 0.0422522055 0.0468441393
-0.0198535623 0.7940699331 0.0000000000 1.2656074934 0.3360083247 -241.4312877266 0.0420809470 0.0466315634
-0.0508420838 0.7906466274 0.0000000000 1.2527068683 0.3524516794 -232.5664653692 0.0419273898 0.0464061927
-0.0816533701 0.7859405221 0.0000000000 1.2380368310 0.3687804691 -222.1459588330 0.0417925728 0.0461695446
-0.1122340995 0.7799608524 0.0000000000 1.2216320052 0.3848431282 -210.0876659720 0.0416774073 0.0459232185
-0.1425314449 0.7727190842 0.0000000000 1.2035073927 0.4004640807 -196.3331038932 0.0415826707 0.0456688848
-0.1724931684 0.7642288855 0.0000000000 1.1836773107 0.4154520998 -180.8497238589 0.0415090000 0.0454082737
-0.2020677144 0.7545060945 0.0000000000 1.1621671363 0.4296072401 -163.6321609715 0.0414568877 0.0451431632
-0.2312043003 0.7435686829 0.0000000000 1.1390200870 0.4427265925 -144.7026176693 0.0414266778 0.0448753669
-0.2598530060 0.7314367162 0.0000000000 1.1143006797 0.4546091040 -124.1105486310 0.0414185627 0.0446067213
-0.2879648599 0.7181323095 0.0000000000 1.0880960099 0.4650596546 -101.9317815911 0.0414325819 0.0443390732
-0.3154919238 0.7036795800 0.0000000000 1.0605156135 0.4738925321 -78.2671818071 0.0414686212 0.0440742667
-0.3423873740 0.6881045957 0.0000000000 1.0316904128 0.4809343983 -53.2409487892 0.0415264129 0.0438141300
-0.3686055807 0.6714353217 0.0000000000 1.0017710710 0.4860268076 -26.9986208533 0.0416055380 0.0435604631
-0.3941021836 0.6537015619 0.0000000000 0.9709259670 0.4890283201 0.2951461330 0.0417054282 0.0433150241
-0.4188341650 0.6349348995 0.0000000000 0.9393389310 0.4898162351 28.4589665752 0.0418253697 0.0430795176
-0.4427599203 0.6151686329 0.0000000000 0.9072068391 0.4882879694 57.2972265623 0.0419645083 0.0428555819
-0.4658393238 0.5944377105 0.0000000000 0.8747371335 0.4843620986 86.6026517878 0.0421218551 0.0426447777
-0.5093063481 0.5502295282 0.0000000000 0.8096524819 0.4691016864 145.7431460907 0.0424865851 0.0422683497
-0.5296216690 0.5268297882 0.0000000000 0.7774828346 0.4577151419 175.1286161946 0.0426913823 0.0421053600
-0.5489461483 0.5026202852 0.0000000000 0.7458613559 0.4438270328 204.0870645832 0.0429092339 0.0419607508
-0.5672479410 0.4776431498 0.0000000000 0.7150115001 0.4274669660 232.3911495143 0.0431385970 0.0418355384
-0.5844970109 0.4519417230 0.0000000000 0.6851530225 0.4086860295 259.8167009781 0.0433778480 0.0417306046
-0.6006651726 0.4255604768 0.0000000000 0.6564999243 0.3875560667 286.1448605165 0.0436252934 0.0416466902
-0.6157261310 0.3985449340 0.0000000000 0.6292585338 0.3641687898 311.1640821360 0.0438791826 0.0415843895
-0.6296555166 0.3709415874 0.0000000000 0.6036257331 0.3386347487 334.6719868644 0.0441377199 0.0415441460
-0.6424309175 0.3427978174 0.0000000000 0.5797873356 0.3110821736 356.4770669868 0.0443990776 0.0415262492
-0.6540319072 0.3141618098 0.0000000000 0.5579166195 0.2816557065 376.4002381759 0.0446614089 0.0415308321
-0.6644400702 0.2850824723 0.0000000000 0.5381730196 0.2505150356 394.2762386106 0.0449228611 0.0415578706
-0.6736390229 0.2556093511 0.0000000000 0.5207009818 0.2178334490 409.9548745768 0.0451815891 0.0416071832
-0.6816144313 0.2257925477 0.0000000000 0.5056289873 0.1837963179 423.3021129238 0.0454357683 0.0416784326
-0.6883540261 0.1956826342 0.0000000000 0.4930687447 0.1485995164 434.2010216193 0.0456836080 0.0417711279
-0.6938476135 0.1653305705 0.0000000000 0.4831145318 0.1124477751 442.5525582770 0.0459233641 0.0418846281
-0.6980870832 0.1347876202 0.0000000000 0.4758426505 0.0755529747 448.2762010835 0.0461533516 0.0420181471
-0.7010664132 0.1041052676 0.0000000000 0.4713109465 0.0381323987 451.3104107721 0.0463719566 0.0421707588
-0.7027816712 0.0733351346 0.0000000000 0.4695583780 0.0004069883 451.6129159394 0.0465776476 0.0423414042
-0.7032310132 0.0425288988 0.0000000000 0.4706046670 -0.0374003556 449.1608297699 0.0467689868 0.0425288991
-0.7024146786 0.0117382112 0.0000000000 0.4744501112 -0.0750664027 443.9506292638 0.0469446401 0.0427319422
-0.7003349833 -0.0189853842 0.0000000000 0.4810755923 -0.1123691611 435.9980183966 0.0471033864 0.0429491252
-0.6969963087 -0.0495905314 0.0000000000 0.4904428013 -0.1490893944 425.3376890201 0.0472441261 0.0431789424
-0.6924050884 -0.0800261415 0.0000000000 0.5024947122 -0.1850121123 412.0229907566 0.0473658891 0.0434198015