 TITLE = "Tecplot data"
 VARIABLES = "X", "Y", "Z" "U", "V", "p", "dispX", "dispY"
 ZONE SOLUTIONTIME=119.900000, NODES=26114 , ELEMENTS=25916, DATAPACKING=POINT, ZONETYPE=FEQUADRILATERAL
1.3964609129 -4.4848284258 0.0000000000 0.0000000000 0.0000000000 -186.7579369904 1.0429075224 -4.8383818164
1.3964609132 -5.1919352068 0.0000000000 0.0000000000 0.0000000000 -2865.4275354410 1.0429075224 -4.8383818164
0.6893541317 -4.4848284260 0.0000000000 0.0000000000 0.0000000000 395.6837549221 1.0429075224 -4.8383818164
0.6893541319 -5.1919352072 0.0000000000 0.0000000000 0.0000000000 -1055.5272372271 1.0429075224 -4.8383818164
1.5553827450 -4.2892869848 0.0000000000 0.2560745102 -0.2636493219 -164.6000133355 1.0250526591 -4.8196170707
1.5893859609 -5.3452261002 0.0000000000 1.2934534511 0.6150941471 -1289.1450696933 1.0590558746 -4.8148960147
0.5035591998 -4.3083559675 0.0000000000 0.1514037622 0.1867312454 427.9077234223 1.0338892858 -4.8386860532
0.5161524982 -5.3698798348 0.0000000000 1.6389112464 -1.1367572575 -292.9817709263 1.0464825839 -4.8395497487
1.9869734994 -3.6365444131 0.0000000000 0.4170414177 -0.3194900323 -108.8738433448 0.9263133278 -4.6972045850
2.1970815911 -5.7412375601 0.0000000000 1.2277094956 -0.0095986413 -467.4520304291 1.1364214186 -4.6805773891
-0.0707715256 -3.7710084630 0.0000000000 0.5292559137 -0.3988008035 374.3523276610 0.9898886465 -4.8316686345
0.0116969651 -5.8982686669 0.0000000000 1.3059037402 -0.5655383261 39.8313455653 1.0723571363 -4.8376084946
4.6527521271 -0.6648150279 0.0000000000 0.4323449552 -0.1028302817 -132.8146248210 0.4527521271 -3.9648150279
5.7076247638 -7.2247193124 0.0000000000 1.5604090373 -0.1094365640 -262.5943006616 1.5076247638 -3.9247193124
20.0000000000 4.7000000000 0.0000000000 1.1528507998 -0.3088793596 -0.4508279484 0.0000000000 0.0000000000
20.0000000000 -4.7000000000 0.0000000000 0.8735724691 -0.1007654413 1.7857788600 0.0000000000 0.0000000000
-10.0000000000 15.0000000000 0.0000000000 1.0000000000 0.0000000000 125.1856518644 0.0000000000 0.0000000000
20.0000000000 15.0000000000 0.0000000000 1.1289223745 0.0000000000 -0.1689796004 0.0000000000 0.0000000000
20.0000000000 -15.0000000000 0.0000000000 1.0952111908 0.0000000000 0.1415341191 0.0000000000 0.0000000000
-10.0000000000 -15.0000000000 0.0000000000 1.0000000000 0.0000000000 53.2717338225 0.0000000000 0.0000000000
1.4094334585 -5.1784681851 0.0000000000 0.0000000000 0.0000000000 -2802.8383099741 1.0429075224 -4.8383818164
1.4218933842 -5.1645255218 0.0000000000 0.0000000000 0.0000000000 -2707.3455034800 1.0429075224 -4.8383818164
1.4338232638 -5.1501267171 0.0000000000 0.0000000000 0.0000000000 -2625.7706158184 1.0429075224 -4.8383818164
1.4452064124 -5.1352919090 0.0000000000 0.0000000000 0.0000000000 -2533.2900380628 1.0429075224 -4.8383818164
1.4560269097 -5.1200418452 0.0000000000 0.0000000000 0.0000000000 -2442.6758480113 1.0429075224 -4.8383818164
1.4662696221 -5.1043978544 0.0000000000 0.0000000000 0.0000000000 -2348.0536244072 1.0429075224 -4.8383818164
1.4759202244 -5.0883818162 0.0000000000 0.0000000000 0.0000000000 -2253.1560188401 1.0429075224 -4.8383818164
1.4849652193 -5.0720161303 0.0000000000 0.0000000000 0.0000000000 -2156.7269479686 1.0429075224 -4.8383818164
1.4933919564 -5.0553236857 0.0000000000 0.0000000000 0.0000000000 -2060.1165744147 1.0429075224 -4.8383818164
1.5011886504 -5.0383278283 0.0000000000 0.0000000000 0.0000000000 -1963.2828388494 1.0429075224 -4.8383818164
1.5083443968 -5.0210523284 0.0000000000 0.0000000000 0.0000000000 -1866.8979079395 1.0429075224 -4.8383818164
1.5148491876 -5.0035213472 0.0000000000 0.0000000000 0.0000000000 -1771.2241790127 1.0429075224 -4.8383818164
1.5206939253 -4.9857594034 0.0000000000 0.0000000000 0.0000000000 -1676.7101181937 1.0429075224 -4.8383818164
1.5258704356 -4.9677913387 0.0000000000 0.0000000000 0.0000000000 -1583.6673249520 1.0429075224 -4.8383818164
1.5303714785 -4.9496422832 0.0000000000 0.0000000000 0.0000000000 -1492.4421161845 1.0429075224 -4.8383818164
1.5341907590 -4.9313376198 0.0000000000 0.0000000000 0.0000000000 -1403.3206233810 1.0429075224 -4.8383818164
1.5373229355 -4.9129029493 0.0000000000 0.0000000000 0.0000000000 -1316.5791982744 1.0429075224 -4.8383818164
1.5397636273 -4.8943640543 0.0000000000 0.0000000000 0.0000000000 -1232.4560218688 1.0429075224 -4.8383818164
1.5415094210 -4.8757468630 0.0000000000 0.0000000000 0.0000000000 -1151.1664598688 1.0429075224 -4.8383818164
1.5425578748 -4.8570774134 0.0000000000 0.0000000000 0.0000000000 -1072.8947365043 1.0429075224 -4.8383818164
1.5429075224 -4.8383818162 0.0000000000 0.0000000000 0.0000000000 -997.7991661562 1.0429075224 -4.8383818164
1.5425578747 -4.8196862191 0.0000000000 0.0000000000 0.0000000000 -926.0102022921 1.0429075224 -4.8383818164
1.5415094209 -4.8010167695 0.0000000000 0.0000000000 0.0000000000 -857.6328453214 1.0429075224 -4.8383818164
1.5397636273 -4.7823995782 0.0000000000 0.0000000000 0.0000000000 -792.7468529499 1.0429075224 -4.8383818164
1.5373229354 -4.7638606832 0.0000000000 0.0000000000 0.0000000000 -731.4084216853 1.0429075224 -4.8383818164
1.5341907589 -4.7454260127 0.0000000000 0.0000000000 0.0000000000 -673.6510934503 1.0429075224 -4.8383818164
1.5303714784 -4.7271213493 0.0000000000 0.0000000000 0.0000000000 -619.4872659127 1.0429075224 -4.8383818164
1.5258704355 -4.7089722937 0.0000000000 0.0000000000 0.0000000000 -568.9090469633 1.0429075224 -4.8383818164
1.5206939252 -4.6910042291 0.0000000000 0.0000000000 0.0000000000 -521.8898722329 1.0429075224 -4.8383818164
1.5148491875 -4.6732422853 0.0000000000 0.0000000000 0.0000000000 -478.3843984961 1.0429075224 -4.8383818164
1.5083443966 -4.6557113041 0.0000000000 0.0000000000 0.0000000000 -438.3311415797 1.0429075224 -4.8383818164
1.5011886502 -4.6384358042 0.0000000000 0.0000000000 0.0000000000 -401.6488484329 1.0429075224 -4.8383818164
1.4933919563 -4.6214399468 0.0000000000 0.0000000000 0.0000000000 -368.2437809778 1.0429075224 -4.8383818164
1.4849652191 -4.6047475022 0.0000000000 0.0000000000 0.0000000000 -337.9935434686 1.0429075224 -4.8383818164
1.4759202242 -4.5883818164 0.0000000000 0.0000000000 0.0000000000 -310.7735116155 1.0429075224 -4.8383818164
1.4662696219 -4.5723657781 0.0000000000 0.0000000000 0.0000000000 -286.3969694832 1.0429075224 -4.8383818164
1.4560269095 -4.5567217873 0.0000000000 0.0000000000 0.0000000000 -264.7187105818 1.0429075224 -4.8383818164
1.4452064122 -4.5414717236 0.0000000000 0.0000000000 0.0000000000 -245.4215464199 1.0429075224 -4.8383818164
1.4338232635 -4.5266369155 0.0000000000 0.0000000000 0.0000000000 -228.4187829129 1.0429075224 -4.8383818164
1.4218933839 -4.5122381108 0.0000000000 0.0000000000 0.0000000000 -213.0745315917 1.0429075224 -4.8383818164
1.4094334582 -4.4982954475 0.0000000000 0.0000000000 0.0000000000 -199.7234171694 1.0429075224 -4.8383818164
1.3815483081 -4.4705198611 0.0000000000 0.0000000000 0.0000000000 -174.6386323111 1.0429075224 -4.8383818164
1.3660571412 -4.4568397823 0.0000000000 0.0000000000 0.0000000000 -162.3330262238 1.0429075224 -4.8383818164
1.3500138787 -4.4438115617 0.0000000000 0.0000000000 0.0000000000 -150.9343531123 1.0429075224 -4.8383818164
1.3334459300 -4.4314574578 0.0000000000 0.0000000000 0.0000000000 -139.3401638254 1.0429075224 -4.8383818164
1.3163816014 -4.4197985773 0.0000000000 0.0000000000 0.0000000000 -127.8644454247 1.0429075224 -4.8383818164
1.2988500468 -4.4088548392 0.0000000000 0.0000000000 0.0000000000 -116.0849097611 1.0429075224 -4.8383818164
1.2808812188 -4.3986449408 0.0000000000 0.0000000000 0.0000000000 -104.1056468987 1.0429075224 -4.8383818164
1.2625058167 -4.3891863255 0.0000000000 0.0000000000 0.0000000000 -91.7799238259 1.0429075224 -4.8383818164
1.2437552346 -4.3804951531 0.0000000000 0.0000000000 0.0000000000 -79.1512117631 1.0429075224 -4.8383818164
1.2246615076 -4.3725862724 0.0000000000 0.0000000000 0.0000000000 -66.1744242394 1.0429075224 -4.8383818164
1.2052572569 -4.3654731956 0.0000000000 0.0000000000 0.0000000000 -52.8699690480 1.0429075224 -4.8383818164
1.1855756344 -4.3591680752 0.0000000000 0.0000000000 0.0000000000 -39.2262670161 1.0429075224 -4.8383818164
1.1656502658 -4.3536816835 0.0000000000 0.0000000000 0.0000000000 -25.2539047415 1.0429075224 -4.8383818164
1.1455151934 -4.3490233938 0.0000000000 0.0000000000 0.0000000000 -10.9525336383 1.0429075224 -4.8383818164
1.1252048174 -4.3452011647 0.0000000000 0.0000000000 0.0000000000 3.6702693791 1.0429075224 -4.8383818164
1.1047538379 -4.3422215266 0.0000000000 0.0000000000 0.0000000000 18.6100645556 1.0429075224 -4.8383818164
1.0841971950 -4.3400895699 0.0000000000 0.0000000000 0.0000000000 33.8591581287 1.0429075224 -4.8383818164
1.0635700094 -4.3388089372 0.0000000000 0.0000000000 0.0000000000 49.4102261432 1.0429075224 -4.8383818164
1.0429075223 -4.3383818164 0.0000000000 0.0000000000 0.0000000000 65.2541670929 1.0429075224 -4.8383818164
1.0222450351 -4.3388089373 0.0000000000 0.0000000000 0.0000000000 81.3811920089 1.0429075224 -4.8383818164
1.0016178495 -4.3400895699 0.0000000000 0.0000000000 0.0000000000 97.7800330211 1.0429075224 -4.8383818164
0.9810612066 -4.3422215266 0.0000000000 0.0000000000 0.0000000000 114.4381480391 1.0429075224 -4.8383818164
0.9606102271 -4.3452011648 0.0000000000 0.0000000000 0.0000000000 131.3413121519 1.0429075224 -4.8383818164
0.9402998511 -4.3490233938 0.0000000000 0.0000000000 0.0000000000 148.4734857407 1.0429075224 -4.8383818164
0.9201647787 -4.3536816835 0.0000000000 0.0000000000 0.0000000000 165.8164697273 1.0429075224 -4.8383818164
0.9002394101 -4.3591680752 0.0000000000 0.0000000000 0.0000000000 183.3496120389 1.0429075224 -4.8383818164
0.8805577876 -4.3654731956 0.0000000000 0.0000000000 0.0000000000 201.0494205402 1.0429075224 -4.8383818164
0.8611535370 -4.3725862725 0.0000000000 0.0000000000 0.0000000000 218.8891558068 1.0429075224 -4.8383818164
0.8420598099 -4.3804951532 0.0000000000 0.0000000000 0.0000000000 236.8383608147 1.0429075224 -4.8383818164
0.8233092278 -4.3891863256 0.0000000000 0.0000000000 0.0000000000 254.8623450678 1.0429075224 -4.8383818164
0.8049338257 -4.3986449409 0.0000000000 0.0000000000 0.0000000000 272.9216097490 1.0429075224 -4.8383818164
0.7869649977 -4.4088548393 0.0000000000 0.0000000000 0.0000000000 290.9712180218 1.0429075224 -4.8383818164
0.7694334432 -4.4197985774 0.0000000000 0.0000000000 0.0000000000 308.9601096546 1.0429075224 -4.8383818164
0.7523691145 -4.4314574579 0.0000000000 0.0000000000 0.0000000000 326.8303685170 1.0429075224 -4.8383818164
0.7358011659 -4.4438115618 0.0000000000 0.0000000000 0.0000000000 344.5164569019 1.0429075224 -4.8383818164
0.7197579033 -4.4568397824 0.0000000000 0.0000000000 0.0000000000 361.9444381871 1.0429075224 -4.8383818164
0.7042667364 -4.4705198612 0.0000000000 0.0000000000 0.0000000000 379.0312094327 1.0429075224 -4.8383818164
0.6750455669 -4.4997410307 0.0000000000 0.0000000000 0.0000000000 411.7984074067 1.0429075224 -4.8383818164
0.6613654882 -4.5152321976 0.0000000000 0.0000000000 0.0000000000 427.2600748373 1.0429075224 -4.8383818164
0.6483372676 -4.5312754602 0.0000000000 0.0000000000 0.0000000000 441.9413766269 1.0429075224 -4.8383818164
0.6359831636 -4.5478434089 0.0000000000 0.0000000000 0.0000000000 455.7016585767 1.0429075224 -4.8383818164
0.6243242831 -4.5649077375 0.0000000000 0.0000000000 0.0000000000 468.3859501408 1.0429075224 -4.8383818164
0.6133805451 -4.5824392920 0.0000000000 0.0000000000 0.0000000000 479.8241051272 1.0429075224 -4.8383818164
0.6031706467 -4.6004081201 0.0000000000 0.0000000000 0.0000000000 489.8305696776 1.0429075224 -4.8383818164
0.5937120313 -4.6187835222 0.0000000000 0.0000000000 0.0000000000 498.2053487418 1.0429075224 -4.8383818164
0.5850208590 -4.6375341043 0.0000000000 0.0000000000 0.0000000000 504.7366976675 1.0429075224 -4.8383818164
0.5771119783 -4.6566278313 0.0000000000 0.0000000000 0.0000000000 509.2057833481 1.0429075224 -4.8383818164
0.5699989014 -4.6760320820 0.0000000000 0.0000000000 0.0000000000 511.3930269411 1.0429075224 -4.8383818164
0.5636937811 -4.6957137045 0.0000000000 0.0000000000 0.0000000000 511.0851003812 1.0429075224 -4.8383818164
0.5582073893 -4.7156390731 0.0000000000 0.0000000000 0.0000000000 508.0806975183 1.0429075224 -4.8383818164
0.5535490997 -4.7357741455 0.0000000000 0.0000000000 0.0000000000 502.1924816752 1.0429075224 -4.8383818164
0.5497268706 -4.7560845215 0.0000000000 0.0000000000 0.0000000000 493.2425152196 1.0429075224 -4.8383818164
0.5467472325 -4.7765355010 0.0000000000 0.0000000000 0.0000000000 481.0496211982 1.0429075224 -4.8383818164
0.5446152758 -4.7970921439 0.0000000000 0.0000000000 0.0000000000 465.4098459927 1.0429075224 -4.8383818164
0.5433346432 -4.8177193295 0.0000000000 0.0000000000 0.0000000000 446.0749212806 1.0429075224 -4.8383818164
0.5429075224 -4.8383818166 0.0000000000 0.0000000000 0.0000000000 422.7366501331 1.0429075224 -4.8383818164
0.5433346432 -4.8590443038 0.0000000000 0.0000000000 0.0000000000 395.0253091941 1.0429075224 -4.8383818164
0.5446152759 -4.8796714894 0.0000000000 0.0000000000 0.0000000000 362.5263987204 1.0429075224 -4.8383818164
0.5467472325 -4.9002281323 0.0000000000 0.0000000000 0.0000000000 324.8136171740 1.0429075224 -4.8383818164
0.5497268707 -4.9206791118 0.0000000000 0.0000000000 0.0000000000 281.4899303388 1.0429075224 -4.8383818164
0.5535490997 -4.9409894878 0.0000000000 0.0000000000 0.0000000000 232.2261062405 1.0429075224 -4.8383818164
0.5582073894 -4.9611245602 0.0000000000 0.0000000000 0.0000000000 176.7880527733 1.0429075224 -4.8383818164
0.5636937812 -4.9810499288 0.0000000000 0.0000000000 0.0000000000 115.0491679908 1.0429075224 -4.8383818164
0.5699989016 -5.0007315513 0.0000000000 0.0000000000 0.0000000000 46.9889749659 1.0429075224 -4.8383818164
0.5771119784 -5.0201358019 0.0000000000 0.0000000000 0.0000000000 -27.3175438768 1.0429075224 -4.8383818164
0.5850208591 -5.0392295290 0.0000000000 0.0000000000 0.0000000000 -107.7148341446 1.0429075224 -4.8383818164
0.5937120315 -5.0579801111 0.0000000000 0.0000000000 0.0000000000 -193.9819304797 1.0429075224 -4.8383818164
0.6031706469 -5.0763555132 0.0000000000 0.0000000000 0.0000000000 -285.8456747521 1.0429075224 -4.8383818164
0.6133805453 -5.0943243412 0.0000000000 0.0000000000 0.0000000000 -382.9912881014 1.0429075224 -4.8383818164
0.6243242834 -5.1118558957 0.0000000000 0.0000000000 0.0000000000 -485.0703794188 1.0429075224 -4.8383818164
0.6359831639 -5.1289202243 0.0000000000 0.0000000000 0.0000000000 -591.7068725966 1.0429075224 -4.8383818164
0.6483372678 -5.1454881730 0.0000000000 0.0000000000 0.0000000000 -702.5010754558 1.0429075224 -4.8383818164
0.6613654884 -5.1615314356 0.0000000000 0.0000000000 0.0000000000 -817.0324622922 1.0429075224 -4.8383818164
0.6750455672 -5.1770226024 0.0000000000 0.0000000000 0.0000000000 -934.8608385577 1.0429075224 -4.8383818164
0.7042667367 -5.2062437720 0.0000000000 0.0000000000 0.0000000000 -1178.5530459831 1.0429075224 -4.8383818164
0.7197579036 -5.2199238507 0.0000000000 0.0000000000 0.0000000000 -1303.4404232378 1.0429075224 -4.8383818164
0.7358011662 -5.2329520713 0.0000000000 0.0000000000 0.0000000000 -1429.6713106252 1.0429075224 -4.8383818164
0.7523691149 -5.2453061752 0.0000000000 0.0000000000 0.0000000000 -1556.7081793962 1.0429075224 -4.8383818164
0.7694334435 -5.2569650557 0.0000000000 0.0000000000 0.0000000000 -1683.9945486245 1.0429075224 -4.8383818164
0.7869649980 -5.2679087938 0.0000000000 0.0000000000 0.0000000000 -1810.9569278102 1.0429075224 -4.8383818164
0.8049338261 -5.2781186922 0.0000000000 0.0000000000 0.0000000000 -1937.0071163820 1.0429075224 -4.8383818164
0.8233092282 -5.2875773075 0.0000000000 0.0000000000 0.0000000000 -2061.5455284105 1.0429075224 -4.8383818164
0.8420598103 -5.2962684799 0.0000000000 0.0000000000 0.0000000000 -2183.9649660805 1.0429075224 -4.8383818164
0.8611535373 -5.3041773606 0.0000000000 0.0000000000 0.0000000000 -2303.6550246275 1.0429075224 -4.8383818164
0.8805577880 -5.3112904374 0.0000000000 0.0000000000 0.0000000000 -2420.0068097973 1.0429075224 -4.8383818164
0.9002394105 -5.3175955578 0.0000000000 0.0000000000 0.0000000000 -2532.4179693874 1.0429075224 -4.8383818164
0.9201647791 -5.3230819495 0.0000000000 0.0000000000 0.0000000000 -2640.2978147476 1.0429075224 -4.8383818164
0.9402998515 -5.3277402392 0.0000000000 0.0000000000 0.0000000000 -2743.0724644839 1.0429075224 -4.8383818164
0.9606102275 -5.3315624682 0.0000000000 0.0000000000 0.0000000000 -2840.1899149462 1.0429075224 -4.8383818164
0.9810612070 -5.3345421063 0.0000000000 0.0000000000 0.0000000000 -2931.1250056993 1.0429075224 -4.8383818164
1.0016178499 -5.3366740630 0.0000000000 0.0000000000 0.0000000000 -3015.3841604319 1.0429075224 -4.8383818164
1.0222450355 -5.3379546956 0.0000000000 0.0000000000 0.0000000000 -3092.5098106605 1.0429075224 -4.8383818164
1.0429075227 -5.3383818164 0.0000000000 0.0000000000 0.0000000000 -3162.0844471215 1.0429075224 -4.8383818164
1.0635700098 -5.3379546956 0.0000000000 0.0000000000 0.0000000000 -3223.7343623632 1.0429075224 -4.8383818164
1.0841971954 -5.3366740629 0.0000000000 0.0000000000 0.0000000000 -3277.1332133673 1.0429075224 -4.8383818164
1.1047538383 -5.3345421063 0.0000000000 0.0000000000 0.0000000000 -3322.0052321096 1.0429075224 -4.8383818164
1.1252048178 -5.3315624681 0.0000000000 0.0000000000 0.0000000000 -3358.1285566722 1.0429075224 -4.8383818164
1.1455151938 -5.3277402390 0.0000000000 0.0000000000 0.0000000000 -3385.3370612477 1.0429075224 -4.8383818164
1.1656502662 -5.3230819493 0.0000000000 0.0000000000 0.0000000000 -3403.5238280088 1.0429075224 -4.8383818164
1.1855756348 -5.3175955576 0.0000000000 0.0000000000 0.0000000000 -3412.6394876696 1.0429075224 -4.8383818164
1.2052572573 -5.3112904372 0.0000000000 0.0000000000 0.0000000000 -3412.6972926280 1.0429075224 -4.8383818164
1.2246615079 -5.3041773603 0.0000000000 0.0000000000 0.0000000000 -3403.7679297496 1.0429075224 -4.8383818164
1.2437552350 -5.2962684796 0.0000000000 0.0000000000 0.0000000000 -3385.9767273690 1.0429075224 -4.8383818164
1.2625058171 -5.2875773072 0.0000000000 0.0000000000 0.0000000000 -3359.5333252850 1.0429075224 -4.8383818164
1.2808812192 -5.2781186919 0.0000000000 0.0000000000 0.0000000000 -3324.6052585307 1.0429075224 -4.8383818164
1.2988500472 -5.2679087935 0.0000000000 0.0000000000 0.0000000000 -3281.6730798715 1.0429075224 -4.8383818164
1.3163816017 -5.2569650554 0.0000000000 0.0000000000 0.0000000000 -3230.6398258732 1.0429075224 -4.8383818164
1.3334459303 -5.2453061749 0.0000000000 0.0000000000 0.0000000000 -3172.7314417163 1.0429075224 -4.8383818164
1.3500138790 -5.2329520709 0.0000000000 0.0000000000 0.0000000000 -3106.9966951767 1.0429075224 -4.8383818164
1.3660571416 -5.2199238503 0.0000000000 0.0000000000 0.0000000000 -3035.1800646968 1.0429075224 -4.8383818164
1.3815483084 -5.2062437715 0.0000000000 0.0000000000 0.0000000000 -2959.5139760136 1.0429075224 -4.8383818164
1.6079004150 -5.3233242031 0.0000000000 1.2383931411 0.6174066897 -1256.6531933649 1.0581115108 -4.8131946502
1.6256271843 -5.3007386036 0.0000000000 1.1834416031 0.6164940855 -1222.4808668726 1.0571483916 -4.8115230455
1.6425423464 -5.2775053418 0.0000000000 1.1288211889 0.6123444979 -1186.5801621797 1.0561687343 -4.8098879908
1.6586245179 -5.2536641079 0.0000000000 1.0748003291 0.6050469277 -1149.2390414534 1.0551761828 -4.8082989692
1.6738538006 -5.2292563541 0.0000000000 1.0216352075 0.5947027670 -1110.6929176281 1.0541747196 -4.8067663109
1.6882113640 -5.2043246242 0.0000000000 0.9695759168 0.5814457715 -1071.2006607587 1.0531682143 -4.8053005672
1.7016792400 -5.1789121594 0.0000000000 0.9188597384 0.5654381063 -1031.0260149146 1.0521601869 -4.8039121598
1.7142402316 -5.1530626128 0.0000000000 0.8697065248 0.5468693897 -990.4358506735 1.0511536863 -4.8026111420
1.7258779067 -5.1268198244 0.0000000000 0.8223140778 0.5259535735 -949.6943263225 1.0501512556 -4.8014070204
1.7365766573 -5.1002276324 0.0000000000 0.7768542920 0.5029248949 -909.0574657052 1.0491549652 -4.8003086145
1.7463218029 -5.0733297080 0.0000000000 0.7334702318 0.4780329961 -868.7678066264 1.0481664912 -4.7993239401
1.7550997145 -5.0461694045 0.0000000000 0.6922742937 0.4515375736 -829.0496172779 1.0471872166 -4.7984601084
1.7628979356 -5.0187896184 0.0000000000 0.6533474921 0.4237028825 -790.1049326249 1.0462183311 -4.7977232380
1.7697052873 -4.9912326601 0.0000000000 0.6167398189 0.3947923850 -752.1105859377 1.0452609175 -4.7971183767
1.7755119517 -4.9635401356 0.0000000000 0.5824715628 0.3650637820 -715.2163051060 1.0443160174 -4.7966494355
1.7803095329 -4.9357528390 0.0000000000 0.5505354287 0.3347646016 -679.5438608434 1.0433846779 -4.7963191339
1.7840910981 -4.9079106560 0.0000000000 0.5208992767 0.3041284670 -645.1871913930 1.0424679784 -4.7961289567
1.7868511998 -4.8800524799 0.0000000000 0.4935092863 0.2733721091 -612.2133844835 1.0415670424 -4.7960791231
1.7885858821 -4.8522161382 0.0000000000 0.4682933584 0.2426931475 -580.6643687833 1.0406830342 -4.7961685683
1.7892926703 -4.8244383317 0.0000000000 0.4451645801 0.2122686187 -550.5591517479 1.0398171417 -4.7963949363
1.7889705450 -4.7967545855 0.0000000000 0.4240246033 0.1822541993 -521.8964371343 1.0389705450 -4.7967545858
1.7876199020 -4.7691992128 0.0000000000 0.4047668158 0.1527840445 -494.6574622791 1.0381443734 -4.7972426088
1.7852425000 -4.7418052921 0.0000000000 0.3872792200 0.1239711477 -468.8089108462 1.0373396522 -4.7978528626
1.7818413996 -4.7146046606 0.0000000000 0.3714469641 0.0959081184 -444.3057788212 1.0365572422 -4.7985780179
1.7774208981 -4.6876279248 0.0000000000 0.3571545015 0.0686682784 -421.0940971975 1.0357977784 -4.7994096247
1.7719864647 -4.6609044943 0.0000000000 0.3442873802 0.0423069807 -399.1134409982 1.0350616098 -4.8003381999
1.7655446809 -4.6344626409 0.0000000000 0.3327336765 0.0168630656 -378.2991782183 1.0343487468 -4.8013533416
1.7581031864 -4.6083295893 0.0000000000 0.3223851036 -0.0076396215 -358.5844321050 1.0336588167 -4.8024438733
1.7496706340 -4.5825316426 0.0000000000 0.3131378323 -0.0311907177 -339.9017455755 1.0329910297 -4.8035980236
1.7402566488 -4.5570943448 0.0000000000 0.3048930651 -0.0537918905 -322.1844491960 1.0323441511 -4.8048036415
1.7298717906 -4.5320426803 0.0000000000 0.2975574139 -0.0754554701 -305.3677469933 1.0317164792 -4.8060484488
1.7185275136 -4.5074013062 0.0000000000 0.2910431331 -0.0962031342 -289.3895489121 1.0311058218 -4.8073203247
1.7062361209 -4.4831948107 0.0000000000 0.2852682649 -0.1160645285 -274.1910903126 1.0305094701 -4.8086076152
1.6930107113 -4.4594479872 0.0000000000 0.2801567344 -0.1350756793 -259.7173741645 1.0299241662 -4.8098994585
1.6788651232 -4.4361861145 0.0000000000 0.2756384033 -0.1532772550 -245.9174365535 1.0293460704 -4.8111861147
1.6638138880 -4.4134352356 0.0000000000 0.2716490695 -0.1707133790 -232.7443726259 1.0287707386 -4.8124592931
1.6478722143 -4.3912224280 0.0000000000 0.2681304683 -0.1874327901 -220.1550082140 1.0281931337 -4.8137124717
1.6310560190 -4.3695760727 0.0000000000 0.2650305750 -0.2034951608 -208.1091252104 1.0276076843 -4.8149412120
1.6133819753 -4.3485261343 0.0000000000 0.2623047787 -0.2189851861 -196.5683508246 1.0270083635 -4.8161434858
1.5948674271 -4.3281045016 0.0000000000 0.2599181893 -0.2340338717 -185.4951791005 1.0263886348 -4.8173200601
1.5755296553 -4.3083453880 0.0000000000 0.2578499084 -0.2488335601 -174.8518849407 1.0257407515 -4.8184749414
1.5325600419 -4.2687754804 0.0000000000 0.2547194959 -0.2801818694 -153.7085131388 1.0245988632 -4.8205684135
1.5088352079 -4.2491919489 0.0000000000 0.2536874111 -0.2966554547 -143.2796341055 1.0241107796 -4.8215050001
1.4842591181 -4.2305625293 0.0000000000 0.2528084237 -0.3116914077 -133.2870430348 1.0235995837 -4.8224179114
1.4588814752 -4.2129177850 0.0000000000 0.2516637125 -0.3221683634 -123.6745757006 1.0230738637 -4.8233043230
1.4327526351 -4.1962885454 0.0000000000 0.2495588446 -0.3234976433 -114.3230769099 1.0225415166 -4.8241634041
1.4059240896 -4.1807047560 0.0000000000 0.2456987503 -0.3113434162 -105.0444868084 1.0220103028 -4.8249952218
1.3784487464 -4.1661951187 0.0000000000 0.2395816870 -0.2842561379 -95.6002033805 1.0214882017 -4.8258004321
1.3503809731 -4.1527868847 0.0000000000 0.2313980640 -0.2453722175 -85.7210658148 1.0209835315 -4.8265801212
1.3217764775 -4.1405056489 0.0000000000 0.2220889381 -0.2014722170 -75.1389447900 1.0205049091 -4.8273356439
1.2926920744 -4.1293751391 0.0000000000 0.2129294303 -0.1597559929 -63.6609045972 1.0200610966 -4.8280684552
1.2631853848 -4.1194170273 0.0000000000 0.2049228978 -0.1247273626 -51.2458978274 1.0196607830 -4.8287799587
1.2333145087 -4.1106507771 0.0000000000 0.1984604278 -0.0973055014 -38.0007649401 1.0193123406 -4.8294713889
1.2031377043 -4.1030935261 0.0000000000 0.1934159443 -0.0760924277 -24.0937785890 1.0190235890 -4.8301437256
1.1727130967 -4.0967599991 0.0000000000 0.1894572609 -0.0591391819 -9.6677729273 1.0188015902 -4.8307976331
1.1420984282 -4.0916624445 0.0000000000 0.1862783348 -0.0449246551 5.1888297386 1.0186524856 -4.8314334220
1.1113508534 -4.0878105956 0.0000000000 0.1836650909 -0.0324926012 20.4270864798 1.0185813801 -4.8320510304
1.0805267783 -4.0852116563 0.0000000000 0.1814745509 -0.0212679346 36.0171851051 1.0185922693 -4.8326500260
1.0496817348 -4.0838703110 0.0000000000 0.1796058022 -0.0108892488 51.9382773254 1.0186880043 -4.8332296298
1.0188702840 -4.0837887579 0.0000000000 0.1779832748 -0.0011156043 68.1749173876 1.0188702842 -4.8337887579
0.9881459384 -4.0849667593 0.0000000000 0.1765478885 0.0082221535 84.7154613703 1.0191396692 -4.8343260781
0.9575610972 -4.0874017025 0.0000000000 0.1752518681 0.0172481117 101.5510544569 1.0194956065 -4.8348400722
0.9271669911 -4.0910886641 0.0000000000 0.1740555596 0.0260565970 118.6749299907 1.0199364647 -4.8353290989
0.8970136313 -4.0960204719 0.0000000000 0.1729253985 0.0347214290 136.0818784245 1.0204595742 -4.8357914494
0.8671497655 -4.1021877620 0.0000000000 0.1718325746 0.0433018904 153.7678006348 1.0210612723 -4.8362253960
0.8376228384 -4.1095790323 0.0000000000 0.1707521430 0.0518468896 171.7292863617 1.0217369539 -4.8366292317
0.8084789584 -4.1181806963 0.0000000000 0.1696623529 0.0603976058 189.9632359790 1.0224811267 -4.8370013081
0.7797628721 -4.1279771426 0.0000000000 0.1685441618 0.0689883778 208.4665943014 1.0232874742 -4.8373400738
0.7515179464 -4.1389508032 0.0000000000 0.1673814413 0.0776495590 227.2359944640 1.0241489245 -4.8376441192
0.7237861598 -4.1510822356 0.0000000000 0.1661616841 0.0864187846 246.2669167962 1.0250577284 -4.8379122305
0.6966081053 -4.1643502162 0.0000000000 0.1648745412 0.0953464919 265.5525186301 1.0260055471 -4.8381434525
0.6700230057 -4.1787318440 0.0000000000 0.1635073761 0.1044530497 285.0826275568 1.0269835506 -4.8383371573
0.6440687434 -4.1942026479 0.0000000000 0.1620467362 0.1136529632 304.8436407161 1.0279825304 -4.8384931136
0.6187819081 -4.2107366913 0.0000000000 0.1604947603 0.1228241853 324.8231750465 1.0289930269 -4.8386115499
0.5941978626 -4.2283066674 0.0000000000 0.1588814858 0.1322039049 345.0236742760 1.0300054744 -4.8386932052
0.5703508282 -4.2468839804 0.0000000000 0.1572308637 0.1428391511 365.4725290709 1.0310103629 -4.8387393623
0.5472739878 -4.2664388100 0.0000000000 0.1554877032 0.1562089271 386.1919511501 1.0319984164 -4.8387518610
0.5249996067 -4.2869401654 0.0000000000 0.1535275453 0.1722893267 407.1008331247 1.0329607856 -4.8387330983
0.4829836832 -4.3306516339 0.0000000000 0.1497874375 0.1893999973 448.1474026605 1.0347766163 -4.8386128125
0.4633033197 -4.3537938550 0.0000000000 0.1502697437 0.1663704624 467.3719449315 1.0356163710 -4.8385182832
0.4445479836 -4.3777466271 0.0000000000 0.1551824421 0.1052006973 485.2509507042 1.0364033658 -4.8384061614
0.4267472530 -4.4024728092 0.0000000000 0.1668667998 0.0008710952 501.4769578810 1.0371337911 -4.8382804206
0.4099303859 -4.4279339975 0.0000000000 0.1866881654 -0.1407869229 515.6753467884 1.0378052447 -4.8381451159
0.3941262814 -4.4540904737 0.0000000000 0.2143117422 -0.3040586401 527.4736211613 1.0384167473 -4.8380042603
0.3793633803 -4.4809011789 0.0000000000 0.2476821643 -0.4684974949 536.6631519973 1.0389686938 -4.8378617234
0.3656695038 -4.5083237078 0.0000000000 0.2837849832 -0.6158974761 543.2632190350 1.0394627403 -4.8377211492
0.3530716398 -4.5363143238 0.0000000000 0.3197907421 -0.7355679947 547.3867666100 1.0399016349 -4.8375858920
0.3415956933 -4.5648279949 0.0000000000 0.3539485254 -0.8255667798 549.0995356015 1.0402890095 -4.8374589725
0.3312662202 -4.5938184496 0.0000000000 0.3858357628 -0.8903347471 548.4621759623 1.0406291516 -4.8373430512
0.3221061645 -4.6232382502 0.0000000000 0.4160249290 -0.9370075943 545.6291935327 1.0409267765 -4.8372404181
0.3141366180 -4.6530388789 0.0000000000 0.4455201047 -0.9724436541 540.8282868122 1.0411868175 -4.8371529940
0.3073766135 -4.6831708332 0.0000000000 0.4752998579 -1.0017477862 534.2518436431 1.0414142475 -4.8370823395
0.3018429618 -4.7135837261 0.0000000000 0.5060974523 -1.0280512745 525.9791594726 1.0416139394 -4.8370296685
0.2975501319 -4.7442263887 0.0000000000 0.5383737185 -1.0529428623 515.9736910020 1.0417905667 -4.8369958619
0.2945101733 -4.7750469731 0.0000000000 0.5723822973 -1.0770440642 504.1252440982 1.0419485431 -4.8369814820
0.2927326735 -4.8059930547 0.0000000000 0.6082501304 -1.1004688553 490.2958079480 1.0420919923 -4.8369867851
0.2922247423 -4.8370117342 0.0000000000 0.6460374508 -1.1231068294 474.3491843715 1.0422247423 -4.8370117339
0.2929910173 -4.8680497396 0.0000000000 0.6857711521 -1.1447657888 456.1638539901 1.0423503360 -4.8370560086
0.2950336814 -4.8990535281 0.0000000000 0.7274584025 -1.1652305631 435.6358335879 1.0424720511 -4.8371190187
0.2983524911 -4.9299693888 0.0000000000 0.7710893267 -1.1842818903 412.6777608186 1.0425929258 -4.8371999150
0.3029448111 -4.9607435460 0.0000000000 0.8166351513 -1.2017004046 387.2176467467 1.0427157886 -4.8372976030