 TITLE = "Tecplot data"
 VARIABLES = "X", "Y", "Z" "U", "V", "p", "dispX", "dispY"
 ZONE SOLUTIONTIME=37.900000, NODES=26114 , ELEMENTS=25916, DATAPACKING=POINT, ZONETYPE=FEQUADRILATERAL
0.4038488401 0.3512180890 0.0000000000 0.0000000000 0.0000000000 -317.3178931450 0.0502954496 -0.0023353016
0.4038488404 -0.3558886919 0.0000000000 0.0000000000 0.0000000000 -416.6981330768 0.0502954496 -0.0023353016
-0.3032579411 0.3512180889 0.0000000000 0.0000000000 0.0000000000 -111.1891302154 0.0502954496 -0.0023353016
-0.3032579409 -0.3558886924 0.0000000000 0.0000000000 0.0000000000 -188.2916037684 0.0502954496 -0.0023353016
0.5805273162 0.5279953634 0.0000000000 0.0608920259 0.0340415467 -305.5919458945 0.0501972304 -0.0023347225
0.5802626758 -0.5327415651 0.0000000000 0.2611922190 -0.0082093137 -409.6752757422 0.0499325895 -0.0024114796
-0.4801377977 0.5279487806 0.0000000000 0.8312071530 0.4859648429 67.8795899405 0.0501922883 -0.0023813051
-0.4801837980 -0.5325634705 0.0000000000 0.8651907100 -0.4854487627 15.0020032692 0.0501462877 -0.0022333844
1.1102764349 1.0582156077 0.0000000000 1.2835786182 0.0615922319 -249.8574215464 0.0496162632 -0.0024445642
1.1087257995 -1.0632735828 0.0000000000 1.1863982641 0.0065859609 -273.9345241610 0.0480656270 -0.0026134118
-1.0110112318 1.0580548884 0.0000000000 0.9338397553 0.1769797687 82.8816383895 0.0496489403 -0.0026052831
-1.0114777598 -1.0624654569 0.0000000000 0.9400309256 -0.1692825602 51.5820703178 0.0491824114 -0.0018052846
4.2475379500 3.2966553746 0.0000000000 1.0465477194 0.0644127636 10.8242200189 0.0475379500 -0.0033446254
4.2398775745 -3.3056041155 0.0000000000 1.0515417848 0.0167622450 -2.7144835584 0.0398775745 -0.0056041155
20.0000000000 4.7000000000 0.0000000000 1.0061138754 -0.0097051081 0.0274025808 0.0000000000 0.0000000000
20.0000000000 -4.7000000000 0.0000000000 1.0082546680 0.0128866901 -0.0253616158 0.0000000000 0.0000000000
-10.0000000000 15.0000000000 0.0000000000 1.0000000000 0.0000000000 15.3704329332 0.0000000000 0.0000000000
20.0000000000 15.0000000000 0.0000000000 1.0017931315 0.0000000000 -0.0044914917 0.0000000000 0.0000000000
20.0000000000 -15.0000000000 0.0000000000 1.0014919259 0.0000000000 -0.0016703046 0.0000000000 0.0000000000
-10.0000000000 -15.0000000000 0.0000000000 1.0000000000 0.0000000000 9.9084954214 0.0000000000 0.0000000000
0.4168213857 -0.3424216702 0.0000000000 0.0000000000 0.0000000000 -413.6781324154 0.0502954496 -0.0023353016
0.4292813114 -0.3284790070 0.0000000000 0.0000000000 0.0000000000 -410.9645332234 0.0502954496 -0.0023353016
0.4412111910 -0.3140802023 0.0000000000 0.0000000000 0.0000000000 -408.2044339825 0.0502954496 -0.0023353016
0.4525943396 -0.2992453941 0.0000000000 0.0000000000 0.0000000000 -405.4441227812 0.0502954496 -0.0023353016
0.4634148369 -0.2839953304 0.0000000000 0.0000000000 0.0000000000 -402.5821954148 0.0502954496 -0.0023353016
0.4736575493 -0.2683513396 0.0000000000 0.0000000000 0.0000000000 -399.6058513484 0.0502954496 -0.0023353016
0.4833081516 -0.2523353013 0.0000000000 0.0000000000 0.0000000000 -396.4874113691 0.0502954496 -0.0023353016
0.4923531464 -0.2359696155 0.0000000000 0.0000000000 0.0000000000 -393.2286732213 0.0502954496 -0.0023353016
0.5007798836 -0.2192771709 0.0000000000 0.0000000000 0.0000000000 -389.8379040028 0.0502954496 -0.0023353016
0.5085765776 -0.2022813135 0.0000000000 0.0000000000 0.0000000000 -386.3369169606 0.0502954496 -0.0023353016
0.5157323240 -0.1850058135 0.0000000000 0.0000000000 0.0000000000 -382.7539560148 0.0502954496 -0.0023353016
0.5222371148 -0.1674748323 0.0000000000 0.0000000000 0.0000000000 -379.1230069650 0.0502954496 -0.0023353016
0.5280818525 -0.1497128886 0.0000000000 0.0000000000 0.0000000000 -375.4801088893 0.0502954496 -0.0023353016
0.5332583628 -0.1317448239 0.0000000000 0.0000000000 0.0000000000 -371.8612906774 0.0502954496 -0.0023353016
0.5377594057 -0.1135957683 0.0000000000 0.0000000000 0.0000000000 -368.3001350645 0.0502954496 -0.0023353016
0.5415786862 -0.0952911050 0.0000000000 0.0000000000 0.0000000000 -364.8260987710 0.0502954496 -0.0023353016
0.5447108627 -0.0768564345 0.0000000000 0.0000000000 0.0000000000 -361.4631735233 0.0502954496 -0.0023353016
0.5471515545 -0.0583175394 0.0000000000 0.0000000000 0.0000000000 -358.2291627039 0.0502954496 -0.0023353016
0.5488973482 -0.0397003482 0.0000000000 0.0000000000 0.0000000000 -355.1354469177 0.0502954496 -0.0023353016
0.5499458020 -0.0210308985 0.0000000000 0.0000000000 0.0000000000 -352.1872524027 0.0502954496 -0.0023353016
0.5502954496 -0.0023353014 0.0000000000 0.0000000000 0.0000000000 -349.3843113104 0.0502954496 -0.0023353016
0.5499458019 0.0163602957 0.0000000000 0.0000000000 0.0000000000 -346.7218378815 0.0502954496 -0.0023353016
0.5488973481 0.0350297454 0.0000000000 0.0000000000 0.0000000000 -344.1916885753 0.0502954496 -0.0023353016
0.5471515545 0.0536469366 0.0000000000 0.0000000000 0.0000000000 -341.7836279096 0.0502954496 -0.0023353016
0.5447108626 0.0721858317 0.0000000000 0.0000000000 0.0000000000 -339.4865436457 0.0502954496 -0.0023353016
0.5415786861 0.0906205021 0.0000000000 0.0000000000 0.0000000000 -337.2896234389 0.0502954496 -0.0023353016
0.5377594056 0.1089251655 0.0000000000 0.0000000000 0.0000000000 -335.1832492546 0.0502954496 -0.0023353016
0.5332583627 0.1270742211 0.0000000000 0.0000000000 0.0000000000 -333.1599021697 0.0502954496 -0.0023353016
0.5280818524 0.1450422857 0.0000000000 0.0000000000 0.0000000000 -331.2144691158 0.0502954496 -0.0023353016
0.5222371147 0.1628042295 0.0000000000 0.0000000000 0.0000000000 -329.3450722139 0.0502954496 -0.0023353016
0.5157323238 0.1803352107 0.0000000000 0.0000000000 0.0000000000 -327.5524904568 0.0502954496 -0.0023353016
0.5085765774 0.1976107107 0.0000000000 0.0000000000 0.0000000000 -325.8418417057 0.0502954496 -0.0023353016
0.5007798835 0.2146065681 0.0000000000 0.0000000000 0.0000000000 -324.2201569198 0.0502954496 -0.0023353016
0.4923531463 0.2312990126 0.0000000000 0.0000000000 0.0000000000 -322.7015213116 0.0502954496 -0.0023353016
0.4833081514 0.2476646985 0.0000000000 0.0000000000 0.0000000000 -321.2990508198 0.0502954496 -0.0023353016
0.4736575491 0.2636807367 0.0000000000 0.0000000000 0.0000000000 -320.0407199837 0.0502954496 -0.0023353016
0.4634148367 0.2793247275 0.0000000000 0.0000000000 0.0000000000 -318.9427500657 0.0502954496 -0.0023353016
0.4525943394 0.2945747912 0.0000000000 0.0000000000 0.0000000000 -318.0578420322 0.0502954496 -0.0023353016
0.4412111907 0.3094095994 0.0000000000 0.0000000000 0.0000000000 -317.3888039662 0.0502954496 -0.0023353016
0.4292813111 0.3238084041 0.0000000000 0.0000000000 0.0000000000 -317.0385796730 0.0502954496 -0.0023353016
0.4168213854 0.3377510673 0.0000000000 0.0000000000 0.0000000000 -316.9365004884 0.0502954496 -0.0023353016
0.3889362353 0.3655266538 0.0000000000 0.0000000000 0.0000000000 -318.0061978608 0.0502954496 -0.0023353016
0.3734450684 0.3792067325 0.0000000000 0.0000000000 0.0000000000 -319.3439522127 0.0502954496 -0.0023353016
0.3574018059 0.3922349531 0.0000000000 0.0000000000 0.0000000000 -321.0977819682 0.0502954496 -0.0023353016
0.3408338572 0.4045890571 0.0000000000 0.0000000000 0.0000000000 -323.4064433849 0.0502954496 -0.0023353016
0.3237695286 0.4162479376 0.0000000000 0.0000000000 0.0000000000 -326.1961010020 0.0502954496 -0.0023353016
0.3062379740 0.4271916756 0.0000000000 0.0000000000 0.0000000000 -329.5271123272 0.0502954496 -0.0023353016
0.2882691460 0.4374015740 0.0000000000 0.0000000000 0.0000000000 -333.4078695440 0.0502954496 -0.0023353016
0.2698937439 0.4468601894 0.0000000000 0.0000000000 0.0000000000 -337.9029538635 0.0502954496 -0.0023353016
0.2511431618 0.4555513618 0.0000000000 0.0000000000 0.0000000000 -343.0636031413 0.0502954496 -0.0023353016
0.2320494348 0.4634602424 0.0000000000 0.0000000000 0.0000000000 -348.9510727311 0.0502954496 -0.0023353016
0.2126451841 0.4705733193 0.0000000000 0.0000000000 0.0000000000 -355.6046154053 0.0502954496 -0.0023353016
0.1929635616 0.4768784396 0.0000000000 0.0000000000 0.0000000000 -363.0424675297 0.0502954496 -0.0023353016
0.1730381930 0.4823648314 0.0000000000 0.0000000000 0.0000000000 -371.2477160906 0.0502954496 -0.0023353016
0.1529031206 0.4870231211 0.0000000000 0.0000000000 0.0000000000 -380.1650341151 0.0502954496 -0.0023353016
0.1325927446 0.4908453501 0.0000000000 0.0000000000 0.0000000000 -389.6922190060 0.0502954496 -0.0023353016
0.1121417651 0.4938249883 0.0000000000 0.0000000000 0.0000000000 -399.6752892984 0.0502954496 -0.0023353016
0.0915851222 0.4959569449 0.0000000000 0.0000000000 0.0000000000 -409.9035575903 0.0502954496 -0.0023353016
0.0709579366 0.4972375776 0.0000000000 0.0000000000 0.0000000000 -420.1084295759 0.0502954496 -0.0023353016
0.0502954495 0.4976646984 0.0000000000 0.0000000000 0.0000000000 -429.9653710932 0.0502954496 -0.0023353016
0.0296329623 0.4972375776 0.0000000000 0.0000000000 0.0000000000 -439.1002126003 0.0502954496 -0.0023353016
0.0090057767 0.4959569449 0.0000000000 0.0000000000 0.0000000000 -447.0993214699 0.0502954496 -0.0023353016
-0.0115508662 0.4938249882 0.0000000000 0.0000000000 0.0000000000 -453.5233421387 0.0502954496 -0.0023353016
-0.0320018457 0.4908453501 0.0000000000 0.0000000000 0.0000000000 -457.9234710475 0.0502954496 -0.0023353016
-0.0523122217 0.4870231210 0.0000000000 0.0000000000 0.0000000000 -459.8591287428 0.0502954496 -0.0023353016
-0.0724472941 0.4823648313 0.0000000000 0.0000000000 0.0000000000 -458.9156862054 0.0502954496 -0.0023353016
-0.0923726627 0.4768784396 0.0000000000 0.0000000000 0.0000000000 -454.7210096905 0.0502954496 -0.0023353016
-0.1120542852 0.4705733192 0.0000000000 0.0000000000 0.0000000000 -446.9597752963 0.0502954496 -0.0023353016
-0.1314585358 0.4634602424 0.0000000000 0.0000000000 0.0000000000 -435.3848253321 0.0502954496 -0.0023353016
-0.1505522629 0.4555513617 0.0000000000 0.0000000000 0.0000000000 -419.8251795503 0.0502954496 -0.0023353016
-0.1693028450 0.4468601893 0.0000000000 0.0000000000 0.0000000000 -400.1906451288 0.0502954496 -0.0023353016
-0.1876782471 0.4374015739 0.0000000000 0.0000000000 0.0000000000 -376.4732357650 0.0502954496 -0.0023353016
-0.2056470751 0.4271916755 0.0000000000 0.0000000000 0.0000000000 -348.7457961106 0.0502954496 -0.0023353016
-0.2231786296 0.4162479374 0.0000000000 0.0000000000 0.0000000000 -317.1583261615 0.0502954496 -0.0023353016
-0.2402429583 0.4045890569 0.0000000000 0.0000000000 0.0000000000 -281.9325231166 0.0502954496 -0.0023353016
-0.2568109069 0.3922349530 0.0000000000 0.0000000000 0.0000000000 -243.3550251788 0.0502954496 -0.0023353016
-0.2728541695 0.3792067324 0.0000000000 0.0000000000 0.0000000000 -201.7697776854 0.0502954496 -0.0023353016
-0.2883453364 0.3655266536 0.0000000000 0.0000000000 0.0000000000 -157.5698701463 0.0502954496 -0.0023353016
-0.3175665059 0.3363054841 0.0000000000 0.0000000000 0.0000000000 -63.0937136001 0.0502954496 -0.0023353016
-0.3312465846 0.3208143172 0.0000000000 0.0000000000 0.0000000000 -13.7738927811 0.0502954496 -0.0023353016
-0.3442748052 0.3047710546 0.0000000000 0.0000000000 0.0000000000 36.2637884286 0.0502954496 -0.0023353016
-0.3566289092 0.2882031060 0.0000000000 0.0000000000 0.0000000000 86.5038715001 0.0502954496 -0.0023353016
-0.3682877897 0.2711387773 0.0000000000 0.0000000000 0.0000000000 136.4287804271 0.0502954496 -0.0023353016
-0.3792315277 0.2536072228 0.0000000000 0.0000000000 0.0000000000 185.5250415899 0.0502954496 -0.0023353016
-0.3894414261 0.2356383948 0.0000000000 0.0000000000 0.0000000000 233.2889499387 0.0502954496 -0.0023353016
-0.3989000415 0.2172629927 0.0000000000 0.0000000000 0.0000000000 279.2317287943 0.0502954496 -0.0023353016
-0.4075912138 0.1985124106 0.0000000000 0.0000000000 0.0000000000 322.8842358387 0.0502954496 -0.0023353016
-0.4155000945 0.1794186835 0.0000000000 0.0000000000 0.0000000000 363.8012600935 0.0502954496 -0.0023353016
-0.4226131714 0.1600144328 0.0000000000 0.0000000000 0.0000000000 401.5654410172 0.0502954496 -0.0023353016
-0.4289182917 0.1403328103 0.0000000000 0.0000000000 0.0000000000 435.7908271771 0.0502954496 -0.0023353016
-0.4344046835 0.1204074418 0.0000000000 0.0000000000 0.0000000000 466.1260815523 0.0502954496 -0.0023353016
-0.4390629731 0.1002723693 0.0000000000 0.0000000000 0.0000000000 492.2573342806 0.0502954496 -0.0023353016
-0.4428852022 0.0799619933 0.0000000000 0.0000000000 0.0000000000 513.9106810155 0.0502954496 -0.0023353016
-0.4458648403 0.0595110138 0.0000000000 0.0000000000 0.0000000000 530.8543248292 0.0502954496 -0.0023353016
-0.4479967970 0.0389543709 0.0000000000 0.0000000000 0.0000000000 542.9003606175 0.0502954496 -0.0023353016
-0.4492774296 0.0183271853 0.0000000000 0.0000000000 0.0000000000 549.9062022789 0.0502954496 -0.0023353016
-0.4497045504 -0.0023353018 0.0000000000 0.0000000000 0.0000000000 551.7756539674 0.0502954496 -0.0023353016
-0.4492774296 -0.0229977889 0.0000000000 0.0000000000 0.0000000000 548.4596271734 0.0502954496 -0.0023353016
-0.4479967969 -0.0436249746 0.0000000000 0.0000000000 0.0000000000 539.9565052899 0.0502954496 -0.0023353016
-0.4458648403 -0.0641816175 0.0000000000 0.0000000000 0.0000000000 526.3121568953 0.0502954496 -0.0023353016
-0.4428852021 -0.0846325970 0.0000000000 0.0000000000 0.0000000000 507.6195985600 0.0502954496 -0.0023353016
-0.4390629731 -0.1049429729 0.0000000000 0.0000000000 0.0000000000 484.0183078541 0.0502954496 -0.0023353016
-0.4344046834 -0.1250780454 0.0000000000 0.0000000000 0.0000000000 455.6931876689 0.0502954496 -0.0023353016
-0.4289182916 -0.1450034139 0.0000000000 0.0000000000 0.0000000000 422.8731839386 0.0502954496 -0.0023353016
-0.4226131712 -0.1646850364 0.0000000000 0.0000000000 0.0000000000 385.8295602341 0.0502954496 -0.0023353016
-0.4155000944 -0.1840892871 0.0000000000 0.0000000000 0.0000000000 344.8738341122 0.0502954496 -0.0023353016
-0.4075912137 -0.2031830141 0.0000000000 0.0000000000 0.0000000000 300.3553813074 0.0502954496 -0.0023353016
-0.3989000413 -0.2219335962 0.0000000000 0.0000000000 0.0000000000 252.6587142806 0.0502954496 -0.0023353016
-0.3894414259 -0.2403089983 0.0000000000 0.0000000000 0.0000000000 202.2004415544 0.0502954496 -0.0023353016
-0.3792315275 -0.2582778264 0.0000000000 0.0000000000 0.0000000000 149.4259126401 0.0502954496 -0.0023353016
-0.3682877894 -0.2758093809 0.0000000000 0.0000000000 0.0000000000 94.8055519870 0.0502954496 -0.0023353016
-0.3566289089 -0.2928737095 0.0000000000 0.0000000000 0.0000000000 38.8308809681 0.0502954496 -0.0023353016
-0.3442748050 -0.3094416581 0.0000000000 0.0000000000 0.0000000000 -17.9897740163 0.0502954496 -0.0023353016
-0.3312465844 -0.3254849207 0.0000000000 0.0000000000 0.0000000000 -75.1358984738 0.0502954496 -0.0023353016
-0.3175665056 -0.3409760876 0.0000000000 0.0000000000 0.0000000000 -132.0797378198 0.0502954496 -0.0023353016
-0.2883453361 -0.3701972571 0.0000000000 0.0000000000 0.0000000000 -243.2455401527 0.0502954496 -0.0023353016
-0.2728541692 -0.3838773359 0.0000000000 0.0000000000 0.0000000000 -296.4253973148 0.0502954496 -0.0023353016
-0.2568109066 -0.3969055565 0.0000000000 0.0000000000 0.0000000000 -347.3312994603 0.0502954496 -0.0023353016
-0.2402429579 -0.4092596604 0.0000000000 0.0000000000 0.0000000000 -395.4865541614 0.0502954496 -0.0023353016
-0.2231786293 -0.4209185409 0.0000000000 0.0000000000 0.0000000000 -440.4449751601 0.0502954496 -0.0023353016
-0.2056470748 -0.4318622789 0.0000000000 0.0000000000 0.0000000000 -481.7986147416 0.0502954496 -0.0023353016
-0.1876782467 -0.4420721773 0.0000000000 0.0000000000 0.0000000000 -519.1858337687 0.0502954496 -0.0023353016
-0.1693028446 -0.4515307927 0.0000000000 0.0000000000 0.0000000000 -552.2996045616 0.0502954496 -0.0023353016
-0.1505522625 -0.4602219650 0.0000000000 0.0000000000 0.0000000000 -580.8958584580 0.0502954496 -0.0023353016
-0.1314585355 -0.4681308457 0.0000000000 0.0000000000 0.0000000000 -604.8016067025 0.0502954496 -0.0023353016
-0.1120542848 -0.4752439225 0.0000000000 0.0000000000 0.0000000000 -623.9224514723 0.0502954496 -0.0023353016
-0.0923726623 -0.4815490429 0.0000000000 0.0000000000 0.0000000000 -638.2489898962 0.0502954496 -0.0023353016
-0.0724472937 -0.4870354346 0.0000000000 0.0000000000 0.0000000000 -647.8615005023 0.0502954496 -0.0023353016
-0.0523122213 -0.4916937243 0.0000000000 0.0000000000 0.0000000000 -652.9322176235 0.0502954496 -0.0023353016
-0.0320018453 -0.4955159534 0.0000000000 0.0000000000 0.0000000000 -653.7244697259 0.0502954496 -0.0023353016
-0.0115508658 -0.4984955915 0.0000000000 0.0000000000 0.0000000000 -650.5880184431 0.0502954496 -0.0023353016
0.0090057771 -0.5006275481 0.0000000000 0.0000000000 0.0000000000 -643.9501141538 0.0502954496 -0.0023353016
0.0296329627 -0.5019081808 0.0000000000 0.0000000000 0.0000000000 -634.3021006267 0.0502954496 -0.0023353016
0.0502954499 -0.5023353016 0.0000000000 0.0000000000 0.0000000000 -622.1818429243 0.0502954496 -0.0023353016
0.0709579370 -0.5019081808 0.0000000000 0.0000000000 0.0000000000 -608.1527825726 0.0502954496 -0.0023353016
0.0915851226 -0.5006275481 0.0000000000 0.0000000000 0.0000000000 -592.7809467175 0.0502954496 -0.0023353016
0.1121417655 -0.4984955914 0.0000000000 0.0000000000 0.0000000000 -576.6116736264 0.0502954496 -0.0023353016
0.1325927450 -0.4955159533 0.0000000000 0.0000000000 0.0000000000 -560.1479992471 0.0502954496 -0.0023353016
0.1529031210 -0.4916937242 0.0000000000 0.0000000000 0.0000000000 -543.8326145237 0.0502954496 -0.0023353016
0.1730381934 -0.4870354345 0.0000000000 0.0000000000 0.0000000000 -528.0348100346 0.0502954496 -0.0023353016
0.1929635620 -0.4815490427 0.0000000000 0.0000000000 0.0000000000 -513.0434300527 0.0502954496 -0.0023353016
0.2126451845 -0.4752439223 0.0000000000 0.0000000000 0.0000000000 -499.0657550811 0.0502954496 -0.0023353016
0.2320494351 -0.4681308455 0.0000000000 0.0000000000 0.0000000000 -486.2325618967 0.0502954496 -0.0023353016
0.2511431622 -0.4602219648 0.0000000000 0.0000000000 0.0000000000 -474.6072016396 0.0502954496 -0.0023353016
0.2698937443 -0.4515307924 0.0000000000 0.0000000000 0.0000000000 -464.1998314601 0.0502954496 -0.0023353016
0.2882691464 -0.4420721770 0.0000000000 0.0000000000 0.0000000000 -454.9788341033 0.0502954496 -0.0023353016
0.3062379744 -0.4318622786 0.0000000000 0.0000000000 0.0000000000 -446.8887185934 0.0502954496 -0.0023353016
0.3237695289 -0.4209185405 0.0000000000 0.0000000000 0.0000000000 -439.8466280641 0.0502954496 -0.0023353016
0.3408338575 -0.4092596600 0.0000000000 0.0000000000 0.0000000000 -433.7717118770 0.0502954496 -0.0023353016
0.3574018062 -0.3969055561 0.0000000000 0.0000000000 0.0000000000 -428.5282491875 0.0502954496 -0.0023353016
0.3734450688 -0.3838773355 0.0000000000 0.0000000000 0.0000000000 -424.0482830053 0.0502954496 -0.0023353016
0.3889362356 -0.3701972567 0.0000000000 0.0000000000 0.0000000000 -420.0536624941 0.0502954496 -0.0023353016
0.5997404681 -0.5125444472 0.0000000000 0.1984137673 -0.0118895129 -409.8781806787 0.0499515639 -0.0024148943
0.6184491689 -0.4916331495 0.0000000000 0.1465967809 -0.0164369503 -409.9200072851 0.0499703762 -0.0024175914
0.6363624934 -0.4700369803 0.0000000000 0.1042946646 -0.0210242396 -409.7577585424 0.0499888812 -0.0024196293
0.6534552730 -0.4477861918 0.0000000000 0.0697868210 -0.0249790660 -409.2998863882 0.0500069379 -0.0024210530
0.6697034984 -0.4249119487 0.0000000000 0.0414531992 -0.0278148027 -408.4662629316 0.0500244174 -0.0024219056
0.6850843580 -0.4014462872 0.0000000000 0.0179652978 -0.0292289453 -407.1956157641 0.0500412084 -0.0024222302
0.6995762728 -0.3774220696 0.0000000000 -0.0016651523 -0.0290747081 -405.4501455319 0.0500572197 -0.0024220700
0.7131589279 -0.3528729387 0.0000000000 -0.0181256160 -0.0273246628 -403.2173965469 0.0500723826 -0.0024214679
0.7258133013 -0.3278332692 0.0000000000 -0.0318779440 -0.0240378170 -400.5096017906 0.0500866502 -0.0024204653
0.7375216886 -0.3023381200 0.0000000000 -0.0432352830 -0.0193337577 -397.3611049531 0.0500999965 -0.0024191022
0.7482677258 -0.2764231840 0.0000000000 -0.0524248118 -0.0133731505 -393.8243179719 0.0501124142 -0.0024174161
0.7580364091 -0.2501247380 0.0000000000 -0.0596320811 -0.0063426497 -389.9646835010 0.0501239113 -0.0024154419
0.7668141124 -0.2234795924 0.0000000000 -0.0650283754 0.0015573006 -385.8551866958 0.0501345079 -0.0024132120
0.7745886036 -0.1965250392 0.0000000000 -0.0687845687 0.0101224654 -381.5709977776 0.0501442338 -0.0024107557
0.7813490590 -0.1692988005 0.0000000000 -0.0710753928 0.0191527109 -377.1847623194 0.0501531248 -0.0024081004
0.7870860763 -0.1418389761 0.0000000000 -0.0720778124 0.0284576728 -372.7628971757 0.0501612213 -0.0024052711
0.7917916854 -0.1141839904 0.0000000000 -0.0719666514 0.0378601696 -368.3630481190 0.0501685657 -0.0024022911
0.7954593588 -0.0863725393 0.0000000000 -0.0709098541 0.0471975596 -364.0326800972 0.0501752013 -0.0023991826
0.7980840189 -0.0584435366 0.0000000000 -0.0690648984 0.0563214519 -359.8086430126 0.0501811710 -0.0023959667
0.7996620447 -0.0304360593 0.0000000000 -0.0665770508 0.0650963043 -355.7174968905 0.0501865161 -0.0023926639
0.8001912761 -0.0023892942 0.0000000000 -0.0635794825 0.0733974440 -351.7763788013 0.0501912761 -0.0023892945
0.7996710160 0.0256575174 0.0000000000 -0.0601948293 0.0811089655 -347.9942272868 0.0501954874 -0.0023858786
0.7981020318 0.0536651343 0.0000000000 -0.0565375642 0.0881218385 -344.3732255144 0.0501991840 -0.0023824361
0.7954865537 0.0815943702 0.0000000000 -0.0527165353 0.0943324460 -340.9103655415 0.0502023963 -0.0023789872
0.7918282716 0.1094061483 0.0000000000 -0.0488371110 0.0996416996 -337.5990645575 0.0502051520 -0.0023755516
0.7871323307 0.1370615565 0.0000000000 -0.0450025177 0.1039548495 -334.4307782894 0.0502074758 -0.0023721491
0.7814053239 0.1645219016 0.0000000000 -0.0413140893 0.1071821108 -331.3965596596 0.0502093898 -0.0023687991
0.7746552834 0.1917487639 0.0000000000 -0.0378702245 0.1092402462 -328.4885067649 0.0502109137 -0.0023655201
0.7668916695 0.2187040508 0.0000000000 -0.0347638265 0.1100552407 -325.7010378239 0.0502120652 -0.0023623302
0.7581253575 0.2453500504 0.0000000000 -0.0320777854 0.1095661881 -323.0319263799 0.0502128599 -0.0023592462
0.7483686228 0.2716494847 0.0000000000 -0.0298775121 0.1077304927 -320.4830346067 0.0502133114 -0.0023562838
0.7376351232 0.2975655614 0.0000000000 -0.0281983990 0.1045305589 -318.0607114479 0.0502134314 -0.0023534570
0.7259398802 0.3230620262 0.0000000000 -0.0270241976 0.0999823845 -315.7759037047 0.0502132294 -0.0023507783
0.7132992574 0.3481032128 0.0000000000 -0.0262500094 0.0941468807 -313.6441844165 0.0502127123 -0.0023482585
0.6997309375 0.3726540935 0.0000000000 -0.0256226554 0.0871449545 -311.6860781126 0.0502118847 -0.0023459066
0.6852538975 0.3966803275 0.0000000000 -0.0246553468 0.0791764833 -309.9280259450 0.0502107482 -0.0023437300
0.6698883824 0.4201483088 0.0000000000 -0.0225270261 0.0705400600 -308.4037225123 0.0502093017 -0.0023417348
0.6536558768 0.4430252124 0.0000000000 -0.0179990055 0.0616446902 -307.1542786311 0.0502075421 -0.0023399268
0.6365790758 0.4652790394 0.0000000000 -0.0094014619 0.0529995495 -306.2244849362 0.0502054640 -0.0023383121
0.6186818530 0.4868786604 0.0000000000 0.0052606342 0.0451699284 -305.6530905730 0.0502030608 -0.0023368982
0.5999892262 0.5077938575 0.0000000000 0.0280714694 0.0387021210 -305.4550548657 0.0502003224 -0.0023356959
0.5581553084 0.5494601925 0.0000000000 0.1106604032 0.0314472352 -306.1871357146 0.0501941298 -0.0023327406
0.5349150247 0.5699819352 0.0000000000 0.1753571070 0.0317603552 -307.0225162753 0.0501905964 -0.0023311160
0.5108462227 0.5895255801 0.0000000000 0.2548567896 0.0352167066 -308.0424265308 0.0501866883 -0.0023298020
0.4859900652 0.6080577623 0.0000000000 0.3479555602 0.0421017699 -309.1829841434 0.0501824537 -0.0023287757
0.4603890594 0.6255468367 0.0000000000 0.4522680363 0.0527337965 -310.4167559570 0.0501779409 -0.0023280221
0.4340869867 0.6419629356 0.0000000000 0.5641555970 0.0672993404 -311.7344521720 0.0501732000 -0.0023275303
0.4071288302 0.6572780205 0.0000000000 0.6788808046 0.0856565072 -313.1099181489 0.0501682855 -0.0023272930
0.3795606981 0.6714659307 0.0000000000 0.7911219229 0.1072367220 -314.4643766376 0.0501632566 -0.0023273058
0.3514297450 0.6845024290 0.0000000000 0.8957500984 0.1311028539 -315.6551790037 0.0501581767 -0.0023275661
0.3227840905 0.6963652440 0.0000000000 0.9886026435 0.1561277906 -316.4999046756 0.0501531127 -0.0023280721
0.2936727357 0.7070341093 0.0000000000 1.0669986042 0.1812103286 -316.8191581190 0.0501481339 -0.0023288220
0.2641454783 0.7164907989 0.0000000000 1.1298844218 0.2054533520 -316.4713742441 0.0501433103 -0.0023298130
0.2342528264 0.7247191589 0.0000000000 1.1776479523 0.2282641252 -315.3658229514 0.0501387111 -0.0023310406
0.2040459103 0.7317051361 0.0000000000 1.2117256637 0.2493716028 -313.4563107259 0.0501344037 -0.0023324980
0.1735763948 0.7374368016 0.0000000000 1.2341438172 0.2687791434 -310.7247377756 0.0501304522 -0.0023341759
0.1428963897 0.7419043720 0.0000000000 1.2471047198 0.2866812276 -307.1625962696 0.0501269164 -0.0023360628
0.1120583602 0.7451002253 0.0000000000 1.2526812183 0.3033721577 -302.7554214533 0.0501238512 -0.0023381444
0.0811150364 0.7470189142 0.0000000000 1.2526366269 0.3191671698 -297.4726719221 0.0501213059 -0.0023404046
0.0501193234 0.7476571749 0.0000000000 1.2483546108 0.3343463111 -291.2636568475 0.0501193235 -0.0023428251
0.0191242097 0.7470139327 0.0000000000 1.2408475055 0.3491225843 -284.0587642636 0.0501179406 -0.0023453861
-0.0118173228 0.7450903037 0.0000000000 1.2308094423 0.3636302179 -275.7744307195 0.0501171865 -0.0023480661
-0.0426523902 0.7418895929 0.0000000000 1.2186869510 0.3779267020 -266.3200752794 0.0501170834 -0.0023508419
-0.0733282969 0.7374172889 0.0000000000 1.2047489940 0.3920024726 -255.6054727566 0.0501176460 -0.0023536886
-0.1037926256 0.7316810550 0.0000000000 1.1891469774 0.4057936111 -243.5475253758 0.0501188812 -0.0023565790
-0.1339933273 0.7246907159 0.0000000000 1.1719615101 0.4191946553 -230.0758896056 0.0501207883 -0.0023594835
-0.1638788098 0.7164582417 0.0000000000 1.1532363604 0.4320700609 -215.1372966738 0.0501233585 -0.0023623701
-0.1933980267 0.7069977276 0.0000000000 1.1330017384 0.4442638172 -198.6986354096 0.0501265754 -0.0023652036
-0.2225005637 0.6963253694 0.0000000000 1.1112894444 0.4556072663 -180.7489680508 0.0501304144 -0.0023679466
-0.2511367254 0.6844594362 0.0000000000 1.0881421909 0.4659254012 -161.3006686851 0.0501348432 -0.0023705587
-0.2792576202 0.6714202384 0.0000000000 1.0636189245 0.4750419743 -140.3898519946 0.0501398216 -0.0023729979
-0.3068152433 0.6572300926 0.0000000000 1.0377974819 0.4827837054 -118.0762255680 0.0501453016 -0.0023752207
-0.3337625590 0.6419132823 0.0000000000 1.0107754988 0.4889838135 -94.4424673129 0.0501512280 -0.0023771834
-0.3600535805 0.6254960157 0.0000000000 0.9826701814 0.4934850245 -69.5932059014 0.0501575383 -0.0023788429
-0.3856434477 0.6080063795 0.0000000000 0.9536173326 0.4961421565 -43.6536668069 0.0501641640 -0.0023801583
-0.4104885037 0.5894742899 0.0000000000 0.9237698878 0.4968243413 -16.7680373712 0.0501710309 -0.0023810920
-0.4345463676 0.5699314401 0.0000000000 0.8932961203 0.4954169174 10.9024010803 0.0501780610 -0.0023816109
-0.4577760056 0.5494112450 0.0000000000 0.8623776249 0.4918230143 39.1813286483 0.0501851733 -0.0023816879
-0.5015936222 0.5055807573 0.0000000000 0.7999863750 0.4777846636 96.7974977727 0.0501993109 -0.0023804213
-0.5221068744 0.4823453727 0.0000000000 0.7689235221 0.4672455967 125.7272103768 0.0502061769 -0.0023790555
-0.5416425723 0.4582823314 0.0000000000 0.7382311074 0.4543319956 154.4551439408 0.0502128099 -0.0023772029
-0.5601673952 0.4334327426 0.0000000000 0.7081235954 0.4390496904 182.7643785014 0.0502191429 -0.0023748688
-0.5776497415 0.4078390530 0.0000000000 0.6788151291 0.4214259553 210.4370426470 0.0502251174 -0.0023720654
-0.5940597815 0.3815449754 0.0000000000 0.6505173198 0.4015092530 237.2566450350 0.0502306844 -0.0023688112
-0.6093695086 0.3545954146 0.0000000000 0.6234371195 0.3793687693 263.0103329514 0.0502358050 -0.0023651299
-0.6235527865 0.3270363915 0.0000000000 0.5977747939 0.3550937520 287.4910602368 0.0502404501 -0.0023610499
-0.6365853952 0.2989149648 0.0000000000 0.5737220115 0.3287926676 310.4996497368 0.0502445999 -0.0023566034
-0.6484450736 0.2702791520 0.0000000000 0.5514600597 0.3005921903 331.8467374229 0.0502482426 -0.0023518257
-0.6591115582 0.2411778470 0.0000000000 0.5311582032 0.2706360391 351.3545869671 0.0502513732 -0.0023467547
-0.6685666201 0.2116607376 0.0000000000 0.5129721921 0.2390836734 368.8587652496 0.0502539919 -0.0023414303
-0.6767940972 0.1817782208 0.0000000000 0.4970429230 0.2061088578 384.2096706992 0.0502561024 -0.0023358943
-0.6837799232 0.1515813172 0.0000000000 0.4834952405 0.1718981008 397.2739060743 0.0502577108 -0.0023301892
-0.6895121531 0.1211215837 0.0000000000 0.4724368530 0.1366489767 407.9354842767 0.0502588245 -0.0023243587
-0.6939809840 0.0904510264 0.0000000000 0.4639573329 0.1005683556 416.0968522266 0.0502594509 -0.0023184467
-0.6971787724 0.0596220116 0.0000000000 0.4581271957 0.0638705821 421.6797202151 0.0502595973 -0.0023124972
-0.6991000485 0.0286871767 0.0000000000 0.4549970960 0.0267756502 424.6256976822 0.0502592703 -0.0023065536
-0.6997415247 -0.0023006590 0.0000000000 0.4545972115 -0.0104925977 424.8967543841 0.0502584753 -0.0023006587
-0.6991021026 -0.0332885847 0.0000000000 0.4569368815 -0.0477082510 422.4755347279 0.0502572161 -0.0022948538
-0.6971828742 -0.0642236876 0.0000000000 0.4620045119 -0.0846451039 417.3655335668 0.0502554955 -0.0022891782
-0.6939871206 -0.0950531427 0.0000000000 0.4697677574 -0.1210784419 409.5911366753 0.0502533142 -0.0022836690
-0.6895203062 -0.1257243032 0.0000000000 0.4801739740 -0.1567868679 399.1975182855 0.0502506713 -0.0022783601
-0.6837900702 -0.1561847890 0.0000000000 0.4931508411 -0.1915541750 386.2503592209 0.0502475638 -0.0022732820