 TITLE = "Tecplot data"
 VARIABLES = "X", "Y", "Z" "U", "V", "p", "dispX", "dispY"
 ZONE SOLUTIONTIME=144.900000, NODES=26114 , ELEMENTS=25916, DATAPACKING=POINT, ZONETYPE=FEQUADRILATERAL
0.4086902453 0.4086902454 0.0000000000 0.0009228353 0.0009228353 -420.4742555121 0.0551368548 0.0551368548
0.4086902456 -0.2984165355 0.0000000000 0.0009228353 0.0009228353 -474.4719081636 0.0551368548 0.0551368548
-0.2984165359 0.4086902453 0.0000000000 0.0009228353 0.0009228353 -222.1804778267 0.0551368548 0.0551368548
-0.2984165356 -0.2984165360 0.0000000000 0.0009228353 0.0009228353 -138.5277520385 0.0551368548 0.0551368548
0.5808682995 0.5809244695 0.0000000000 0.2943756575 0.0239653198 -392.5447948401 0.0505382137 0.0505943835
0.5760425530 -0.4845260913 0.0000000000 0.3230866865 0.0474100268 -481.6989207069 0.0457124667 0.0458039942
-0.4849157907 0.5759078904 0.0000000000 0.9004168040 0.5191841136 30.4645975638 0.0454142954 0.0455778046
-0.4801873514 -0.4797011999 0.0000000000 0.8581221989 -0.4627204398 51.7502204727 0.0501427343 0.0506288863
1.1007558728 1.1008304926 0.0000000000 1.2877952841 -0.1752084015 -263.1413282346 0.0400957011 0.0401703208
1.0929589808 -1.0280229453 0.0000000000 1.1145112979 -0.0041416019 -109.3347253147 0.0322988083 0.0326372258
-1.0291514120 1.0926371347 0.0000000000 0.9692931197 0.1687549415 76.7468305047 0.0315087601 0.0319769633
-1.0217682842 -1.0205365176 0.0000000000 0.9453595405 -0.1501045322 77.8828757604 0.0388918871 0.0401236548
4.2206939260 3.3181655275 0.0000000000 1.0403065174 0.0028154280 27.6009656982 0.0206939260 0.0181655275
4.2124288064 -3.2889735927 0.0000000000 1.0035199113 0.0232784528 25.0083988891 0.0124288064 0.0110264073
20.0000000000 4.7000000000 0.0000000000 1.0399976768 0.0354473551 0.1551039226 0.0000000000 0.0000000000
20.0000000000 -4.7000000000 0.0000000000 1.0433755473 -0.0314051846 0.1135201851 0.0000000000 0.0000000000
-10.0000000000 15.0000000000 0.0000000000 1.0000000000 0.0000000000 31.8311757968 0.0000000000 0.0000000000
20.0000000000 15.0000000000 0.0000000000 1.0317517960 0.0000000000 0.0233268811 0.0000000000 0.0000000000
20.0000000000 -15.0000000000 0.0000000000 1.0319599430 0.0000000000 0.0247768133 0.0000000000 0.0000000000
-10.0000000000 -15.0000000000 0.0000000000 1.0000000000 0.0000000000 34.5101724617 0.0000000000 0.0000000000
0.4216627909 -0.2849495138 0.0000000000 0.0009228353 0.0009228353 -470.4632007735 0.0551368548 0.0551368548
0.4341227166 -0.2710068506 0.0000000000 0.0009228353 0.0009228353 -465.6698189564 0.0551368548 0.0551368548
0.4460525962 -0.2566080459 0.0000000000 0.0009228353 0.0009228353 -460.3474643491 0.0551368548 0.0551368548
0.4574357449 -0.2417732377 0.0000000000 0.0009228353 0.0009228353 -454.4654932676 0.0551368548 0.0551368548
0.4682562421 -0.2265231740 0.0000000000 0.0009228353 0.0009228353 -448.2685749681 0.0551368548 0.0551368548
0.4784989546 -0.2108791832 0.0000000000 0.0009228353 0.0009228353 -441.9619211279 0.0551368548 0.0551368548
0.4881495568 -0.1948631449 0.0000000000 0.0009228353 0.0009228353 -435.8434260134 0.0551368548 0.0551368548
0.4971945517 -0.1784974591 0.0000000000 0.0009228353 0.0009228353 -430.2052686888 0.0551368548 0.0551368548
0.5056212889 -0.1618050145 0.0000000000 0.0009228353 0.0009228353 -425.3417033917 0.0551368548 0.0551368548
0.5134179828 -0.1448091571 0.0000000000 0.0009228353 0.0009228353 -421.5069075056 0.0551368548 0.0551368548
0.5205737292 -0.1275336571 0.0000000000 0.0009228353 0.0009228353 -418.9007202215 0.0551368548 0.0551368548
0.5270785200 -0.1100026759 0.0000000000 0.0009228353 0.0009228353 -417.6485209633 0.0551368548 0.0551368548
0.5329232578 -0.0922407322 0.0000000000 0.0009228353 0.0009228353 -417.7927760111 0.0551368548 0.0551368548
0.5380997680 -0.0742726675 0.0000000000 0.0009228353 0.0009228353 -419.2884655687 0.0551368548 0.0551368548
0.5426008109 -0.0561236119 0.0000000000 0.0009228353 0.0009228353 -422.0059679424 0.0551368548 0.0551368548
0.5464200915 -0.0378189486 0.0000000000 0.0009228353 0.0009228353 -425.7392201742 0.0551368548 0.0551368548
0.5495522679 -0.0193842781 0.0000000000 0.0009228353 0.0009228353 -430.2196012294 0.0551368548 0.0551368548
0.5519929598 -0.0008453830 0.0000000000 0.0009228353 0.0009228353 -435.1344582853 0.0551368548 0.0551368548
0.5537387534 0.0177718082 0.0000000000 0.0009228353 0.0009228353 -440.1494641557 0.0551368548 0.0551368548
0.5547872072 0.0364412579 0.0000000000 0.0009228353 0.0009228353 -444.9331298142 0.0551368548 0.0551368548
0.5551368548 0.0551368550 0.0000000000 0.0009228353 0.0009228353 -449.1814165376 0.0551368548 0.0551368548
0.5547872072 0.0738324521 0.0000000000 0.0009228353 0.0009228353 -452.6399452706 0.0551368548 0.0551368548
0.5537387534 0.0925019018 0.0000000000 0.0009228353 0.0009228353 -455.1213496007 0.0551368548 0.0551368548
0.5519929597 0.1111190930 0.0000000000 0.0009228353 0.0009228353 -456.5157371505 0.0551368548 0.0551368548
0.5495522679 0.1296579881 0.0000000000 0.0009228353 0.0009228353 -456.7931297365 0.0551368548 0.0551368548
0.5464200914 0.1480926585 0.0000000000 0.0009228353 0.0009228353 -455.9978460547 0.0551368548 0.0551368548
0.5426008108 0.1663973219 0.0000000000 0.0009228353 0.0009228353 -454.2360387208 0.0551368548 0.0551368548
0.5380997679 0.1845463775 0.0000000000 0.0009228353 0.0009228353 -451.6584143241 0.0551368548 0.0551368548
0.5329232576 0.2025144421 0.0000000000 0.0009228353 0.0009228353 -448.4409974425 0.0551368548 0.0551368548
0.5270785199 0.2202763859 0.0000000000 0.0009228353 0.0009228353 -444.7664882846 0.0551368548 0.0551368548
0.5205737291 0.2378073671 0.0000000000 0.0009228353 0.0009228353 -440.8094537995 0.0551368548 0.0551368548
0.5134179827 0.2550828671 0.0000000000 0.0009228353 0.0009228353 -436.7266556723 0.0551368548 0.0551368548
0.5056212887 0.2720787245 0.0000000000 0.0009228353 0.0009228353 -432.6560030367 0.0551368548 0.0551368548
0.4971945515 0.2887711690 0.0000000000 0.0009228353 0.0009228353 -428.7215283895 0.0551368548 0.0551368548
0.4881495566 0.3051368549 0.0000000000 0.0009228353 0.0009228353 -425.0488134655 0.0551368548 0.0551368548
0.4784989544 0.3211528931 0.0000000000 0.0009228353 0.0009228353 -421.7770311766 0.0551368548 0.0551368548
0.4682562419 0.3367968839 0.0000000000 0.0009228353 0.0009228353 -419.0775023697 0.0551368548 0.0551368548
0.4574357446 0.3520469476 0.0000000000 0.0009228353 0.0009228353 -417.1422640553 0.0551368548 0.0551368548
0.4460525960 0.3668817558 0.0000000000 0.0009228353 0.0009228353 -416.1793182687 0.0551368548 0.0551368548
0.4341227163 0.3812805605 0.0000000000 0.0009228353 0.0009228353 -416.3590032623 0.0551368548 0.0551368548
0.4216627907 0.3952232237 0.0000000000 0.0009228353 0.0009228353 -417.7691904878 0.0551368548 0.0551368548
0.3937776406 0.4229988102 0.0000000000 0.0009228353 0.0009228353 -424.7182721237 0.0551368548 0.0551368548
0.3782864737 0.4366788889 0.0000000000 0.0009228353 0.0009228353 -430.3086707807 0.0551368548 0.0551368548
0.3622432111 0.4497071095 0.0000000000 0.0009228353 0.0009228353 -436.8300875870 0.0551368548 0.0551368548
0.3456752624 0.4620612135 0.0000000000 0.0009228353 0.0009228353 -444.2484637883 0.0551368548 0.0551368548
0.3286109338 0.4737200940 0.0000000000 0.0009228353 0.0009228353 -452.4947956990 0.0551368548 0.0551368548
0.3110793793 0.4846638320 0.0000000000 0.0009228353 0.0009228353 -461.6707221647 0.0551368548 0.0551368548
0.2931105512 0.4948737304 0.0000000000 0.0009228353 0.0009228353 -471.8903896865 0.0551368548 0.0551368548
0.2747351491 0.5043323458 0.0000000000 0.0009228353 0.0009228353 -483.2871294989 0.0551368548 0.0551368548
0.2559845670 0.5130235181 0.0000000000 0.0009228353 0.0009228353 -495.9435950665 0.0551368548 0.0551368548
0.2368908400 0.5209323988 0.0000000000 0.0009228353 0.0009228353 -509.8906113865 0.0551368548 0.0551368548
0.2174865893 0.5280454757 0.0000000000 0.0009228353 0.0009228353 -525.0908349995 0.0551368548 0.0551368548
0.1978049668 0.5343505960 0.0000000000 0.0009228353 0.0009228353 -541.4410894523 0.0551368548 0.0551368548
0.1778795983 0.5398369878 0.0000000000 0.0009228353 0.0009228353 -558.7656268968 0.0551368548 0.0551368548
0.1577445258 0.5444952775 0.0000000000 0.0009228353 0.0009228353 -576.8140848921 0.0551368548 0.0551368548
0.1374341498 0.5483175065 0.0000000000 0.0009228353 0.0009228353 -595.2592446631 0.0551368548 0.0551368548
0.1169831703 0.5512971447 0.0000000000 0.0009228353 0.0009228353 -613.7005868226 0.0551368548 0.0551368548
0.0964265274 0.5534291013 0.0000000000 0.0009228353 0.0009228353 -631.6722392682 0.0551368548 0.0551368548
0.0757993418 0.5547097340 0.0000000000 0.0009228353 0.0009228353 -648.6563448964 0.0551368548 0.0551368548
0.0551368547 0.5551368548 0.0000000000 0.0009228353 0.0009228353 -664.1003257441 0.0551368548 0.0551368548
0.0344743676 0.5547097340 0.0000000000 0.0009228353 0.0009228353 -677.4370707598 0.0551368548 0.0551368548
0.0138471819 0.5534291013 0.0000000000 0.0009228353 0.0009228353 -688.1062868352 0.0551368548 0.0551368548
-0.0067094610 0.5512971446 0.0000000000 0.0009228353 0.0009228353 -695.5755001503 0.0551368548 0.0551368548
-0.0271604405 0.5483175065 0.0000000000 0.0009228353 0.0009228353 -699.3592158838 0.0551368548 0.0551368548
-0.0474708164 0.5444952774 0.0000000000 0.0009228353 0.0009228353 -699.0351468584 0.0551368548 0.0551368548
-0.0676058889 0.5398369877 0.0000000000 0.0009228353 0.0009228353 -694.2567926391 0.0551368548 0.0551368548
-0.0875312575 0.5343505960 0.0000000000 0.0009228353 0.0009228353 -684.7620886343 0.0551368548 0.0551368548
-0.1072128799 0.5280454756 0.0000000000 0.0009228353 0.0009228353 -670.3782018595 0.0551368548 0.0551368548
-0.1266171306 0.5209323988 0.0000000000 0.0009228353 0.0009228353 -651.0228328004 0.0551368548 0.0551368548
-0.1457108577 0.5130235181 0.0000000000 0.0009228353 0.0009228353 -626.7025566303 0.0551368548 0.0551368548
-0.1644614398 0.5043323457 0.0000000000 0.0009228353 0.0009228353 -597.5088178077 0.0551368548 0.0551368548
-0.1828368418 0.4948737303 0.0000000000 0.0009228353 0.0009228353 -563.6121919887 0.0551368548 0.0551368548
-0.2008056699 0.4846638319 0.0000000000 0.0009228353 0.0009228353 -525.2554725546 0.0551368548 0.0551368548
-0.2183372244 0.4737200938 0.0000000000 0.0009228353 0.0009228353 -482.7460468612 0.0551368548 0.0551368548
-0.2354015530 0.4620612133 0.0000000000 0.0009228353 0.0009228353 -436.4479200821 0.0551368548 0.0551368548
-0.2519695017 0.4497071094 0.0000000000 0.0009228353 0.0009228353 -386.7736393379 0.0551368548 0.0551368548
-0.2680127643 0.4366788888 0.0000000000 0.0009228353 0.0009228353 -334.1762823319 0.0551368548 0.0551368548
-0.2835039311 0.4229988100 0.0000000000 0.0009228353 0.0009228353 -279.1416132584 0.0551368548 0.0551368548
-0.3127251007 0.3937776405 0.0000000000 0.0009228353 0.0009228353 -163.8215031842 0.0551368548 0.0551368548
-0.3264051794 0.3782864736 0.0000000000 0.0009228353 0.0009228353 -104.6041733176 0.0551368548 0.0551368548
-0.3394334000 0.3622432110 0.0000000000 0.0009228353 0.0009228353 -45.0723497096 0.0551368548 0.0551368548
-0.3517875039 0.3456752624 0.0000000000 0.0009228353 0.0009228353 14.2317099560 0.0551368548 0.0551368548
-0.3634463844 0.3286109337 0.0000000000 0.0009228353 0.0009228353 72.7728147519 0.0551368548 0.0551368548
-0.3743901225 0.3110793792 0.0000000000 0.0009228353 0.0009228353 130.0278022772 0.0551368548 0.0551368548
-0.3846000209 0.2931105512 0.0000000000 0.0009228353 0.0009228353 185.4900456669 0.0551368548 0.0551368548
-0.3940586362 0.2747351491 0.0000000000 0.0009228353 0.0009228353 238.6735651490 0.0551368548 0.0551368548
-0.4027498086 0.2559845670 0.0000000000 0.0009228353 0.0009228353 289.1167996605 0.0551368548 0.0551368548
-0.4106586893 0.2368908399 0.0000000000 0.0009228353 0.0009228353 336.3860792756 0.0551368548 0.0551368548
-0.4177717661 0.2174865892 0.0000000000 0.0009228353 0.0009228353 380.0788208646 0.0551368548 0.0551368548
-0.4240768865 0.1978049667 0.0000000000 0.0009228353 0.0009228353 419.8264532381 0.0551368548 0.0551368548
-0.4295632782 0.1778795982 0.0000000000 0.0009228353 0.0009228353 455.2970668499 0.0551368548 0.0551368548
-0.4342215679 0.1577445257 0.0000000000 0.0009228353 0.0009228353 486.1977772427 0.0551368548 0.0551368548
-0.4380437969 0.1374341497 0.0000000000 0.0009228353 0.0009228353 512.2767897870 0.0551368548 0.0551368548
-0.4410234351 0.1169831702 0.0000000000 0.0009228353 0.0009228353 533.3251543518 0.0551368548 0.0551368548
-0.4431553917 0.0964265273 0.0000000000 0.0009228353 0.0009228353 549.1782010469 0.0551368548 0.0551368548
-0.4444360244 0.0757993417 0.0000000000 0.0009228353 0.0009228353 559.7166510155 0.0551368548 0.0551368548
-0.4448631452 0.0551368546 0.0000000000 0.0009228353 0.0009228353 564.8673988016 0.0551368548 0.0551368548
-0.4444360244 0.0344743675 0.0000000000 0.0009228353 0.0009228353 564.6039646801 0.0551368548 0.0551368548
-0.4431553917 0.0138471818 0.0000000000 0.0009228353 0.0009228353 558.9466164232 0.0551368548 0.0551368548
-0.4410234351 -0.0067094611 0.0000000000 0.0009228353 0.0009228353 547.9621604015 0.0551368548 0.0551368548
-0.4380437969 -0.0271604406 0.0000000000 0.0009228353 0.0009228353 531.7634019140 0.0551368548 0.0551368548
-0.4342215678 -0.0474708165 0.0000000000 0.0009228353 0.0009228353 510.5082745117 0.0551368548 0.0551368548
-0.4295632781 -0.0676058890 0.0000000000 0.0009228353 0.0009228353 484.3986381147 0.0551368548 0.0551368548
-0.4240768864 -0.0875312575 0.0000000000 0.0009228353 0.0009228353 453.6787460843 0.0551368548 0.0551368548
-0.4177717660 -0.1072128800 0.0000000000 0.0009228353 0.0009228353 418.6333820867 0.0551368548 0.0551368548
-0.4106586892 -0.1266171307 0.0000000000 0.0009228353 0.0009228353 379.5856684370 0.0551368548 0.0551368548
-0.4027498084 -0.1457108577 0.0000000000 0.0009228353 0.0009228353 336.8945483619 0.0551368548 0.0551368548
-0.3940586361 -0.1644614398 0.0000000000 0.0009228353 0.0009228353 290.9519450146 0.0551368548 0.0551368548
-0.3846000207 -0.1828368419 0.0000000000 0.0009228353 0.0009228353 242.1795998730 0.0551368548 0.0551368548
-0.3743901223 -0.2008056700 0.0000000000 0.0009228353 0.0009228353 191.0255922575 0.0551368548 0.0551368548
-0.3634463842 -0.2183372245 0.0000000000 0.0009228353 0.0009228353 137.9605401113 0.0551368548 0.0551368548
-0.3517875037 -0.2354015531 0.0000000000 0.0009228353 0.0009228353 83.4734800380 0.0551368548 0.0551368548
-0.3394333998 -0.2519695018 0.0000000000 0.0009228353 0.0009228353 28.0674221362 0.0551368548 0.0551368548
-0.3264051791 -0.2680127643 0.0000000000 0.0009228353 0.0009228353 -27.7454272411 0.0551368548 0.0551368548
-0.3127251004 -0.2835039312 0.0000000000 0.0009228353 0.0009228353 -83.4487835099 0.0551368548 0.0551368548
-0.2835039308 -0.3127251007 0.0000000000 0.0009228353 0.0009228353 -192.4746544362 0.0551368548 0.0551368548
-0.2680127639 -0.3264051795 0.0000000000 0.0009228353 0.0009228353 -244.7952163247 0.0551368548 0.0551368548
-0.2519695013 -0.3394334001 0.0000000000 0.0009228353 0.0009228353 -295.0151108315 0.0551368548 0.0551368548
-0.2354015527 -0.3517875040 0.0000000000 0.0009228353 0.0009228353 -342.6868367043 0.0551368548 0.0551368548
-0.2183372240 -0.3634463845 0.0000000000 0.0009228353 0.0009228353 -387.3968865744 0.0551368548 0.0551368548
-0.2008056695 -0.3743901225 0.0000000000 0.0009228353 0.0009228353 -428.7731276340 0.0551368548 0.0551368548
-0.1828368415 -0.3846000209 0.0000000000 0.0009228353 0.0009228353 -466.4922723758 0.0551368548 0.0551368548
-0.1644614394 -0.3940586363 0.0000000000 0.0009228353 0.0009228353 -500.2872604118 0.0551368548 0.0551368548
-0.1457108573 -0.4027498087 0.0000000000 0.0009228353 0.0009228353 -529.9543047125 0.0551368548 0.0551368548
-0.1266171302 -0.4106586893 0.0000000000 0.0009228353 0.0009228353 -555.3592802639 0.0551368548 0.0551368548
-0.1072128795 -0.4177717662 0.0000000000 0.0009228353 0.0009228353 -576.4430569456 0.0551368548 0.0551368548
-0.0875312571 -0.4240768865 0.0000000000 0.0009228353 0.0009228353 -593.2253121683 0.0551368548 0.0551368548
-0.0676058885 -0.4295632783 0.0000000000 0.0009228353 0.0009228353 -605.8063175975 0.0551368548 0.0551368548
-0.0474708160 -0.4342215679 0.0000000000 0.0009228353 0.0009228353 -614.3661961599 0.0551368548 0.0551368548
-0.0271604401 -0.4380437970 0.0000000000 0.0009228353 0.0009228353 -619.1612096898 0.0551368548 0.0551368548
-0.0067094605 -0.4410234351 0.0000000000 0.0009228353 0.0009228353 -620.5167785419 0.0551368548 0.0551368548
0.0138471824 -0.4431553917 0.0000000000 0.0009228353 0.0009228353 -618.8171594967 0.0551368548 0.0551368548
0.0344743680 -0.4444360244 0.0000000000 0.0009228353 0.0009228353 -614.4920049703 0.0551368548 0.0551368548
0.0551368551 -0.4448631452 0.0000000000 0.0009228353 0.0009228353 -608.0003715532 0.0551368548 0.0551368548
0.0757993422 -0.4444360244 0.0000000000 0.0009228353 0.0009228353 -599.8130793660 0.0551368548 0.0551368548
0.0964265278 -0.4431553917 0.0000000000 0.0009228353 0.0009228353 -590.3946069990 0.0551368548 0.0551368548
0.1169831707 -0.4410234350 0.0000000000 0.0009228353 0.0009228353 -580.1858326735 0.0551368548 0.0551368548
0.1374341502 -0.4380437969 0.0000000000 0.0009228353 0.0009228353 -569.5889539681 0.0551368548 0.0551368548
0.1577445262 -0.4342215678 0.0000000000 0.0009228353 0.0009228353 -558.9556545504 0.0551368548 0.0551368548
0.1778795987 -0.4295632781 0.0000000000 0.0009228353 0.0009228353 -548.5794840973 0.0551368548 0.0551368548
0.1978049672 -0.4240768863 0.0000000000 0.0009228353 0.0009228353 -538.6927750872 0.0551368548 0.0551368548
0.2174865897 -0.4177717660 0.0000000000 0.0009228353 0.0009228353 -529.4687935712 0.0551368548 0.0551368548
0.2368908404 -0.4106586891 0.0000000000 0.0009228353 0.0009228353 -521.0276115421 0.0551368548 0.0551368548
0.2559845674 -0.4027498084 0.0000000000 0.0009228353 0.0009228353 -513.4458376918 0.0551368548 0.0551368548
0.2747351495 -0.3940586360 0.0000000000 0.0009228353 0.0009228353 -506.7618021499 0.0551368548 0.0551368548
0.2931105516 -0.3846000207 0.0000000000 0.0009228353 0.0009228353 -500.9805073137 0.0551368548 0.0551368548
0.3110793796 -0.3743901222 0.0000000000 0.0009228353 0.0009228353 -496.0559374563 0.0551368548 0.0551368548
0.3286109341 -0.3634463842 0.0000000000 0.0009228353 0.0009228353 -491.8956325581 0.0551368548 0.0551368548
0.3456752628 -0.3517875036 0.0000000000 0.0009228353 0.0009228353 -488.3083437642 0.0551368548 0.0551368548
0.3622432114 -0.3394333997 0.0000000000 0.0009228353 0.0009228353 -485.0919786816 0.0551368548 0.0551368548
0.3782864740 -0.3264051791 0.0000000000 0.0009228353 0.0009228353 -481.8781684063 0.0551368548 0.0551368548
0.3937776409 -0.3127251003 0.0000000000 0.0009228353 0.0009228353 -478.5175187702 0.0551368548 0.0551368548
0.5956964188 -0.4644933920 0.0000000000 0.2508225229 0.0523218977 -484.1730638886 0.0459075146 0.0456361610
0.6145931179 -0.4437328372 0.0000000000 0.1848120209 0.0593705457 -485.5965961936 0.0461143252 0.0454827208
0.6327053945 -0.4222728391 0.0000000000 0.1240759231 0.0694426381 -485.7596138114 0.0463317823 0.0453445119
0.6500070469 -0.4001428509 0.0000000000 0.0680405224 0.0830116542 -484.5096155468 0.0465587118 0.0452222879
0.6664729689 -0.3773733288 0.0000000000 0.0167070255 0.1001613597 -481.8286772716 0.0467938879 0.0451167144
0.6820791893 -0.3539956920 0.0000000000 -0.0294584226 0.1206582582 -477.8596167469 0.0470360396 0.0450283650
0.6968029107 -0.3300422807 0.0000000000 -0.0697928758 0.1440497682 -472.9035252507 0.0472838577 0.0449577189
0.7106225470 -0.3055463131 0.0000000000 -0.1037400558 0.1697719463 -467.3858997663 0.0475360016 0.0449051577
0.7235177582 -0.2805418400 0.0000000000 -0.1310817585 0.1972536275 -461.7967082046 0.0477911070 0.0448709639
0.7354694847 -0.2550636985 0.0000000000 -0.1520238683 0.2259975087 -456.6205846851 0.0480477926 0.0448553193
0.7464599795 -0.2291474639 0.0000000000 -0.1671189510 0.2556154886 -452.2775703196 0.0483046679 0.0448583040
0.7564728383 -0.2028294003 0.0000000000 -0.1770733129 0.2858068875 -449.0879926982 0.0485603404 0.0448798958
0.7654930280 -0.1761464095 0.0000000000 -0.1825314199 0.3162914555 -447.2610934194 0.0488134236 0.0449199710
0.7735069135 -0.1491359793 0.0000000000 -0.1839280574 0.3467296464 -446.8963287440 0.0490625437 0.0449783042
0.7805022818 -0.1218361298 0.0000000000 -0.1814537443 0.3766669003 -447.9856019732 0.0493063476 0.0450545703
0.7864683648 -0.0942853593 0.0000000000 -0.1751229258 0.4055248941 -450.4118780988 0.0495435098 0.0451483457
0.7913958596 -0.0665225885 0.0000000000 -0.1648974899 0.4326403817 -453.9477806407 0.0497727398 0.0452591108
0.7952769462 -0.0385871038 0.0000000000 -0.1508112062 0.4573337534 -458.2614829222 0.0499927888 0.0453862529
0.7981053044 -0.0105185006 0.0000000000 -0.1330566879 0.4789823855 -462.9353862721 0.0502024565 0.0455290692
0.7998761262 0.0176433754 0.0000000000 -0.1120207796 0.4970781255 -467.4980837612 0.0504005976 0.0456867708
0.8005861281 0.0458584869 0.0000000000 -0.0882744549 0.5112584533 -471.4652604026 0.0505861281 0.0458584866
0.8002335596 0.0740866643 0.0000000000 -0.0625337704 0.5213105953 -474.3826567068 0.0507580310 0.0460432683
0.7988182098 0.1022876657 0.0000000000 -0.0356099185 0.5271533034 -475.8644096062 0.0509153619 0.0462400953
0.7963414116 0.1304212375 0.0000000000 -0.0083627809 0.5288017964 -475.6221684087 0.0510572542 0.0464478802
0.7928060433 0.1584471744 0.0000000000 0.0183327610 0.5263197461 -473.4832429481 0.0511829236 0.0466654745
0.7882165278 0.1863253805 0.0000000000 0.0436036394 0.5197614891 -469.3987437809 0.0512916729 0.0468916749
0.7825788293 0.2140159304 0.0000000000 0.0665801584 0.5091107311 -463.4444853067 0.0513828952 0.0471252297
0.7759004476 0.2414791295 0.0000000000 0.0863915334 0.4942297731 -455.8176917287 0.0514560780 0.0473648454
0.7681904096 0.2686755750 0.0000000000 0.1021735572 0.4748428257 -446.8308636614 0.0515108054 0.0476091939
0.7594592586 0.2955662161 0.0000000000 0.1131122291 0.4505808345 -436.9008792316 0.0515467609 0.0478569195
0.7497190409 0.3221124144 0.0000000000 0.1185417667 0.4211039920 -426.5280894548 0.0515637295 0.0481066460
0.7389832900 0.3482760030 0.0000000000 0.1180936095 0.3862878722 -416.2592841255 0.0515615982 0.0483569846
0.7272670085 0.3740193457 0.0000000000 0.1118685300 0.3464210900 -406.6324993034 0.0515403576 0.0486065412
0.7145866470 0.3993053953 0.0000000000 0.1006311842 0.3023467825 -398.1136463831 0.0515001019 0.0488539239
0.7009600812 0.4240977508 0.0000000000 0.0861418973 0.2555168334 -391.0537754969 0.0514410284 0.0490977506
0.6864065861 0.4483607143 0.0000000000 0.0717488621 0.2079802769 -385.6989720829 0.0513634367 0.0493366568
0.6709468082 0.4720593461 0.0000000000 0.0629090581 0.1622755462 -382.2382236802 0.0512677275 0.0495693024
0.6546027352 0.4951595194 0.0000000000 0.0667051855 0.1210611446 -380.8112036990 0.0511544004 0.0497943801
0.6373976632 0.5176279730 0.0000000000 0.0898427663 0.0864167648 -381.4279607102 0.0510240514 0.0500106215
0.6193561623 0.5394323635 0.0000000000 0.1361569908 0.0591685324 -383.8778817745 0.0508773700 0.0502168050
0.6005040395 0.5605413153 0.0000000000 0.2054559042 0.0387874746 -387.7436332114 0.0507151356 0.0504117619
0.5582878670 0.6025735883 0.0000000000 0.4097984839 0.0125804856 -398.4210417899 0.0503266884 0.0507806552
0.5348241918 0.6232623293 0.0000000000 0.5369506737 0.0057510591 -404.3967195446 0.0500997635 0.0509492781
0.5105184656 0.6429544454 0.0000000000 0.6696365566 0.0032176977 -410.2297926806 0.0498589311 0.0510990633
0.4854133901 0.6616154846 0.0000000000 0.8019077871 0.0051247462 -415.7664802439 0.0496057787 0.0512289466
0.4595530973 0.6792128552 0.0000000000 0.9279810338 0.0114581513 -420.8727863016 0.0493419788 0.0513379964
0.4329830650 0.6957158861 0.0000000000 1.0427519283 0.0218412542 -425.4109929541 0.0490692783 0.0514254203
0.4057500315 0.7110958841 0.0000000000 1.1424704295 0.0355778535 -429.2585542286 0.0487894869 0.0514905707
0.3779019063 0.7253261865 0.0000000000 1.2251480994 0.0518188651 -432.3353252666 0.0485044647 0.0515329500
0.3494876790 0.7383822096 0.0000000000 1.2905434796 0.0697380979 -434.6114111976 0.0482161106 0.0515522145
0.3205573265 0.7502414931 0.0000000000 1.3398146355 0.0886570701 -436.0948988624 0.0479263487 0.0515481770
0.2911617179 0.7608837399 0.0000000000 1.3750150582 0.1081027269 -436.8107418496 0.0476371161 0.0515208086
0.2613525175 0.7702908515 0.0000000000 1.3985895469 0.1278066067 -436.7798002653 0.0473503494 0.0514702396
0.2311820871 0.7784469589 0.0000000000 1.4129691973 0.1476651223 -436.0024189135 0.0470679719 0.0513967595
0.2007033864 0.7853384487 0.0000000000 1.4203060257 0.1676828352 -434.4483145781 0.0467918799 0.0513008147
0.1699698730 0.7909539846 0.0000000000 1.4223428978 0.1879164771 -432.0531388928 0.0465239304 0.0511830070
0.1390354014 0.7952845244 0.0000000000 1.4203884660 0.2084302836 -428.7209709718 0.0462659281 0.0510440896
0.1079541213 0.7983233321 0.0000000000 1.4153585813 0.2292662698 -424.3311466062 0.0460196124 0.0508849624
0.0767803766 0.8000659855 0.0000000000 1.4078496674 0.2504283260 -418.7474787678 0.0457866460 0.0507066667
0.0455686029 0.8005103783 0.0000000000 1.3982192740 0.2718767708 -411.8280916594 0.0455686031 0.0505103783
0.0143732270 0.7996567190 0.0000000000 1.3866593513 0.2935296417 -403.4345813278 0.0453669578 0.0502974002
-0.0167514348 0.7975075233 0.0000000000 1.3732559498 0.3152676506 -393.4397810462 0.0451830744 0.0500691536
-0.0477512764 0.7940676037 0.0000000000 1.3580342943 0.3369406887 -381.7338758036 0.0450181973 0.0498271690
-0.0785725011 0.7893440532 0.0000000000 1.3409908871 0.3583746257 -368.2289111599 0.0448734418 0.0495730756
-0.1091617202 0.7833462248 0.0000000000 1.3221152823 0.3793777741 -352.8618896952 0.0447497866 0.0493085909
-0.1394660494 0.7760857076 0.0000000000 1.3014041798 0.3997467682 -335.5966902041 0.0446480661 0.0490355082
-0.1694332038 0.7675762972 0.0000000000 1.2788700697 0.4192718119 -316.4250295693 0.0445689645 0.0487556854
-0.1990115914 0.7578339626 0.0000000000 1.2545461309 0.4377413330 -295.3666506554 0.0445130107 0.0484710314
-0.2281504044 0.7468768096 0.0000000000 1.2284886027 0.4549461063 -272.4688818303 0.0444805737 0.0481834936
-0.2567997082 0.7347250389 0.0000000000 1.2007774724 0.4706829037 -247.8056832542 0.0444718604 0.0478950440
-0.2849105287 0.7214009017 0.0000000000 1.1715160405 0.4847577146 -221.4762733552 0.0444869131 0.0476076654
-0.3124349359 0.7069286511 0.0000000000 1.1408297393 0.4969885684 -193.6034143039 0.0445256091 0.0473233378
-0.3393261258 0.6913344901 0.0000000000 1.1088644521 0.5072079802 -164.3314254043 0.0445876612 0.0470440244
-0.3655384995 0.6746465162 0.0000000000 1.0757845007 0.5152650349 -133.8239860548 0.0446726192 0.0467716576
-0.3910277387 0.6568946632 0.0000000000 1.0417704175 0.5210271242 -102.2617838433 0.0447798730 0.0465081254
-0.4157508783 0.6381106397 0.0000000000 1.0070165825 0.5243813494 -69.8400576497 0.0449086564 0.0462552578
-0.4396663765 0.6183278650 0.0000000000 0.9717287890 0.5252356039 -36.7660800109 0.0450580521 0.0460148140
-0.4627341807 0.5975814025 0.0000000000 0.9361217815 0.5235193508 -3.2566174775 0.0452269982 0.0457884696
-0.5061743178 0.5533454706 0.0000000000 0.8648391857 0.5122036981 64.1693548993 0.0456186154 0.0453842921
-0.5264745414 0.5299337154 0.0000000000 0.8296159887 0.5025741650 97.6273897548 0.0458385099 0.0452092871
-0.5457829611 0.5057135520 0.0000000000 0.7949737360 0.4903135745 130.6087202652 0.0460724211 0.0450540176
-0.5640678457 0.4807271862 0.0000000000 0.7611362382 0.4754615250 162.8858811868 0.0463186924 0.0449195748
-0.5812992784 0.4550180238 0.0000000000 0.7283225313 0.4580785065 194.2360388840 0.0465755804 0.0448069055
-0.5974491989 0.4286305916 0.0000000000 0.6967449400 0.4382450896 224.4429757970 0.0468412671 0.0447168050
-0.6124914410 0.4016104562 0.0000000000 0.6666072762 0.4160609696 253.2989359635 0.0471138725 0.0446499116
-0.6264017678 0.3740041429 0.0000000000 0.6381031790 0.3916438820 280.6063264131 0.0473914687 0.0446067015
-0.6391579019 0.3458590536 0.0000000000 0.6114146041 0.3651284049 306.1792718440 0.0476720932 0.0445874853
-0.6507395531 0.3172233838 0.0000000000 0.5867104642 0.3366646631 329.8450216043 0.0479537631 0.0445924061
-0.6611284423 0.2881460395 0.0000000000 0.5641454276 0.3064169476 351.4452088998 0.0482344890 0.0446214378
-0.6703083220 0.2586765536 0.0000000000 0.5438588792 0.2745622630 370.8369629854 0.0485122899 0.0446743857
-0.6782649928 0.2288650025 0.0000000000 0.5259740462 0.2412888082 387.8938759723 0.0487852067 0.0447508874
-0.6849863173 0.1987619224 0.0000000000 0.5105972772 0.2067943941 402.5068254736 0.0490513167 0.0448504160
-0.6904622304 0.1684182257 0.0000000000 0.4978174463 0.1712847961 414.5846507137 0.0493087472 0.0449722833
-0.6946847459 0.1378851182 0.0000000000 0.4877054416 0.1349720537 424.0546734114 0.0495556890 0.0451156450
-0.6976479607 0.1072140157 0.0000000000 0.4803137071 0.0980727463 430.8630517374 0.0497904090 0.0452795069
-0.6993480556 0.0764564624 0.0000000000 0.4756758479 0.0608062898 434.9749639624 0.0500112632 0.0454627320
-0.6997832924 0.0456640484 0.0000000000 0.4738063517 0.0233932920 436.3746361956 0.0502167076 0.0456640487
-0.6989540090 0.0148883288 0.0000000000 0.4747004965 -0.0139460263 435.0652448170 0.0504053098 0.0458820598
-0.6968626112 -0.0158192563 0.0000000000 0.4783344663 -0.0509933537 431.0687113211 0.0505757585 0.0461152531
-0.6935135615 -0.0464074618 0.0000000000 0.4846656930 -0.0875337720 424.4254016753 0.0507268733 0.0463620119
-0.6889133651 -0.0768253163 0.0000000000 0.4936334334 -0.1233572273 415.1937352910 0.0508576124 0.0466206268
-0.6830705538 -0.1070221992 0.0000000000 0.5051595185 -0.1582600116 403.4496817365 0.0509670801 0.0468893077
-0.6759956666 -0.1369479185 0.0000000000 0.5191492039 -0.1920462467 389.2861251340 0.0510545327 0.0471661972
-0.6677012280 -0.1665527854 0.0000000000 0.5354920678 -0.2245293400 372.8120861598 0.0511193838 0.0474493831
-0.6582017238 -0.1957876893 0.0000000000 0.5540629385 -0.2555333806 354.1518052944 0.0511612074 0.0477369129