 TITLE = "Tecplot data"
 VARIABLES = "X", "Y", "Z" "U", "V", "p", "dispX", "dispY"
 ZONE SOLUTIONTIME=4.900000, NODES=26114 , ELEMENTS=25916, DATAPACKING=POINT, ZONETYPE=FEQUADRILATERAL
0.3628169114 0.3534022914 0.0000000000 0.0000000000 0.0000000000 -355.4230349869 0.0092635208 -0.0001510992
0.3628169116 -0.3537044895 0.0000000000 0.0000000000 0.0000000000 -353.8091550860 0.0092635208 -0.0001510992
-0.3442898699 0.3534022913 0.0000000000 0.0000000000 0.0000000000 -155.1696121488 0.0092635208 -0.0001510992
-0.3442898696 -0.3537044900 0.0000000000 0.0000000000 0.0000000000 -156.1025055429 0.0092635208 -0.0001510992
0.5394355354 0.5302130510 0.0000000000 0.1837459966 0.0776845205 -340.4746890101 0.0091054496 -0.0001170350
0.5398306028 -0.5304039721 0.0000000000 0.1869111133 -0.0761777702 -338.7005144377 0.0095005166 -0.0000738866
-0.5208124102 0.5302682793 0.0000000000 0.8708987816 0.5049042730 34.6315917700 0.0095176758 -0.0000618064
-0.5210727793 -0.5304754281 0.0000000000 0.8716128762 -0.5046973320 34.3932171254 0.0092573063 -0.0001453419
1.0699137289 1.0605300880 0.0000000000 1.3059710715 -0.0490215798 -307.4742634850 0.0092535572 -0.0001300838
1.0699912411 -1.0606984392 0.0000000000 1.3054243069 0.0473777681 -306.7542283751 0.0093310686 -0.0000382682
-1.0508834008 1.0607114785 0.0000000000 0.9529218119 0.1693330892 66.6619270767 0.0097767713 0.0000513071
-1.0514911590 -1.0607229317 0.0000000000 0.9530243543 -0.1690965318 66.4448986344 0.0091690122 -0.0000627594
4.2087568174 3.2999308056 0.0000000000 1.0056138587 -0.0334601003 -8.3136645553 0.0087568174 -0.0000691944
4.2084846623 -3.3000565531 0.0000000000 1.0056411678 0.0334852462 -8.3743196201 0.0084846623 -0.0000565531
20.0000000000 4.7000000000 0.0000000000 0.9996452466 -0.0004663393 0.0009257280 0.0000000000 0.0000000000
20.0000000000 -4.7000000000 0.0000000000 0.9996455048 0.0004658730 0.0009954664 0.0000000000 0.0000000000
-10.0000000000 15.0000000000 0.0000000000 1.0000000000 0.0000000000 8.9934724586 0.0000000000 0.0000000000
20.0000000000 15.0000000000 0.0000000000 1.0006408387 0.0000000000 0.0013895401 0.0000000000 0.0000000000
20.0000000000 -15.0000000000 0.0000000000 1.0006425647 0.0000000000 0.0015773646 0.0000000000 0.0000000000
-10.0000000000 -15.0000000000 0.0000000000 1.0000000000 0.0000000000 8.9498412734 0.0000000000 0.0000000000
0.3757894570 -0.3402374678 0.0000000000 0.0000000000 0.0000000000 -353.2313237464 0.0092635208 -0.0001510992
0.3882493826 -0.3262948046 0.0000000000 0.0000000000 0.0000000000 -354.0296620930 0.0092635208 -0.0001510992
0.4001792622 -0.3118959998 0.0000000000 0.0000000000 0.0000000000 -354.5866106475 0.0092635208 -0.0001510992
0.4115624109 -0.2970611917 0.0000000000 0.0000000000 0.0000000000 -355.2643337339 0.0092635208 -0.0001510992
0.4223829081 -0.2818111279 0.0000000000 0.0000000000 0.0000000000 -355.4966881603 0.0092635208 -0.0001510992
0.4326256206 -0.2661671372 0.0000000000 0.0000000000 0.0000000000 -355.1620904502 0.0092635208 -0.0001510992
0.4422762228 -0.2501510989 0.0000000000 0.0000000000 0.0000000000 -353.9434843165 0.0092635208 -0.0001510992
0.4513212177 -0.2337854131 0.0000000000 0.0000000000 0.0000000000 -351.6201618408 0.0092635208 -0.0001510992
0.4597479549 -0.2170929685 0.0000000000 0.0000000000 0.0000000000 -347.9462117072 0.0092635208 -0.0001510992
0.4675446488 -0.2000971111 0.0000000000 0.0000000000 0.0000000000 -342.7386935591 0.0092635208 -0.0001510992
0.4747003952 -0.1828216111 0.0000000000 0.0000000000 0.0000000000 -335.8858569932 0.0092635208 -0.0001510992
0.4812051860 -0.1652906299 0.0000000000 0.0000000000 0.0000000000 -327.3990746380 0.0092635208 -0.0001510992
0.4870499238 -0.1475286861 0.0000000000 0.0000000000 0.0000000000 -317.4393810207 0.0092635208 -0.0001510992
0.4922264340 -0.1295606215 0.0000000000 0.0000000000 0.0000000000 -306.3385007660 0.0092635208 -0.0001510992
0.4967274769 -0.1114115659 0.0000000000 0.0000000000 0.0000000000 -294.5950039073 0.0092635208 -0.0001510992
0.5005467575 -0.0931069025 0.0000000000 0.0000000000 0.0000000000 -282.8484825401 0.0092635208 -0.0001510992
0.5036789339 -0.0746722320 0.0000000000 0.0000000000 0.0000000000 -271.8295491247 0.0092635208 -0.0001510992
0.5061196258 -0.0561333370 0.0000000000 0.0000000000 0.0000000000 -262.2918828694 0.0092635208 -0.0001510992
0.5078654194 -0.0375161458 0.0000000000 0.0000000000 0.0000000000 -254.9340635241 0.0092635208 -0.0001510992
0.5089138732 -0.0188466961 0.0000000000 0.0000000000 0.0000000000 -250.3222218264 0.0092635208 -0.0001510992
0.5092635208 -0.0001510990 0.0000000000 0.0000000000 0.0000000000 -248.8245362050 0.0092635208 -0.0001510992
0.5089138732 0.0185444982 0.0000000000 0.0000000000 0.0000000000 -250.5674991165 0.0092635208 -0.0001510992
0.5078654194 0.0372139478 0.0000000000 0.0000000000 0.0000000000 -255.4205187445 0.0092635208 -0.0001510992
0.5061196257 0.0558311391 0.0000000000 0.0000000000 0.0000000000 -263.0113927387 0.0092635208 -0.0001510992
0.5036789339 0.0743700341 0.0000000000 0.0000000000 0.0000000000 -272.7700241186 0.0092635208 -0.0001510992
0.5005467574 0.0928047046 0.0000000000 0.0000000000 0.0000000000 -283.9942170365 0.0092635208 -0.0001510992
0.4967274769 0.1111093680 0.0000000000 0.0000000000 0.0000000000 -295.9268412040 0.0092635208 -0.0001510992
0.4922264339 0.1292584235 0.0000000000 0.0000000000 0.0000000000 -307.8348607526 0.0092635208 -0.0001510992
0.4870499236 0.1472264882 0.0000000000 0.0000000000 0.0000000000 -319.0763583747 0.0092635208 -0.0001510992
0.4812051859 0.1649884319 0.0000000000 0.0000000000 0.0000000000 -329.1528982072 0.0092635208 -0.0001510992
0.4747003951 0.1825194131 0.0000000000 0.0000000000 0.0000000000 -337.7316259009 0.0092635208 -0.0001510992
0.4675446487 0.1997949131 0.0000000000 0.0000000000 0.0000000000 -344.6558909043 0.0092635208 -0.0001510992
0.4597479547 0.2167907705 0.0000000000 0.0000000000 0.0000000000 -349.9118508307 0.0092635208 -0.0001510992
0.4513212175 0.2334832151 0.0000000000 0.0000000000 0.0000000000 -353.6224018106 0.0092635208 -0.0001510992
0.4422762226 0.2498489009 0.0000000000 0.0000000000 0.0000000000 -355.9588372873 0.0092635208 -0.0001510992
0.4326256204 0.2658649392 0.0000000000 0.0000000000 0.0000000000 -357.1918504692 0.0092635208 -0.0001510992
0.4223829079 0.2815089299 0.0000000000 0.0000000000 0.0000000000 -357.5065784819 0.0092635208 -0.0001510992
0.4115624106 0.2967589937 0.0000000000 0.0000000000 0.0000000000 -357.2721656937 0.0092635208 -0.0001510992
0.4001792620 0.3115938018 0.0000000000 0.0000000000 0.0000000000 -356.5405779686 0.0092635208 -0.0001510992
0.3882493823 0.3259926065 0.0000000000 0.0000000000 0.0000000000 -355.9389954163 0.0092635208 -0.0001510992
0.3757894567 0.3399352697 0.0000000000 0.0000000000 0.0000000000 -355.1134107438 0.0092635208 -0.0001510992
0.3479043066 0.3677108562 0.0000000000 0.0000000000 0.0000000000 -355.6071349446 0.0092635208 -0.0001510992
0.3324131397 0.3813909350 0.0000000000 0.0000000000 0.0000000000 -357.5917721766 0.0092635208 -0.0001510992
0.3163698771 0.3944191556 0.0000000000 0.0000000000 0.0000000000 -360.2593888728 0.0092635208 -0.0001510992
0.2998019284 0.4067732595 0.0000000000 0.0000000000 0.0000000000 -364.2748430798 0.0092635208 -0.0001510992
0.2827375998 0.4184321400 0.0000000000 0.0000000000 0.0000000000 -369.1414573497 0.0092635208 -0.0001510992
0.2652060453 0.4293758780 0.0000000000 0.0000000000 0.0000000000 -375.0106040362 0.0092635208 -0.0001510992
0.2472372173 0.4395857765 0.0000000000 0.0000000000 0.0000000000 -381.7087904954 0.0092635208 -0.0001510992
0.2288618152 0.4490443918 0.0000000000 0.0000000000 0.0000000000 -389.3285578672 0.0092635208 -0.0001510992
0.2101112331 0.4577355642 0.0000000000 0.0000000000 0.0000000000 -397.8708611903 0.0092635208 -0.0001510992
0.1910175060 0.4656444449 0.0000000000 0.0000000000 0.0000000000 -407.4030624386 0.0092635208 -0.0001510992
0.1716132553 0.4727575217 0.0000000000 0.0000000000 0.0000000000 -417.9205797121 0.0092635208 -0.0001510992
0.1519316328 0.4790626421 0.0000000000 0.0000000000 0.0000000000 -429.3902956085 0.0092635208 -0.0001510992
0.1320062643 0.4845490338 0.0000000000 0.0000000000 0.0000000000 -441.7067322815 0.0092635208 -0.0001510992
0.1118711918 0.4892073235 0.0000000000 0.0000000000 0.0000000000 -454.7080497741 0.0092635208 -0.0001510992
0.0915608158 0.4930295525 0.0000000000 0.0000000000 0.0000000000 -468.1643567119 0.0092635208 -0.0001510992
0.0711098363 0.4960091907 0.0000000000 0.0000000000 0.0000000000 -481.7854874801 0.0092635208 -0.0001510992
0.0505531934 0.4981411473 0.0000000000 0.0000000000 0.0000000000 -495.2224547418 0.0092635208 -0.0001510992
0.0299260078 0.4994217800 0.0000000000 0.0000000000 0.0000000000 -508.0776796219 0.0092635208 -0.0001510992
0.0092635207 0.4998489008 0.0000000000 0.0000000000 0.0000000000 -519.9158898884 0.0092635208 -0.0001510992
-0.0113989664 0.4994217800 0.0000000000 0.0000000000 0.0000000000 -530.2793707108 0.0092635208 -0.0001510992
-0.0320261520 0.4981411473 0.0000000000 0.0000000000 0.0000000000 -538.7041776761 0.0092635208 -0.0001510992
-0.0525827949 0.4960091907 0.0000000000 0.0000000000 0.0000000000 -544.7373734019 0.0092635208 -0.0001510992
-0.0730337745 0.4930295525 0.0000000000 0.0000000000 0.0000000000 -547.9534494468 0.0092635208 -0.0001510992
-0.0933441504 0.4892073235 0.0000000000 0.0000000000 0.0000000000 -547.9692638387 0.0092635208 -0.0001510992
-0.1134792229 0.4845490338 0.0000000000 0.0000000000 0.0000000000 -544.4565480096 0.0092635208 -0.0001510992
-0.1334045914 0.4790626420 0.0000000000 0.0000000000 0.0000000000 -537.1516021822 0.0092635208 -0.0001510992
-0.1530862139 0.4727575216 0.0000000000 0.0000000000 0.0000000000 -525.8619515034 0.0092635208 -0.0001510992
-0.1724904646 0.4656444448 0.0000000000 0.0000000000 0.0000000000 -510.4700556494 0.0092635208 -0.0001510992
-0.1915841916 0.4577355641 0.0000000000 0.0000000000 0.0000000000 -490.9343204142 0.0092635208 -0.0001510992
-0.2103347737 0.4490443917 0.0000000000 0.0000000000 0.0000000000 -467.2877975665 0.0092635208 -0.0001510992
-0.2287101758 0.4395857764 0.0000000000 0.0000000000 0.0000000000 -439.6350074452 0.0092635208 -0.0001510992
-0.2466790039 0.4293758779 0.0000000000 0.0000000000 0.0000000000 -408.1473248253 0.0092635208 -0.0001510992
-0.2642105584 0.4184321399 0.0000000000 0.0000000000 0.0000000000 -373.0573296923 0.0092635208 -0.0001510992
-0.2812748870 0.4067732594 0.0000000000 0.0000000000 0.0000000000 -334.6524643535 0.0092635208 -0.0001510992
-0.2978428357 0.3944191554 0.0000000000 0.0000000000 0.0000000000 -293.2682680404 0.0092635208 -0.0001510992
-0.3138860982 0.3813909348 0.0000000000 0.0000000000 0.0000000000 -249.2813949368 0.0092635208 -0.0001510992
-0.3293772651 0.3677108561 0.0000000000 0.0000000000 0.0000000000 -203.1025708694 0.0092635208 -0.0001510992
-0.3585984346 0.3384896865 0.0000000000 0.0000000000 0.0000000000 -105.9406137317 0.0092635208 -0.0001510992
-0.3722785134 0.3229985196 0.0000000000 0.0000000000 0.0000000000 -55.8874051031 0.0092635208 -0.0001510992
-0.3853067340 0.3069552570 0.0000000000 0.0000000000 0.0000000000 -5.4893582790 0.0092635208 -0.0001510992
-0.3976608379 0.2903873084 0.0000000000 0.0000000000 0.0000000000 44.7723910563 0.0092635208 -0.0001510992
-0.4093197184 0.2733229797 0.0000000000 0.0000000000 0.0000000000 94.4202804691 0.0092635208 -0.0001510992
-0.4202634565 0.2557914252 0.0000000000 0.0000000000 0.0000000000 142.9852202445 0.0092635208 -0.0001510992
-0.4304733549 0.2378225972 0.0000000000 0.0000000000 0.0000000000 190.0110840619 0.0092635208 -0.0001510992
-0.4399319702 0.2194471951 0.0000000000 0.0000000000 0.0000000000 235.0588304968 0.0092635208 -0.0001510992
-0.4486231426 0.2006966130 0.0000000000 0.0000000000 0.0000000000 277.7102935899 0.0092635208 -0.0001510992
-0.4565320233 0.1816028859 0.0000000000 0.0000000000 0.0000000000 317.5716700004 0.0092635208 -0.0001510992
-0.4636451001 0.1621986352 0.0000000000 0.0000000000 0.0000000000 354.2767195910 0.0092635208 -0.0001510992
-0.4699502205 0.1425170128 0.0000000000 0.0000000000 0.0000000000 387.4896824129 0.0092635208 -0.0001510992
-0.4754366122 0.1225916442 0.0000000000 0.0000000000 0.0000000000 416.9079136182 0.0092635208 -0.0001510992
-0.4800949019 0.1024565717 0.0000000000 0.0000000000 0.0000000000 442.2642227099 0.0092635208 -0.0001510992
-0.4839171309 0.0821461958 0.0000000000 0.0000000000 0.0000000000 463.3289242649 0.0092635208 -0.0001510992
-0.4868967691 0.0616952163 0.0000000000 0.0000000000 0.0000000000 479.9115665425 0.0092635208 -0.0001510992
-0.4890287257 0.0411385734 0.0000000000 0.0000000000 0.0000000000 491.8623847206 0.0092635208 -0.0001510992
-0.4903093584 0.0205113877 0.0000000000 0.0000000000 0.0000000000 499.0733783748 0.0092635208 -0.0001510992
-0.4907364792 -0.0001510994 0.0000000000 0.0000000000 0.0000000000 501.4791944583 0.0092635208 -0.0001510992
-0.4903093584 -0.0208135865 0.0000000000 0.0000000000 0.0000000000 499.0574729287 0.0092635208 -0.0001510992
-0.4890287257 -0.0414407721 0.0000000000 0.0000000000 0.0000000000 491.8292934240 0.0092635208 -0.0001510992
-0.4868967690 -0.0619974150 0.0000000000 0.0000000000 0.0000000000 479.8585354669 0.0092635208 -0.0001510992
-0.4839171309 -0.0824483945 0.0000000000 0.0000000000 0.0000000000 463.2523552312 0.0092635208 -0.0001510992
-0.4800949018 -0.1027587705 0.0000000000 0.0000000000 0.0000000000 442.1586994395 0.0092635208 -0.0001510992
-0.4754366121 -0.1228938430 0.0000000000 0.0000000000 0.0000000000 416.7683965366 0.0092635208 -0.0001510992
-0.4699502204 -0.1428192115 0.0000000000 0.0000000000 0.0000000000 387.3079013895 0.0092635208 -0.0001510992
-0.4636451000 -0.1625008340 0.0000000000 0.0000000000 0.0000000000 354.0483883156 0.0092635208 -0.0001510992
-0.4565320231 -0.1819050847 0.0000000000 0.0000000000 0.0000000000 317.2837807353 0.0092635208 -0.0001510992
-0.4486231424 -0.2009988117 0.0000000000 0.0000000000 0.0000000000 277.3652506768 0.0092635208 -0.0001510992
-0.4399319700 -0.2197493938 0.0000000000 0.0000000000 0.0000000000 234.6303964425 0.0092635208 -0.0001510992
-0.4304733547 -0.2381247959 0.0000000000 0.0000000000 0.0000000000 189.5267491224 0.0092635208 -0.0001510992
-0.4202634563 -0.2560936239 0.0000000000 0.0000000000 0.0000000000 142.3730503347 0.0092635208 -0.0001510992
-0.4093197182 -0.2736251784 0.0000000000 0.0000000000 0.0000000000 93.7959584362 0.0092635208 -0.0001510992
-0.3976608377 -0.2906895071 0.0000000000 0.0000000000 0.0000000000 43.8993145969 0.0092635208 -0.0001510992
-0.3853067337 -0.3072574557 0.0000000000 0.0000000000 0.0000000000 -6.1740576478 0.0092635208 -0.0001510992
-0.3722785131 -0.3233007183 0.0000000000 0.0000000000 0.0000000000 -57.1671322493 0.0092635208 -0.0001510992
-0.3585984344 -0.3387918852 0.0000000000 0.0000000000 0.0000000000 -105.5858048826 0.0092635208 -0.0001510992
-0.3293772648 -0.3680130547 0.0000000000 0.0000000000 0.0000000000 -207.1466821120 0.0092635208 -0.0001510992
-0.3138860979 -0.3816931334 0.0000000000 0.0000000000 0.0000000000 -251.0137688173 0.0092635208 -0.0001510992
-0.2978428353 -0.3947213540 0.0000000000 0.0000000000 0.0000000000 -294.8845463234 0.0092635208 -0.0001510992
-0.2812748867 -0.4070754580 0.0000000000 0.0000000000 0.0000000000 -336.5890702037 0.0092635208 -0.0001510992
-0.2642105580 -0.4187343385 0.0000000000 0.0000000000 0.0000000000 -375.0255614143 0.0092635208 -0.0001510992
-0.2466790035 -0.4296780765 0.0000000000 0.0000000000 0.0000000000 -410.3581776898 0.0092635208 -0.0001510992
-0.2287101755 -0.4398879749 0.0000000000 0.0000000000 0.0000000000 -441.9615987303 0.0092635208 -0.0001510992
-0.2103347734 -0.4493465902 0.0000000000 0.0000000000 0.0000000000 -469.8000679692 0.0092635208 -0.0001510992
-0.1915841913 -0.4580377626 0.0000000000 0.0000000000 0.0000000000 -493.5768157843 0.0092635208 -0.0001510992
-0.1724904642 -0.4659466433 0.0000000000 0.0000000000 0.0000000000 -513.2520724305 0.0092635208 -0.0001510992
-0.1530862135 -0.4730597201 0.0000000000 0.0000000000 0.0000000000 -528.7454046248 0.0092635208 -0.0001510992
-0.1334045910 -0.4793648405 0.0000000000 0.0000000000 0.0000000000 -540.1170755365 0.0092635208 -0.0001510992
-0.1134792225 -0.4848512322 0.0000000000 0.0000000000 0.0000000000 -547.4653353507 0.0092635208 -0.0001510992
-0.0933441500 -0.4895095219 0.0000000000 0.0000000000 0.0000000000 -550.9866751207 0.0092635208 -0.0001510992
-0.0730337740 -0.4933317509 0.0000000000 0.0000000000 0.0000000000 -550.9368818759 0.0092635208 -0.0001510992
-0.0525827945 -0.4963113891 0.0000000000 0.0000000000 0.0000000000 -547.6452097137 0.0092635208 -0.0001510992
-0.0320261516 -0.4984433457 0.0000000000 0.0000000000 0.0000000000 -541.4930052414 0.0092635208 -0.0001510992
-0.0113989660 -0.4997239784 0.0000000000 0.0000000000 0.0000000000 -532.9080969628 0.0092635208 -0.0001510992
0.0092635211 -0.5001510992 0.0000000000 0.0000000000 0.0000000000 -522.3460248989 0.0092635208 -0.0001510992
0.0299260082 -0.4997239784 0.0000000000 0.0000000000 0.0000000000 -510.2756323564 0.0092635208 -0.0001510992
0.0505531938 -0.4984433457 0.0000000000 0.0000000000 0.0000000000 -497.1605095850 0.0092635208 -0.0001510992
0.0711098367 -0.4963113890 0.0000000000 0.0000000000 0.0000000000 -483.4428800739 0.0092635208 -0.0001510992
0.0915608163 -0.4933317508 0.0000000000 0.0000000000 0.0000000000 -469.5280288882 0.0092635208 -0.0001510992
0.1118711922 -0.4895095218 0.0000000000 0.0000000000 0.0000000000 -455.7722870865 0.0092635208 -0.0001510992
0.1320062647 -0.4848512321 0.0000000000 0.0000000000 0.0000000000 -442.4738015550 0.0092635208 -0.0001510992
0.1519316332 -0.4793648403 0.0000000000 0.0000000000 0.0000000000 -429.8679336196 0.0092635208 -0.0001510992
0.1716132557 -0.4730597199 0.0000000000 0.0000000000 0.0000000000 -418.1241823902 0.0092635208 -0.0001510992
0.1910175064 -0.4659466431 0.0000000000 0.0000000000 0.0000000000 -407.3490474931 0.0092635208 -0.0001510992
0.2101112334 -0.4580377624 0.0000000000 0.0000000000 0.0000000000 -397.5849365154 0.0092635208 -0.0001510992
0.2288618155 -0.4493465900 0.0000000000 0.0000000000 0.0000000000 -388.8279823249 0.0092635208 -0.0001510992
0.2472372176 -0.4398879746 0.0000000000 0.0000000000 0.0000000000 -381.0259216642 0.0092635208 -0.0001510992
0.2652060456 -0.4296780762 0.0000000000 0.0000000000 0.0000000000 -374.1473482202 0.0092635208 -0.0001510992
0.2827376001 -0.4187343381 0.0000000000 0.0000000000 0.0000000000 -368.1301830322 0.0092635208 -0.0001510992
0.2998019288 -0.4070754576 0.0000000000 0.0000000000 0.0000000000 -363.0876627755 0.0092635208 -0.0001510992
0.3163698774 -0.3947213537 0.0000000000 0.0000000000 0.0000000000 -358.9238570903 0.0092635208 -0.0001510992
0.3324131400 -0.3816931331 0.0000000000 0.0000000000 0.0000000000 -356.1019941221 0.0092635208 -0.0001510992
0.3479043069 -0.3680130543 0.0000000000 0.0000000000 0.0000000000 -353.8923485000 0.0092635208 -0.0001510992
0.5592709861 -0.5101981488 0.0000000000 0.1435972006 -0.0965095768 -339.8447125998 0.0094820819 -0.0000685958
0.5779485331 -0.4892808363 0.0000000000 0.1185665541 -0.1222967120 -342.0456854988 0.0094697404 -0.0000652783
0.5958317415 -0.4676791503 0.0000000000 0.1076079061 -0.1519934911 -345.4130014017 0.0094581294 -0.0000617993
0.6128943032 -0.4454234177 0.0000000000 0.1042626355 -0.1831665949 -349.9044713540 0.0094459681 -0.0000582789
0.6291119240 -0.4225449282 0.0000000000 0.1017846003 -0.2131285263 -355.3455938377 0.0094328430 -0.0000548850
0.6444617964 -0.3990758020 0.0000000000 0.0949158637 -0.2395942900 -361.4289480957 0.0094186468 -0.0000517450
0.6589224597 -0.3750489519 0.0000000000 0.0806491862 -0.2610274048 -367.7296788292 0.0094034066 -0.0000489523
0.6724737619 -0.3504980450 0.0000000000 0.0579961151 -0.2766305705 -373.7421743096 0.0093872166 -0.0000465742
0.6850968561 -0.3254574613 0.0000000000 0.0273173737 -0.2861345155 -378.9372282417 0.0093702050 -0.0000446574
0.6967742095 -0.2999622504 0.0000000000 -0.0102959825 -0.2895561237 -382.8282692971 0.0093525174 -0.0000432326
0.7074896194 -0.2740480853 0.0000000000 -0.0534085526 -0.2870253476 -385.0325496057 0.0093343077 -0.0000423174
0.7172282307 -0.2477512151 0.0000000000 -0.1004201425 -0.2787055641 -385.3193176001 0.0093157328 -0.0000419190
0.7259765539 -0.2211084156 0.0000000000 -0.1496278886 -0.2647843553 -383.6426272082 0.0092969494 -0.0000420352
0.7337224814 -0.1941569393 0.0000000000 -0.1992472907 -0.2454968457 -380.1574047483 0.0092781116 -0.0000426558
0.7404553025 -0.1669344632 0.0000000000 -0.2474354885 -0.2211533560 -375.2162489646 0.0092593683 -0.0000437631
0.7461657169 -0.1394790376 0.0000000000 -0.2923327957 -0.1921599685 -369.3443086169 0.0092408619 -0.0000453326
0.7508458464 -0.1118290326 0.0000000000 -0.3321247522 -0.1590314539 -363.1913282120 0.0092227266 -0.0000473333
0.7544892449 -0.0840230861 0.0000000000 -0.3651228212 -0.1223981754 -357.4630968367 0.0092050874 -0.0000497293
0.7570909074 -0.0561000497 0.0000000000 -0.3898596603 -0.0830060226 -352.8384820905 0.0091880595 -0.0000524798
0.7586472764 -0.0280989360 0.0000000000 -0.4051903164 -0.0417059834 -349.8823770136 0.0091717478 -0.0000555406
0.7591562471 -0.0000588650 0.0000000000 -0.4103847067 0.0005696149 -348.9681215296 0.0091562471 -0.0000588653
0.7586171706 0.0279809902 0.0000000000 -0.4051934268 0.0428438066 -350.2236145878 0.0091416420 -0.0000624058
0.7570308551 0.0559814565 0.0000000000 -0.3898717202 0.0841398001 -353.5121167212 0.0091280072 -0.0000661140
0.7543995657 0.0839034151 0.0000000000 -0.3651553894 0.1235259262 -358.4519828747 0.0091154083 -0.0000699422
0.7507270224 0.1117078556 0.0000000000 -0.3321944475 0.1601526924 -364.4711393366 0.0091039027 -0.0000738443
0.7460183963 0.1393559296 0.0000000000 -0.2924596047 0.1932769786 -370.8852215673 0.0090935414 -0.0000777761
0.7402803046 0.1668090044 0.0000000000 -0.2476398170 0.2222728013 -376.9849763836 0.0090843706 -0.0000816963
0.7335208030 0.1940287173 0.0000000000 -0.1995460257 0.2466313663 -382.1191990005 0.0090764334 -0.0000855667
0.7257493765 0.2209770283 0.0000000000 -0.1500302466 0.2659535424 -385.7628621077 0.0090697723 -0.0000893527
0.7169769279 0.2476162742 0.0000000000 -0.1009243363 0.2799356290 -387.5644468768 0.0090644302 -0.0000930225
0.7072157632 0.2739092216 0.0000000000 -0.0540001393 0.2883471506 -387.3705192933 0.0090604517 -0.0000965469
0.6964795744 0.2998191204 0.0000000000 -0.0109483578 0.2910019730 -385.2285665670 0.0090578825 -0.0000998980
0.6847834180 0.3253097577 0.0000000000 0.0266395132 0.2877345789 -381.3704971805 0.0090567672 -0.0001030468
0.6721436892 0.3503455098 0.0000000000 0.0573277814 0.2784087759 -376.1789993466 0.0090571442 -0.0001059615
0.6585780901 0.3748913951 0.0000000000 0.0800076839 0.2629947054 -370.1386759727 0.0090590373 -0.0001086050
0.6441055928 0.3989131227 0.0000000000 0.0942790475 0.2417375645 -363.7763293144 0.0090624434 -0.0001109348
0.6287463986 0.4223771383 0.0000000000 0.1010802297 0.2153992979 -357.5998235554 0.0090673179 -0.0001129053
0.6125218965 0.4452506657 0.0000000000 0.1033800111 0.1854800124 -352.0462243713 0.0090735618 -0.0001144735
0.5954546198 0.4675017446 0.0000000000 0.1064164245 0.1542434254 -347.4429373458 0.0090810080 -0.0001156068
0.5775681800 0.4890992670 0.0000000000 0.1169147671 0.1243790731 -343.9800021063 0.0090893877 -0.0001162915
0.5588871029 0.5100130236 0.0000000000 0.1412961510 0.0983392446 -341.6955823703 0.0090981991 -0.0001165298
0.5170782958 0.5516738154 0.0000000000 0.2530178829 0.0617455634 -340.3314768956 0.0091171172 -0.0001191176
0.4938534558 0.5721915770 0.0000000000 0.3430343928 0.0525150668 -341.0664072281 0.0091290275 -0.0001214742
0.4698019769 0.5917320852 0.0000000000 0.4486964938 0.0490038007 -342.5424520200 0.0091424425 -0.0001232969
0.4449649388 0.6102619737 0.0000000000 0.5640170198 0.0503689317 -344.6233628110 0.0091573273 -0.0001245644
0.4193846056 0.6277495714 0.0000000000 0.6829317084 0.0560086786 -347.1811913817 0.0091734871 -0.0001252873
0.3931044727 0.6441649452 0.0000000000 0.7996777442 0.0653944050 -350.0642533641 0.0091906860 -0.0001255206
0.3661692378 0.6594799757 0.0000000000 0.9091585834 0.0779154335 -353.0823195212 0.0092086932 -0.0001253377
0.3386247363 0.6736684239 0.0000000000 1.0073766614 0.0928514049 -356.0190911578 0.0092272948 -0.0001248125
0.3105178638 0.6867059856 0.0000000000 1.0917658189 0.1094473505 -358.6637591983 0.0092462954 -0.0001240094
0.2818964948 0.6985703342 0.0000000000 1.1612699584 0.1270191864 -360.8396080932 0.0092655170 -0.0001229819
0.2528094000 0.7092411558 0.0000000000 1.2161544680 0.1450332080 -362.4157031416 0.0092847982 -0.0001217755
0.2233061633 0.7187001815 0.0000000000 1.2576460793 0.1631385644 -363.3025754528 0.0093039953 -0.0001204304
0.1934370981 0.7269312155 0.0000000000 1.2875236882 0.1811573636 -363.4393039251 0.0093229829 -0.0001189839
0.1632531611 0.7339201626 0.0000000000 1.3077543056 0.1990475467 -362.7784996551 0.0093416545 -0.0001174714
0.1328058649 0.7396550517 0.0000000000 1.3202238048 0.2168546091 -361.2731536654 0.0093599224 -0.0001159258
0.1021471889 0.7441260576 0.0000000000 1.3265736068 0.2346647887 -358.8674045827 0.0093777156 -0.0001143772
0.0713294873 0.7473255189 0.0000000000 1.3281293726 0.2525673190 -355.4919414922 0.0093949783 -0.0001128508
0.0404053970 0.7492479533 0.0000000000 1.3258962850 0.2706285762 -351.0637266875 0.0094116664 -0.0001113655
0.0094277439 0.7498900681 0.0000000000 1.3205943417 0.2888775325 -345.4890317697 0.0094277441 -0.0001099319
-0.0215505507 0.7492507681 0.0000000000 1.3127118630 0.3073001488 -338.6685001848 0.0094431802 -0.0001085507
-0.0524765648 0.7473311575 0.0000000000 1.3025622721 0.3258398760 -330.5030289914 0.0094579445 -0.0001072122
-0.0832974692 0.7441345384 0.0000000000 1.2903356162 0.3444017631 -320.8995545881 0.0094720044 -0.0001058964
-0.1139606212 0.7396664038 0.0000000000 1.2761411091 0.3628583155 -309.7761751737 0.0094853217 -0.0001045737
-0.1444136570 0.7339344270 0.0000000000 1.2600400296 0.3810559019 -297.0663421290 0.0094978499 -0.0001032069
-0.1746045840 0.7269484454 0.0000000000 1.2420699116 0.3988210308 -282.7220606218 0.0095095316 -0.0001017540
-0.2044818711 0.7187204411 0.0000000000 1.2222615927 0.4159661750 -266.7161583332 0.0095202972 -0.0001001706
-0.2339945383 0.7092645176 0.0000000000 1.2006507512 0.4322950315 -249.0437329293 0.0095300638 -0.0000984136
-0.2630922441 0.6985968726 0.0000000000 1.1772853605 0.4476072176 -229.7228997991 0.0095387340 -0.0000964434
-0.2917253720 0.6867357673 0.0000000000 1.1522301982 0.4617024472 -208.7949523385 0.0095461966 -0.0000942276
-0.3198451154 0.6737014931 0.0000000000 1.1255692680 0.4743842438 -186.3240308666 0.0095523264 -0.0000917433
-0.3474035614 0.6595163339 0.0000000000 1.0974067533 0.4854632390 -162.3963799068 0.0095569836 -0.0000889794
-0.3743537759 0.6442045260 0.0000000000 1.0678669390 0.4947600963 -137.1192594448 0.0095600111 -0.0000859396
-0.4006498920 0.6277922134 0.0000000000 1.0370934061 0.5021080862 -110.6195639798 0.0095612267 -0.0000826452
-0.4262472117 0.6103073989 0.0000000000 1.0052477049 0.5073553247 -83.0421898008 0.0095604000 -0.0000791389
-0.4511023447 0.5917798894 0.0000000000 0.9725076409 0.5103666676 -54.5481738593 0.0095571899 -0.0000754926
-0.4751734713 0.5722412398 0.0000000000 0.9390652329 0.5110251793 -25.3125558801 0.0095509573 -0.0000718112
-0.4984210664 0.5517247835 0.0000000000 0.9051243115 0.5092327730 4.4782478295 0.0095401125 -0.0000681493
-0.5422713231 0.5079024848 0.0000000000 0.8366298211 0.4980258738 64.9079567135 0.0095216100 -0.0000586937
-0.5627985706 0.4846711803 0.0000000000 0.8025245281 0.4885304231 95.1299674106 0.0095144807 -0.0000532479
-0.5823524449 0.4606113282 0.0000000000 0.7688175300 0.4764145964 125.0774722014 0.0095029373 -0.0000482061
-0.6008979772 0.4357639971 0.0000000000 0.7357413844 0.4616937775 154.5333191201 0.0094885609 -0.0000436142
-0.6184028246 0.4101716022 0.0000000000 0.7035268011 0.4444046345 183.2822871307 0.0094720343 -0.0000395162
-0.6348367036 0.3838778149 0.0000000000 0.6724004259 0.4246057052 211.1126946900 0.0094537623 -0.0000359717
-0.6501712607 0.3569275034 0.0000000000 0.6425829230 0.4023768720 237.8182276801 0.0094340529 -0.0000330412
-0.6643800599 0.3293666647 0.0000000000 0.6142869865 0.3778186347 263.1998091639 0.0094131767 -0.0000307767
-0.6774386066 0.3012423508 0.0000000000 0.5877154585 0.3510511657 287.0673969640 0.0093913885 -0.0000292174
-0.6893243809 0.2726025894 0.0000000000 0.5630595615 0.3222132015 309.2416774099 0.0093689353 -0.0000283882
-0.7000168742 0.2434963026 0.0000000000 0.5404972718 0.2914607861 329.5556376355 0.0093460572 -0.0000282991
-0.7094976242 0.2139732226 0.0000000000 0.5201918465 0.2589658839 347.8560066221 0.0093229877 -0.0000289453
-0.7177502482 0.1840838064 0.0000000000 0.5022905149 0.2249148724 364.0045586683 0.0092999514 -0.0000303087
-0.7247604717 0.1538791476 0.0000000000 0.4869233319 0.1895069210 377.8792743107 0.0092771624 -0.0000323587
-0.7305161541 0.1234108888 0.0000000000 0.4742021754 0.1529522600 389.3753517099 0.0092548235 -0.0000350537
-0.7350073097 0.0927311307 0.0000000000 0.4642198583 0.1154703551 398.4060567011 0.0092331252 -0.0000383425
-0.7382261230 0.0618923421 0.0000000000 0.4570493334 0.0772880151 404.9033972033 0.0092122468 -0.0000421667
-0.7401669616 0.0309472677 0.0000000000 0.4527429982 0.0386374787 408.8186147896 0.0091923572 -0.0000464627
-0.7408263830 -0.0000511645 0.0000000000 0.4513321498 -0.0002454842 410.1225020672 0.0091736170 -0.0000511642
-0.7402031391 -0.0310499364 0.0000000000 0.4528266491 -0.0391234433 408.8055697613 0.0091561796 -0.0000562054
-0.7382981765 -0.0619960333 0.0000000000 0.4572148214 -0.0777591537 404.8780770478 0.0091401932 -0.0000615239
-0.7351146335 -0.0928365370 0.0000000000 0.4644636081 -0.1159173857 398.3699341391 0.0091258013 -0.0000670632
-0.7306578334 -0.1235187185 0.0000000000 0.4745189825 -0.1533667559 389.3304803709 0.0091131441 -0.0000727755
-0.7249352735 -0.1539901298 0.0000000000 0.4873065762 -0.1898815765 377.8281172123 0.0091023604 -0.0000786229