 TITLE = "Tecplot data"
 VARIABLES = "X", "Y", "Z" "U", "V", "p", "dispX", "dispY"
 ZONE SOLUTIONTIME=95.900000, NODES=26114 , ELEMENTS=25916, DATAPACKING=POINT, ZONETYPE=FEQUADRILATERAL
0.4081031356 0.4081031356 0.0000000000 0.0001692499 0.0001692499 -298.0287389014 0.0545497450 0.0545497450
0.4081031359 -0.2990036453 0.0000000000 0.0001692499 0.0001692499 -598.2585486719 0.0545497450 0.0545497450
-0.2990036457 0.4081031355 0.0000000000 0.0001692499 0.0001692499 -74.2318183324 0.0545497450 0.0545497450
-0.2990036454 -0.2990036458 0.0000000000 0.0001692499 0.0001692499 -287.3170624347 0.0545497450 0.0545497450
0.5803301571 0.5803857290 0.0000000000 0.0949504166 -0.0304994178 -284.1895730624 0.0500000713 0.0500556430
0.5755557962 -0.4850138226 0.0000000000 0.5537129758 0.0484704865 -578.4293966638 0.0452257100 0.0453162629
-0.4853993724 0.5754225675 0.0000000000 0.8301996161 0.4654183172 113.5120667788 0.0449307136 0.0450924818
-0.4807212826 -0.4802403078 0.0000000000 0.9291506963 -0.5154922468 -29.7410167259 0.0496088030 0.0500897784
1.1003289247 1.1004027499 0.0000000000 1.2638445830 0.0613403701 -127.3686892006 0.0396687530 0.0397425780
1.0926150558 -1.0283704739 0.0000000000 1.1665151443 0.2129042599 -254.2458111166 0.0319548832 0.0322896971
-1.0294869244 1.0922966367 0.0000000000 0.9368953106 0.1565415402 114.8338662189 0.0311732477 0.0316364653
-1.0221824138 -1.0209637634 0.0000000000 0.9779219570 -0.1612425531 42.3963711982 0.0384777574 0.0396964089
4.2204735723 3.3179720968 0.0000000000 0.9990053176 0.0016191197 30.5079357264 0.0204735723 0.0179720968
4.2122964616 -3.2890910044 0.0000000000 1.0383172479 0.0230362952 19.3999789454 0.0122964616 0.0109089956
20.0000000000 4.7000000000 0.0000000000 1.0398152843 0.0328143014 0.0462905608 0.0000000000 0.0000000000
20.0000000000 -4.7000000000 0.0000000000 1.0454777411 -0.0375133920 0.2532221396 0.0000000000 0.0000000000
-10.0000000000 15.0000000000 0.0000000000 1.0000000000 0.0000000000 40.5552654608 0.0000000000 0.0000000000
20.0000000000 15.0000000000 0.0000000000 1.0334165791 0.0000000000 0.0274209541 0.0000000000 0.0000000000
20.0000000000 -15.0000000000 0.0000000000 1.0333763545 0.0000000000 0.0260049797 0.0000000000 0.0000000000
-10.0000000000 -15.0000000000 0.0000000000 1.0000000000 0.0000000000 25.6648403599 0.0000000000 0.0000000000
0.4210756812 -0.2855366236 0.0000000000 0.0001692499 0.0001692499 -595.2561933573 0.0545497450 0.0545497450
0.4335356068 -0.2715939604 0.0000000000 0.0001692499 0.0001692499 -593.4098745590 0.0545497450 0.0545497450
0.4454654865 -0.2571951557 0.0000000000 0.0001692499 0.0001692499 -592.5514890532 0.0545497450 0.0545497450
0.4568486351 -0.2423603475 0.0000000000 0.0001692499 0.0001692499 -592.5529089403 0.0545497450 0.0545497450
0.4676691324 -0.2271102838 0.0000000000 0.0001692499 0.0001692499 -593.2308004276 0.0545497450 0.0545497450
0.4779118448 -0.2114662930 0.0000000000 0.0001692499 0.0001692499 -594.3904486638 0.0545497450 0.0545497450
0.4875624471 -0.1954502547 0.0000000000 0.0001692499 0.0001692499 -595.8377641162 0.0545497450 0.0545497450
0.4966074419 -0.1790845689 0.0000000000 0.0001692499 0.0001692499 -597.3719498800 0.0545497450 0.0545497450
0.5050341791 -0.1623921243 0.0000000000 0.0001692499 0.0001692499 -598.7785852747 0.0545497450 0.0545497450
0.5128308731 -0.1453962669 0.0000000000 0.0001692499 0.0001692499 -599.8202907973 0.0545497450 0.0545497450
0.5199866194 -0.1281207669 0.0000000000 0.0001692499 0.0001692499 -600.2357990712 0.0545497450 0.0545497450
0.5264914103 -0.1105897857 0.0000000000 0.0001692499 0.0001692499 -599.7453530419 0.0545497450 0.0545497450
0.5323361480 -0.0928278419 0.0000000000 0.0001692499 0.0001692499 -598.0634731074 0.0545497450 0.0545497450
0.5375126582 -0.0748597773 0.0000000000 0.0001692499 0.0001692499 -594.9168932994 0.0545497450 0.0545497450
0.5420137012 -0.0567107217 0.0000000000 0.0001692499 0.0001692499 -590.0661145869 0.0545497450 0.0545497450
0.5458329817 -0.0384060583 0.0000000000 0.0001692499 0.0001692499 -583.3278885175 0.0545497450 0.0545497450
0.5489651582 -0.0199713878 0.0000000000 0.0001692499 0.0001692499 -574.5957775341 0.0545497450 0.0545497450
0.5514058500 -0.0014324928 0.0000000000 0.0001692499 0.0001692499 -563.8556907182 0.0545497450 0.0545497450
0.5531516436 0.0171846984 0.0000000000 0.0001692499 0.0001692499 -551.1937620915 0.0545497450 0.0545497450
0.5542000974 0.0358541481 0.0000000000 0.0001692499 0.0001692499 -536.7948034865 0.0545497450 0.0545497450
0.5545497450 0.0545497452 0.0000000000 0.0001692499 0.0001692499 -520.9309407823 0.0545497450 0.0545497450
0.5542000974 0.0732453423 0.0000000000 0.0001692499 0.0001692499 -503.9414603965 0.0545497450 0.0545497450
0.5531516436 0.0919147920 0.0000000000 0.0001692499 0.0001692499 -486.2064115435 0.0545497450 0.0545497450
0.5514058499 0.1105319832 0.0000000000 0.0001692499 0.0001692499 -468.1172583810 0.0545497450 0.0545497450
0.5489651581 0.1290708783 0.0000000000 0.0001692499 0.0001692499 -450.0487167737 0.0545497450 0.0545497450
0.5458329816 0.1475055488 0.0000000000 0.0001692499 0.0001692499 -432.3348428814 0.0545497450 0.0545497450
0.5420137011 0.1658102121 0.0000000000 0.0001692499 0.0001692499 -415.2530210061 0.0545497450 0.0545497450
0.5375126581 0.1839592677 0.0000000000 0.0001692499 0.0001692499 -399.0156382484 0.0545497450 0.0545497450
0.5323361479 0.2019273324 0.0000000000 0.0001692499 0.0001692499 -383.7725053595 0.0545497450 0.0545497450
0.5264914101 0.2196892761 0.0000000000 0.0001692499 0.0001692499 -369.6175013378 0.0545497450 0.0545497450
0.5199866193 0.2372202573 0.0000000000 0.0001692499 0.0001692499 -356.6068184244 0.0545497450 0.0545497450
0.5128308729 0.2544957573 0.0000000000 0.0001692499 0.0001692499 -344.7692045329 0.0545497450 0.0545497450
0.5050341789 0.2714916147 0.0000000000 0.0001692499 0.0001692499 -334.1350867560 0.0545497450 0.0545497450
0.4966074417 0.2881840592 0.0000000000 0.0001692499 0.0001692499 -324.7285297145 0.0545497450 0.0545497450
0.4875624469 0.3045497451 0.0000000000 0.0001692499 0.0001692499 -316.6123420384 0.0545497450 0.0545497450
0.4779118446 0.3205657833 0.0000000000 0.0001692499 0.0001692499 -309.8194909213 0.0545497450 0.0545497450
0.4676691321 0.3362097741 0.0000000000 0.0001692499 0.0001692499 -304.4584697190 0.0545497450 0.0545497450
0.4568486348 0.3514598379 0.0000000000 0.0001692499 0.0001692499 -300.4887589199 0.0545497450 0.0545497450
0.4454654862 0.3662946460 0.0000000000 0.0001692499 0.0001692499 -298.0512515472 0.0545497450 0.0545497450
0.4335356065 0.3806934507 0.0000000000 0.0001692499 0.0001692499 -296.8393746976 0.0545497450 0.0545497450
0.4210756809 0.3946361139 0.0000000000 0.0001692499 0.0001692499 -297.1165655170 0.0545497450 0.0545497450
0.3931905308 0.4224117004 0.0000000000 0.0001692499 0.0001692499 -300.5010839573 0.0545497450 0.0545497450
0.3776993639 0.4360917791 0.0000000000 0.0001692499 0.0001692499 -303.2924951180 0.0545497450 0.0545497450
0.3616561013 0.4491199997 0.0000000000 0.0001692499 0.0001692499 -306.7307637912 0.0545497450 0.0545497450
0.3450881527 0.4614741037 0.0000000000 0.0001692499 0.0001692499 -310.3321628645 0.0545497450 0.0545497450
0.3280238240 0.4731329842 0.0000000000 0.0001692499 0.0001692499 -314.3065564972 0.0545497450 0.0545497450
0.3104922695 0.4840767222 0.0000000000 0.0001692499 0.0001692499 -318.6299688624 0.0545497450 0.0545497450
0.2925234415 0.4942866206 0.0000000000 0.0001692499 0.0001692499 -323.5424158016 0.0545497450 0.0545497450
0.2741480394 0.5037452360 0.0000000000 0.0001692499 0.0001692499 -329.1823359911 0.0545497450 0.0545497450
0.2553974573 0.5124364084 0.0000000000 0.0001692499 0.0001692499 -335.7268351068 0.0545497450 0.0545497450
0.2363037302 0.5203452891 0.0000000000 0.0001692499 0.0001692499 -343.2641558199 0.0545497450 0.0545497450
0.2168994795 0.5274583659 0.0000000000 0.0001692499 0.0001692499 -351.8461455385 0.0545497450 0.0545497450
0.1972178571 0.5337634863 0.0000000000 0.0001692499 0.0001692499 -361.4566482843 0.0545497450 0.0545497450
0.1772924885 0.5392498780 0.0000000000 0.0001692499 0.0001692499 -372.0315168010 0.0545497450 0.0545497450
0.1571574160 0.5439081677 0.0000000000 0.0001692499 0.0001692499 -383.4452918330 0.0545497450 0.0545497450
0.1368470401 0.5477303967 0.0000000000 0.0001692499 0.0001692499 -395.5117583476 0.0545497450 0.0545497450
0.1163960606 0.5507100349 0.0000000000 0.0001692499 0.0001692499 -407.9765653085 0.0545497450 0.0545497450
0.0958394177 0.5528419915 0.0000000000 0.0001692499 0.0001692499 -420.5186409601 0.0545497450 0.0545497450
0.0752122320 0.5541226242 0.0000000000 0.0001692499 0.0001692499 -432.7538913729 0.0545497450 0.0545497450
0.0545497449 0.5545497450 0.0000000000 0.0001692499 0.0001692499 -444.2454577712 0.0545497450 0.0545497450
0.0338872578 0.5541226242 0.0000000000 0.0001692499 0.0001692499 -454.5176539436 0.0545497450 0.0545497450
0.0132600722 0.5528419915 0.0000000000 0.0001692499 0.0001692499 -463.0737252468 0.0545497450 0.0545497450
-0.0072965707 0.5507100349 0.0000000000 0.0001692499 0.0001692499 -469.4153829701 0.0545497450 0.0545497450
-0.0277475502 0.5477303967 0.0000000000 0.0001692499 0.0001692499 -473.0628979911 0.0545497450 0.0545497450
-0.0480579262 0.5439081677 0.0000000000 0.0001692499 0.0001692499 -473.5740785249 0.0545497450 0.0545497450
-0.0681929987 0.5392498780 0.0000000000 0.0001692499 0.0001692499 -470.5609617275 0.0545497450 0.0545497450
-0.0881183672 0.5337634862 0.0000000000 0.0001692499 0.0001692499 -463.7032796866 0.0545497450 0.0545497450
-0.1077999897 0.5274583658 0.0000000000 0.0001692499 0.0001692499 -452.7582414369 0.0545497450 0.0545497450
-0.1272042404 0.5203452890 0.0000000000 0.0001692499 0.0001692499 -437.5665304484 0.0545497450 0.0545497450
-0.1462979674 0.5124364083 0.0000000000 0.0001692499 0.0001692499 -418.0547520339 0.0545497450 0.0545497450
-0.1650485495 0.5037452359 0.0000000000 0.0001692499 0.0001692499 -394.2347779939 0.0545497450 0.0545497450
-0.1834239516 0.4942866206 0.0000000000 0.0001692499 0.0001692499 -366.2005585869 0.0545497450 0.0545497450
-0.2013927797 0.4840767221 0.0000000000 0.0001692499 0.0001692499 -334.1230002459 0.0545497450 0.0545497450
-0.2189243342 0.4731329841 0.0000000000 0.0001692499 0.0001692499 -298.2434703754 0.0545497450 0.0545497450
-0.2359886628 0.4614741036 0.0000000000 0.0001692499 0.0001692499 -258.8664091187 0.0545497450 0.0545497450
-0.2525566114 0.4491199996 0.0000000000 0.0001692499 0.0001692499 -216.3514279339 0.0545497450 0.0545497450
-0.2685998740 0.4360917790 0.0000000000 0.0001692499 0.0001692499 -171.1051769951 0.0545497450 0.0545497450
-0.2840910409 0.4224117002 0.0000000000 0.0001692499 0.0001692499 -123.5731844394 0.0545497450 0.0545497450
-0.3133122104 0.3931905307 0.0000000000 0.0001692499 0.0001692499 -23.5804948798 0.0545497450 0.0545497450
-0.3269922892 0.3776993638 0.0000000000 0.0001692499 0.0001692499 27.8657575636 0.0545497450 0.0545497450
-0.3400205098 0.3616561012 0.0000000000 0.0001692499 0.0001692499 79.5832845182 0.0545497450 0.0545497450
-0.3523746137 0.3450881526 0.0000000000 0.0001692499 0.0001692499 131.0462741769 0.0545497450 0.0545497450
-0.3640334942 0.3280238239 0.0000000000 0.0001692499 0.0001692499 181.7326800942 0.0545497450 0.0545497450
-0.3749772323 0.3104922694 0.0000000000 0.0001692499 0.0001692499 231.1296095375 0.0545497450 0.0545497450
-0.3851871307 0.2925234414 0.0000000000 0.0001692499 0.0001692499 278.7382205196 0.0545497450 0.0545497450
-0.3946457460 0.2741480393 0.0000000000 0.0001692499 0.0001692499 324.0781851085 0.0545497450 0.0545497450
-0.4033369184 0.2553974572 0.0000000000 0.0001692499 0.0001692499 366.6917745773 0.0545497450 0.0545497450
-0.4112457991 0.2363037301 0.0000000000 0.0001692499 0.0001692499 406.1476088889 0.0545497450 0.0545497450
-0.4183588759 0.2168994794 0.0000000000 0.0001692499 0.0001692499 442.0440960250 0.0545497450 0.0545497450
-0.4246639963 0.1972178570 0.0000000000 0.0001692499 0.0001692499 474.0125712989 0.0545497450 0.0545497450
-0.4301503880 0.1772924884 0.0000000000 0.0001692499 0.0001692499 501.7201358252 0.0545497450 0.0545497450
-0.4348086777 0.1571574159 0.0000000000 0.0001692499 0.0001692499 524.8721871563 0.0545497450 0.0545497450
-0.4386309067 0.1368470400 0.0000000000 0.0001692499 0.0001692499 543.2146328954 0.0545497450 0.0545497450
-0.4416105449 0.1163960605 0.0000000000 0.0001692499 0.0001692499 556.5357785537 0.0545497450 0.0545497450
-0.4437425015 0.0958394175 0.0000000000 0.0001692499 0.0001692499 564.6678829100 0.0545497450 0.0545497450
-0.4450231342 0.0752122319 0.0000000000 0.0001692499 0.0001692499 567.4883767323 0.0545497450 0.0545497450
-0.4454502550 0.0545497448 0.0000000000 0.0001692499 0.0001692499 564.9207433418 0.0545497450 0.0545497450
-0.4450231342 0.0338872577 0.0000000000 0.0001692499 0.0001692499 556.9350616940 0.0545497450 0.0545497450
-0.4437425015 0.0132600721 0.0000000000 0.0001692499 0.0001692499 543.5482141878 0.0545497450 0.0545497450
-0.4416105448 -0.0072965708 0.0000000000 0.0001692499 0.0001692499 524.8237622462 0.0545497450 0.0545497450
-0.4386309067 -0.0277475503 0.0000000000 0.0001692499 0.0001692499 500.8714929266 0.0545497450 0.0545497450
-0.4348086776 -0.0480579263 0.0000000000 0.0001692499 0.0001692499 471.8466396440 0.0545497450 0.0545497450
-0.4301503879 -0.0681929988 0.0000000000 0.0001692499 0.0001692499 437.9487797970 0.0545497450 0.0545497450
-0.4246639962 -0.0881183673 0.0000000000 0.0001692499 0.0001692499 399.4204119404 0.0545497450 0.0545497450
-0.4183588758 -0.1077999898 0.0000000000 0.0001692499 0.0001692499 356.5452153009 0.0545497450 0.0545497450
-0.4112457989 -0.1272042405 0.0000000000 0.0001692499 0.0001692499 309.6459948879 0.0545497450 0.0545497450
-0.4033369182 -0.1462979675 0.0000000000 0.0001692499 0.0001692499 259.0823160703 0.0545497450 0.0545497450
-0.3946457458 -0.1650485496 0.0000000000 0.0001692499 0.0001692499 205.2478330284 0.0545497450 0.0545497450
-0.3851871305 -0.1834239517 0.0000000000 0.0001692499 0.0001692499 148.5673156853 0.0545497450 0.0545497450
-0.3749772321 -0.2013927797 0.0000000000 0.0001692499 0.0001692499 89.4933793423 0.0545497450 0.0545497450
-0.3640334940 -0.2189243343 0.0000000000 0.0001692499 0.0001692499 28.5029201679 0.0545497450 0.0545497450
-0.3523746135 -0.2359886629 0.0000000000 0.0001692499 0.0001692499 -33.9067421073 0.0545497450 0.0545497450
-0.3400205095 -0.2525566115 0.0000000000 0.0001692499 0.0001692499 -97.2220153531 0.0545497450 0.0545497450
-0.3269922889 -0.2685998741 0.0000000000 0.0001692499 0.0001692499 -160.9174839598 0.0545497450 0.0545497450
-0.3133122102 -0.2840910410 0.0000000000 0.0001692499 0.0001692499 -224.4606623386 0.0545497450 0.0545497450
-0.2840910406 -0.3133122105 0.0000000000 0.0001692499 0.0001692499 -348.9555863397 0.0545497450 0.0545497450
-0.2685998737 -0.3269922893 0.0000000000 0.0001692499 0.0001692499 -408.8542550724 0.0545497450 0.0545497450
-0.2525566111 -0.3400205098 0.0000000000 0.0001692499 0.0001692499 -466.5062818288 0.0545497450 0.0545497450
-0.2359886625 -0.3523746138 0.0000000000 0.0001692499 0.0001692499 -521.4264912351 0.0545497450 0.0545497450
-0.2189243338 -0.3640334943 0.0000000000 0.0001692499 0.0001692499 -573.1580737849 0.0545497450 0.0545497450
-0.2013927793 -0.3749772323 0.0000000000 0.0001692499 0.0001692499 -621.2796448955 0.0545497450 0.0545497450
-0.1834239513 -0.3851871307 0.0000000000 0.0001692499 0.0001692499 -665.4125490244 0.0545497450 0.0545497450
-0.1650485492 -0.3946457461 0.0000000000 0.0001692499 0.0001692499 -705.2283092970 0.0545497450 0.0545497450
-0.1462979671 -0.4033369184 0.0000000000 0.0001692499 0.0001692499 -740.4560710307 0.0545497450 0.0545497450
-0.1272042400 -0.4112457991 0.0000000000 0.0001692499 0.0001692499 -770.8898234869 0.0545497450 0.0545497450
-0.1077999893 -0.4183588759 0.0000000000 0.0001692499 0.0001692499 -796.3951102653 0.0545497450 0.0545497450
-0.0881183668 -0.4246639963 0.0000000000 0.0001692499 0.0001692499 -816.9148600065 0.0545497450 0.0545497450
-0.0681929983 -0.4301503880 0.0000000000 0.0001692499 0.0001692499 -832.4738941928 0.0545497450 0.0545497450
-0.0480579258 -0.4348086777 0.0000000000 0.0001692499 0.0001692499 -843.1816108687 0.0545497450 0.0545497450
-0.0277475498 -0.4386309067 0.0000000000 0.0001692499 0.0001692499 -849.2323185569 0.0545497450 0.0545497450
-0.0072965703 -0.4416105449 0.0000000000 0.0001692499 0.0001692499 -850.9027229294 0.0545497450 0.0545497450
0.0132600726 -0.4437425015 0.0000000000 0.0001692499 0.0001692499 -848.5461668848 0.0545497450 0.0545497450
0.0338872582 -0.4450231342 0.0000000000 0.0001692499 0.0001692499 -842.5834062614 0.0545497450 0.0545497450
0.0545497453 -0.4454502550 0.0000000000 0.0001692499 0.0001692499 -833.4899649536 0.0545497450 0.0545497450
0.0752122324 -0.4450231342 0.0000000000 0.0001692499 0.0001692499 -821.7804446113 0.0545497450 0.0545497450
0.0958394181 -0.4437425015 0.0000000000 0.0001692499 0.0001692499 -807.9905138515 0.0545497450 0.0545497450
0.1163960610 -0.4416105448 0.0000000000 0.0001692499 0.0001692499 -792.6576449528 0.0545497450 0.0545497450
0.1368470405 -0.4386309066 0.0000000000 0.0001692499 0.0001692499 -776.3018800014 0.0545497450 0.0545497450
0.1571574164 -0.4348086776 0.0000000000 0.0001692499 0.0001692499 -759.4080583194 0.0545497450 0.0545497450
0.1772924889 -0.4301503879 0.0000000000 0.0001692499 0.0001692499 -742.4107324288 0.0545497450 0.0545497450
0.1972178574 -0.4246639961 0.0000000000 0.0001692499 0.0001692499 -725.6829341745 0.0545497450 0.0545497450
0.2168994799 -0.4183588757 0.0000000000 0.0001692499 0.0001692499 -709.5289619645 0.0545497450 0.0545497450
0.2363037306 -0.4112457989 0.0000000000 0.0001692499 0.0001692499 -694.1817139221 0.0545497450 0.0545497450
0.2553974576 -0.4033369182 0.0000000000 0.0001692499 0.0001692499 -679.8024435247 0.0545497450 0.0545497450
0.2741480397 -0.3946457458 0.0000000000 0.0001692499 0.0001692499 -666.4853264376 0.0545497450 0.0545497450
0.2925234418 -0.3851871304 0.0000000000 0.0001692499 0.0001692499 -654.2611045101 0.0545497450 0.0545497450
0.3104922699 -0.3749772320 0.0000000000 0.0001692499 0.0001692499 -643.1158704800 0.0545497450 0.0545497450
0.3280238244 -0.3640334939 0.0000000000 0.0001692499 0.0001692499 -632.9994048560 0.0545497450 0.0545497450
0.3450881530 -0.3523746134 0.0000000000 0.0001692499 0.0001692499 -623.8856754655 0.0545497450 0.0545497450
0.3616561016 -0.3400205095 0.0000000000 0.0001692499 0.0001692499 -615.7437676659 0.0545497450 0.0545497450
0.3776993642 -0.3269922889 0.0000000000 0.0001692499 0.0001692499 -608.6987946484 0.0545497450 0.0545497450
0.3931905311 -0.3133122101 0.0000000000 0.0001692499 0.0001692499 -602.7153644240 0.0545497450 0.0545497450
0.5952075852 -0.4649793362 0.0000000000 0.4515624380 0.0314710673 -576.8761006681 0.0454186810 0.0451502168
0.6141020820 -0.4442171476 0.0000000000 0.3635486760 0.0094474418 -575.9713380607 0.0456232893 0.0449984105
0.6322120431 -0.4227556778 0.0000000000 0.2938121848 -0.0173733461 -576.0898519645 0.0458384309 0.0448616732
0.6495112792 -0.4006243881 0.0000000000 0.2441264384 -0.0483611908 -577.5532286257 0.0460629441 0.0447407507
0.6659746970 -0.3778537418 0.0000000000 0.2130886245 -0.0823542945 -580.5816252125 0.0462956159 0.0446363013
0.6815783388 -0.3544751642 0.0000000000 0.1964258190 -0.1177802714 -585.2462052719 0.0465351891 0.0445488927
0.6962994215 -0.3305210007 0.0000000000 0.1884376467 -0.1529845052 -591.4543179643 0.0467803684 0.0444789989
0.7101163728 -0.3060244734 0.0000000000 0.1837478996 -0.1865584199 -598.9589065873 0.0470298275 0.0444269974
0.7230088676 -0.2810196362 0.0000000000 0.1784236460 -0.2175017961 -607.3725207410 0.0472822165 0.0443931677
0.7349578609 -0.2555413282 0.0000000000 0.1701694105 -0.2452162285 -616.1828716538 0.0475361688 0.0443776897
0.7459456204 -0.2296251254 0.0000000000 0.1579513595 -0.2694175935 -624.7787749483 0.0477903088 0.0443806425
0.7559557567 -0.2033072916 0.0000000000 0.1415234917 -0.2900326835 -632.4895715236 0.0480432589 0.0444020045
0.7649732516 -0.1766247275 0.0000000000 0.1210870935 -0.3071014589 -638.6312388310 0.0482936471 0.0444416529
0.7729844844 -0.1496149185 0.0000000000 0.0970974357 -0.3206949787 -642.5506475888 0.0485401146 0.0444993650
0.7799772566 -0.1223158811 0.0000000000 0.0701647454 -0.3308606355 -643.6641670319 0.0487813224 0.0445748190
0.7859408143 -0.0947661092 0.0000000000 0.0410069316 -0.3375996097 -641.4912998329 0.0490159593 0.0446675958
0.7908658681 -0.0670045178 0.0000000000 0.0104286270 -0.3408706677 -635.6849672949 0.0492427484 0.0447771815
0.7947446117 -0.0390703870 0.0000000000 -0.0206901886 -0.3406091162 -626.0584249491 0.0494604542 0.0449029698
0.7975707372 -0.0110033045 0.0000000000 -0.0514072441 -0.3367514482 -612.6067067100 0.0496678893 0.0450442654
0.7993394491 0.0171568923 0.0000000000 -0.0807393608 -0.3292610631 -595.5192448326 0.0498639205 0.0452002876
0.8000474755 0.0453701753 0.0000000000 -0.1076956019 -0.3181545064 -575.1801004813 0.0500474755 0.0453701750
0.7996930765 0.0735963851 0.0000000000 -0.1313237635 -0.3035291483 -552.1528265801 0.0502175479 0.0455529891
0.7982760514 0.1017952907 0.0000000000 -0.1507700656 -0.2855921912 -527.1482490505 0.0503732035 0.0457477202
0.7957977423 0.1299266499 0.0000000000 -0.1653492311 -0.2646885314 -500.9755155429 0.0505135849 0.0459532926
0.7922610358 0.1579502698 0.0000000000 -0.1746184864 -0.2413227556 -474.4796794780 0.0506379162 0.0461685699
0.7876703624 0.1858260673 0.0000000000 -0.1784454632 -0.2161695512 -448.4724409228 0.0507455075 0.0463923617
0.7820316926 0.2135141302 0.0000000000 -0.1770580873 -0.1900674642 -423.6654531031 0.0508357585 0.0466234295
0.7753525316 0.2409747778 0.0000000000 -0.1710652514 -0.1639928111 -400.6166246342 0.0509081620 0.0468604938
0.7676419109 0.2681686214 0.0000000000 -0.1614400293 -0.1390126018 -379.6983321400 0.0509623066 0.0471022404
0.7589103770 0.2950566248 0.0000000000 -0.1494605154 -0.1162163178 -361.0924974257 0.0509978793 0.0473473281
0.7491699786 0.3216001639 0.0000000000 -0.1366039559 -0.0966254254 -344.8120721444 0.0510146671 0.0475943955
0.7384342504 0.3477610868 0.0000000000 -0.1243844139 -0.0810771046 -330.7433355045 0.0510125585 0.0478420684
0.7267181950 0.3735017722 0.0000000000 -0.1141130088 -0.0700785319 -318.7006756294 0.0509915442 0.0480889677
0.7140382622 0.3987851876 0.0000000000 -0.1065549355 -0.0636383706 -308.4864094169 0.0509517171 0.0483337162
0.7004123254 0.4235749468 0.0000000000 -0.1014920785 -0.0611126671 -299.9497891095 0.0508932726 0.0485749466
0.6858596565 0.4478353663 0.0000000000 -0.0973113748 -0.0611510683 -293.0333934377 0.0508165072 0.0488113088
0.6704008978 0.4715315209 0.0000000000 -0.0908943801 -0.0618603688 -287.7790602658 0.0507218171 0.0490414772
0.6540580315 0.4946292975 0.0000000000 -0.0781091121 -0.0612466855 -284.2617247330 0.0506096967 0.0492641582
0.6368543474 0.5170954485 0.0000000000 -0.0549111633 -0.0578235891 -282.4616754964 0.0504807357 0.0494780970
0.6188144085 0.5388976435 0.0000000000 -0.0185677919 -0.0510899085 -282.1550161632 0.0503356162 0.0496820850
0.5999640131 0.5600045194 0.0000000000 0.0316933801 -0.0415876726 -282.9091614052 0.0501751093 0.0498749660
0.5577519770 0.6020328643 0.0000000000 0.1780138229 -0.0177955157 -285.7943958509 0.0497907983 0.0502399312
0.5342907182 0.6227198098 0.0000000000 0.2726425546 -0.0053823760 -287.0790476760 0.0495662898 0.0504067586
0.5099875563 0.6424103309 0.0000000000 0.3769958586 0.0069060056 -287.9918242573 0.0493280219 0.0505549488
0.4848851765 0.6610699871 0.0000000000 0.4891142542 0.0199510450 -288.6164593652 0.0490775650 0.0506834491
0.4590276926 0.6786661965 0.0000000000 0.6060364705 0.0347480770 -289.1145467556 0.0488165741 0.0507913378
0.4324605642 0.6951682965 0.0000000000 0.7234767414 0.0518788718 -289.6286591796 0.0485467775 0.0508778307
0.4052305100 0.7105476008 0.0000000000 0.8363336252 0.0713002587 -290.2170191640 0.0482699653 0.0509422873
0.3773854197 0.7247774519 0.0000000000 0.9396983746 0.0924449352 -290.8367102289 0.0479879782 0.0509842154
0.3489742629 0.7378332699 0.0000000000 1.0298021072 0.1144800411 -291.3727060736 0.0477026945 0.0510032748
0.3200469959 0.7496925963 0.0000000000 1.1045350912 0.1365683735 -291.6841691631 0.0474160180 0.0509992803
0.2906544670 0.7603351346 0.0000000000 1.1634793376 0.1580502400 -291.6399396596 0.0471298653 0.0509722033
0.2608483202 0.7697427847 0.0000000000 1.2075887806 0.1785276603 -291.1334751337 0.0468461521 0.0509221728
0.2306808966 0.7778996746 0.0000000000 1.2387039912 0.1978655494 -290.0814899081 0.0465667814 0.0508494751
0.2002051358 0.7847921860 0.0000000000 1.2590608089 0.2161377681 -288.4141436783 0.0462936293 0.0507545519
0.1694744756 0.7904089763 0.0000000000 1.2708947872 0.2335483989 -286.0631498150 0.0460285330 0.0506379987
0.1385427512 0.7947409953 0.0000000000 1.2761835988 0.2503535459 -282.9519574667 0.0457732779 0.0505005605
0.1074640940 0.7977814975 0.0000000000 1.2765229737 0.2667994256 -278.9902406594 0.0455295851 0.0503431277
0.0762928299 0.7995260493 0.0000000000 1.2731051235 0.2830825606 -274.0732458679 0.0452990994 0.0501667305
0.0450833780 0.7999725323 0.0000000000 1.2667607444 0.2993305780 -268.0852377850 0.0450833782 0.0499725323
0.0138901493 0.7991211408 0.0000000000 1.2580304096 0.3155984284 -260.9055690307 0.0448838801 0.0497618220
-0.0172325545 0.7969743756 0.0000000000 1.2472413697 0.3318741322 -252.4158055927 0.0447019548 0.0495360058
-0.0482306404 0.7935370327 0.0000000000 1.2345762190 0.3480891682 -242.5066642134 0.0445388333 0.0492965979
-0.0790503237 0.7888161878 0.0000000000 1.2201278907 0.3641301917 -231.0839947625 0.0443956192 0.0490452102
-0.1096382261 0.7828211757 0.0000000000 1.2039404199 0.3798502252 -218.0734724348 0.0442732807 0.0487835418
-0.1399414722 0.7755635664 0.0000000000 1.1860373728 0.3950785103 -203.4239628684 0.0441726433 0.0485133670
-0.1699077843 0.7670571355 0.0000000000 1.1664406368 0.4096288353 -187.1096836369 0.0440943841 0.0482365237
-0.1994855761 0.7573178321 0.0000000000 1.1451821704 0.4233064603 -169.1313445164 0.0440390260 0.0479549009
-0.2286240436 0.7463637408 0.0000000000 1.1223108445 0.4359138691 -149.5164498305 0.0440069345 0.0476704248
-0.2572732547 0.7342150416 0.0000000000 1.0978959690 0.4472555759 -128.3189224373 0.0439983139 0.0473850467
-0.2853842355 0.7208939644 0.0000000000 1.0720286297 0.4571421792 -105.6181803106 0.0440132063 0.0471007281
-0.3129090547 0.7064247414 0.0000000000 1.0448215939 0.4653937999 -81.5177720228 0.0440514903 0.0468194281
-0.3398009054 0.6908335546 0.0000000000 1.0164082903 0.4718430030 -56.1436589985 0.0441128816 0.0465430889
-0.3660141838 0.6741484809 0.0000000000 0.9869411908 0.4763372647 -29.6422193459 0.0441969350 0.0462736224
-0.3915045650 0.6563994341 0.0000000000 0.9565898104 0.4787410314 -2.1780386286 0.0443030468 0.0460128963
-0.4162290759 0.6376181032 0.0000000000 0.9255384698 0.4789373987 26.0684544616 0.0444304588 0.0457627212
-0.4401461649 0.6178378888 0.0000000000 0.8939839179 0.4768294371 54.9034560089 0.0445782637 0.0455248378
-0.4632157681 0.5970938364 0.0000000000 0.8621328848 0.4723411830 84.1223128440 0.0447454108 0.0453009036
-0.5066600752 0.5528622083 0.0000000000 0.7984034243 0.4560285489 142.8539826218 0.0451328580 0.0449010298
-0.5269626403 0.5294523166 0.0000000000 0.7669662886 0.4441617281 171.9260302125 0.0453504110 0.0447278884
-0.5462735508 0.5052338065 0.0000000000 0.7361105253 0.4298297070 200.5052947745 0.0455818314 0.0445742722
-0.5645610577 0.4802488723 0.0000000000 0.7060565470 0.4130659750 228.3702933729 0.0458254804 0.0444412610
-0.5817952258 0.4545409097 0.0000000000 0.6770207284 0.3939250894 255.3031784931 0.0460796331 0.0443297913
-0.5979479753 0.4281544369 0.0000000000 0.6492133937 0.3724819276 281.0918131929 0.0463424906 0.0442406503
-0.6129931203 0.4011350137 0.0000000000 0.6228369386 0.3488307809 305.5317061875 0.0466121932 0.0441744692
-0.6269064030 0.3735291606 0.0000000000 0.5980840971 0.3230843111 328.4277994806 0.0468868336 0.0441317192
-0.6396655252 0.3453842759 0.0000000000 0.5751363621 0.2953723852 349.5961050360 0.0471644699 0.0441127077
-0.6512501756 0.3167485537 0.0000000000 0.5541625604 0.2658408037 368.8651895858 0.0474431405 0.0441175760
-0.6616420541 0.2876709003 0.0000000000 0.5353175852 0.2346499350 386.0775075811 0.0477208772 0.0441462986
-0.6708248919 0.2582008506 0.0000000000 0.5187412872 0.2019732730 401.0905822446 0.0479957200 0.0441986827
-0.6787844688 0.2283884849 0.0000000000 0.5045575323 0.1679959301 413.7780351114 0.0482657307 0.0442743698
-0.6855086269 0.1982843449 0.0000000000 0.4928734298 0.1329130742 424.0304657338 0.0485290071 0.0443728386
-0.6909872811 0.1679393506 0.0000000000 0.4837787253 0.0969283097 431.7561833694 0.0487836965 0.0444934082
-0.6952124261 0.1374047165 0.0000000000 0.4773453255 0.0602520013 436.8817881844 0.0490280087 0.0446352434
-0.6981781403 0.1067318693 0.0000000000 0.4736269027 0.0230995518 439.3525920946 0.0492602294 0.0447973604
-0.6998805869 0.0759723649 0.0000000000 0.4726585430 -0.0143103305 439.1328686575 0.0494787319 0.0449786345
-0.7003180113 0.0451778072 0.0000000000 0.4744564460 -0.0517573257 436.2059333586 0.0496819887 0.0451778075
-0.6994907362 0.0143997662 0.0000000000 0.4790177496 -0.0890211303 430.5740820960 0.0498685826 0.0453934972
-0.6974011534 -0.0163103020 0.0000000000 0.4863205241 -0.1258830155 422.2584111976 0.0500372163 0.0456242074
-0.6940537128 -0.0469011351 0.0000000000 0.4963239614 -0.1621273237 411.2985348206 0.0501867220 0.0458683387
-0.6894549085 -0.0773217433 0.0000000000 0.5089688002 -0.1975429228 397.7522156064 0.0503160689 0.0461241997
-0.6836132629 -0.1075214873 0.0000000000 0.5241779771 -0.2319246493 381.6948995365 0.0504243710 0.0463900197
-0.6765393069 -0.1374501549 0.0000000000 0.5418574498 -0.2650747548 363.2191350961 0.0505108925 0.0466639608
-0.6682455588 -0.1670580372 0.0000000000 0.5618971269 -0.2968043457 342.4338587123 0.0505750529 0.0469441313