 TITLE = "Tecplot data"
 VARIABLES = "X", "Y", "Z" "U", "V", "p", "dispX", "dispY"
 ZONE SOLUTIONTIME=111.900000, NODES=26114 , ELEMENTS=25916, DATAPACKING=POINT, ZONETYPE=FEQUADRILATERAL
0.9576500997 3.7041729005 0.0000000000 0.0000000000 0.0000000000 -5129.7446788941 0.6040967092 3.3506195099
0.9576501000 2.9970661196 0.0000000000 0.0000000000 0.0000000000 -595.0981362598 0.6040967092 3.3506195099
0.2505433185 3.7041729004 0.0000000000 0.0000000000 0.0000000000 2226.1343935512 0.6040967092 3.3506195099
0.2505433188 2.9970661191 0.0000000000 0.0000000000 0.0000000000 1229.3566237014 0.6040967092 3.3506195099
1.1444047121 3.8677290253 0.0000000000 1.1307921712 -0.4783024409 -2576.0997779078 0.6140746262 3.3373989394
1.1133707571 2.8016941966 0.0000000000 0.1909271196 0.1913693508 -500.2617801835 0.5830406708 3.3320242821
0.0773798514 3.8799387919 0.0000000000 1.4424159952 1.0283541147 1568.9975419834 0.6077099375 3.3496087062
0.0672716532 2.8238280264 0.0000000000 0.1623077369 -0.1733468846 1212.4840674073 0.5976017388 3.3541581125
1.7289067610 4.3087877590 0.0000000000 1.0818153704 0.1374901813 -963.9149850693 0.6682465894 3.2481275871
1.5393993428 2.1712415551 0.0000000000 0.3608546205 0.1998283627 -261.6556147880 0.4787391702 3.2319017261
-0.4363869642 4.3993529024 0.0000000000 1.1815003892 0.5083406452 848.6281105282 0.6242732079 3.3386927310
-0.5069843483 2.3035320028 0.0000000000 0.4928048766 0.2798020845 938.6086933500 0.5536758229 3.3641921752
5.1469197652 6.0075505511 0.0000000000 1.4889434869 0.0789957194 -285.2541523132 0.9469197652 2.7075505511
4.1987989721 -0.6809179295 0.0000000000 0.3402216014 -0.1441638025 -179.0074099117 -0.0012010279 2.6190820705
20.0000000000 4.7000000000 0.0000000000 0.8873107053 -0.0366717861 0.3954865136 0.0000000000 0.0000000000
20.0000000000 -4.7000000000 0.0000000000 1.2886354628 0.1446025393 -1.0658482321 0.0000000000 0.0000000000
-10.0000000000 15.0000000000 0.0000000000 1.0000000000 0.0000000000 290.7119317095 0.0000000000 0.0000000000
20.0000000000 15.0000000000 0.0000000000 1.0597531812 0.0000000000 0.0697845497 0.0000000000 0.0000000000
20.0000000000 -15.0000000000 0.0000000000 1.0941373494 0.0000000000 -0.1350875457 0.0000000000 0.0000000000
-10.0000000000 -15.0000000000 0.0000000000 1.0000000000 0.0000000000 258.8258326820 0.0000000000 0.0000000000
0.9706226453 3.0105331413 0.0000000000 0.0000000000 0.0000000000 -641.5508848896 0.6040967092 3.3506195099
0.9830825710 3.0244758045 0.0000000000 0.0000000000 0.0000000000 -688.1567232800 0.6040967092 3.3506195099
0.9950124506 3.0388746092 0.0000000000 0.0000000000 0.0000000000 -736.4501426985 0.6040967092 3.3506195099
1.0063955993 3.0537094174 0.0000000000 0.0000000000 0.0000000000 -786.0416918553 0.6040967092 3.3506195099
1.0172160965 3.0689594811 0.0000000000 0.0000000000 0.0000000000 -837.4650199704 0.6040967092 3.3506195099
1.0274588090 3.0846034719 0.0000000000 0.0000000000 0.0000000000 -891.0263882300 0.6040967092 3.3506195099
1.0371094112 3.1006195102 0.0000000000 0.0000000000 0.0000000000 -947.2252198040 0.6040967092 3.3506195099
1.0461544061 3.1169851960 0.0000000000 0.0000000000 0.0000000000 -1006.6764940993 0.6040967092 3.3506195099
1.0545811433 3.1336776406 0.0000000000 0.0000000000 0.0000000000 -1070.0943146965 0.6040967092 3.3506195099
1.0623778372 3.1506734980 0.0000000000 0.0000000000 0.0000000000 -1138.2835136582 0.6040967092 3.3506195099
1.0695335836 3.1679489980 0.0000000000 0.0000000000 0.0000000000 -1212.0647906994 0.6040967092 3.3506195099
1.0760383744 3.1854799792 0.0000000000 0.0000000000 0.0000000000 -1292.2130726732 0.6040967092 3.3506195099
1.0818831122 3.2032419229 0.0000000000 0.0000000000 0.0000000000 -1379.3800380326 0.6040967092 3.3506195099
1.0870596224 3.2212099876 0.0000000000 0.0000000000 0.0000000000 -1474.0368363813 0.6040967092 3.3506195099
1.0915606653 3.2393590432 0.0000000000 0.0000000000 0.0000000000 -1576.4390350549 0.6040967092 3.3506195099
1.0953799458 3.2576637065 0.0000000000 0.0000000000 0.0000000000 -1686.6192038201 0.6040967092 3.3506195099
1.0985121223 3.2760983770 0.0000000000 0.0000000000 0.0000000000 -1804.4042074978 0.6040967092 3.3506195099
1.1009528142 3.2946372721 0.0000000000 0.0000000000 0.0000000000 -1929.4455215611 0.6040967092 3.3506195099
1.1026986078 3.3132544633 0.0000000000 0.0000000000 0.0000000000 -2061.2587264111 0.6040967092 3.3506195099
1.1037470616 3.3319239130 0.0000000000 0.0000000000 0.0000000000 -2199.2551616184 0.6040967092 3.3506195099
1.1040967092 3.3506195101 0.0000000000 0.0000000000 0.0000000000 -2342.7765746398 0.6040967092 3.3506195099
1.1037470616 3.3693151072 0.0000000000 0.0000000000 0.0000000000 -2491.1060258864 0.6040967092 3.3506195099
1.1026986078 3.3879845569 0.0000000000 0.0000000000 0.0000000000 -2643.4968934111 0.6040967092 3.3506195099
1.1009528141 3.4066017481 0.0000000000 0.0000000000 0.0000000000 -2799.1546860157 0.6040967092 3.3506195099
1.0985121223 3.4251406432 0.0000000000 0.0000000000 0.0000000000 -2957.2819368379 0.6040967092 3.3506195099
1.0953799458 3.4435753136 0.0000000000 0.0000000000 0.0000000000 -3117.0136850294 0.6040967092 3.3506195099
1.0915606652 3.4618799770 0.0000000000 0.0000000000 0.0000000000 -3277.5237048960 0.6040967092 3.3506195099
1.0870596223 3.4800290326 0.0000000000 0.0000000000 0.0000000000 -3437.8579730722 0.6040967092 3.3506195099
1.0818831120 3.4979970972 0.0000000000 0.0000000000 0.0000000000 -3597.2011659549 0.6040967092 3.3506195099
1.0760383743 3.5157590410 0.0000000000 0.0000000000 0.0000000000 -3754.4611567767 0.6040967092 3.3506195099
1.0695335835 3.5332900222 0.0000000000 0.0000000000 0.0000000000 -3908.9296018016 0.6040967092 3.3506195099
1.0623778371 3.5505655222 0.0000000000 0.0000000000 0.0000000000 -4059.2551368720 0.6040967092 3.3506195099
1.0545811431 3.5675613796 0.0000000000 0.0000000000 0.0000000000 -4205.0633999099 0.6040967092 3.3506195099
1.0461544059 3.5842538241 0.0000000000 0.0000000000 0.0000000000 -4344.4368041291 0.6040967092 3.3506195099
1.0371094110 3.6006195100 0.0000000000 0.0000000000 0.0000000000 -4477.8727431235 0.6040967092 3.3506195099
1.0274588087 3.6166355482 0.0000000000 0.0000000000 0.0000000000 -4602.1019700039 0.6040967092 3.3506195099
1.0172160963 3.6322795390 0.0000000000 0.0000000000 0.0000000000 -4719.8239293090 0.6040967092 3.3506195099
1.0063955990 3.6475296027 0.0000000000 0.0000000000 0.0000000000 -4824.3207000597 0.6040967092 3.3506195099
0.9950124504 3.6623644109 0.0000000000 0.0000000000 0.0000000000 -4924.1552110176 0.6040967092 3.3506195099
0.9830825707 3.6767632156 0.0000000000 0.0000000000 0.0000000000 -5002.7468490794 0.6040967092 3.3506195099
0.9706226451 3.6907058788 0.0000000000 0.0000000000 0.0000000000 -5086.9582970984 0.6040967092 3.3506195099
0.9427374950 3.7184814653 0.0000000000 0.0000000000 0.0000000000 -5189.3841088619 0.6040967092 3.3506195099
0.9272463281 3.7321615440 0.0000000000 0.0000000000 0.0000000000 -5220.2171071462 0.6040967092 3.3506195099
0.9112030655 3.7451897646 0.0000000000 0.0000000000 0.0000000000 -5234.9079895172 0.6040967092 3.3506195099
0.8946351168 3.7575438686 0.0000000000 0.0000000000 0.0000000000 -5230.6270909699 0.6040967092 3.3506195099
0.8775707882 3.7692027491 0.0000000000 0.0000000000 0.0000000000 -5206.8115454746 0.6040967092 3.3506195099
0.8600392337 3.7801464871 0.0000000000 0.0000000000 0.0000000000 -5163.7170726181 0.6040967092 3.3506195099
0.8420704056 3.7903563855 0.0000000000 0.0000000000 0.0000000000 -5100.6408388075 0.6040967092 3.3506195099
0.8236950035 3.7998150009 0.0000000000 0.0000000000 0.0000000000 -5017.8930584330 0.6040967092 3.3506195099
0.8049444214 3.8085061733 0.0000000000 0.0000000000 0.0000000000 -4915.3298661465 0.6040967092 3.3506195099
0.7858506944 3.8164150539 0.0000000000 0.0000000000 0.0000000000 -4793.3219550641 0.6040967092 3.3506195099
0.7664464437 3.8235281308 0.0000000000 0.0000000000 0.0000000000 -4652.1643546120 0.6040967092 3.3506195099
0.7467648212 3.8298332511 0.0000000000 0.0000000000 0.0000000000 -4492.4175519727 0.6040967092 3.3506195099
0.7268394527 3.8353196429 0.0000000000 0.0000000000 0.0000000000 -4314.7159654701 0.6040967092 3.3506195099
0.7067043802 3.8399779326 0.0000000000 0.0000000000 0.0000000000 -4119.8625315707 0.6040967092 3.3506195099
0.6863940042 3.8438001616 0.0000000000 0.0000000000 0.0000000000 -3908.7713738250 0.6040967092 3.3506195099
0.6659430247 3.8467797998 0.0000000000 0.0000000000 0.0000000000 -3682.4823327164 0.6040967092 3.3506195099
0.6453863818 3.8489117564 0.0000000000 0.0000000000 0.0000000000 -3442.1400474829 0.6040967092 3.3506195099
0.6247591962 3.8501923891 0.0000000000 0.0000000000 0.0000000000 -3188.9884748092 0.6040967092 3.3506195099
0.6040967091 3.8506195099 0.0000000000 0.0000000000 0.0000000000 -2924.3604951143 0.6040967092 3.3506195099
0.5834342220 3.8501923891 0.0000000000 0.0000000000 0.0000000000 -2649.6704055732 0.6040967092 3.3506195099
0.5628070363 3.8489117564 0.0000000000 0.0000000000 0.0000000000 -2366.4052266573 0.6040967092 3.3506195099
0.5422503934 3.8467797997 0.0000000000 0.0000000000 0.0000000000 -2076.1137195326 0.6040967092 3.3506195099
0.5217994139 3.8438001616 0.0000000000 0.0000000000 0.0000000000 -1780.3925324245 0.6040967092 3.3506195099
0.5014890380 3.8399779325 0.0000000000 0.0000000000 0.0000000000 -1480.8701665719 0.6040967092 3.3506195099
0.4813539655 3.8353196428 0.0000000000 0.0000000000 0.0000000000 -1179.1909715045 0.6040967092 3.3506195099
0.4614285969 3.8298332511 0.0000000000 0.0000000000 0.0000000000 -877.0009189467 0.6040967092 3.3506195099
0.4417469745 3.8235281307 0.0000000000 0.0000000000 0.0000000000 -575.9359479820 0.6040967092 3.3506195099
0.4223427238 3.8164150539 0.0000000000 0.0000000000 0.0000000000 -277.6125980019 0.6040967092 3.3506195099
0.4032489967 3.8085061732 0.0000000000 0.0000000000 0.0000000000 16.3794229725 0.6040967092 3.3506195099
0.3844984146 3.7998150008 0.0000000000 0.0000000000 0.0000000000 304.4829106220 0.6040967092 3.3506195099
0.3661230125 3.7903563854 0.0000000000 0.0000000000 0.0000000000 585.1779944760 0.6040967092 3.3506195099
0.3481541845 3.7801464870 0.0000000000 0.0000000000 0.0000000000 856.9878328590 0.6040967092 3.3506195099
0.3306226300 3.7692027489 0.0000000000 0.0000000000 0.0000000000 1118.4863076485 0.6040967092 3.3506195099
0.3135583014 3.7575438684 0.0000000000 0.0000000000 0.0000000000 1368.3066168095 0.6040967092 3.3506195099
0.2969903527 3.7451897645 0.0000000000 0.0000000000 0.0000000000 1605.1511361260 0.6040967092 3.3506195099
0.2809470901 3.7321615439 0.0000000000 0.0000000000 0.0000000000 1827.8025019922 0.6040967092 3.3506195099
0.2654559233 3.7184814651 0.0000000000 0.0000000000 0.0000000000 2035.1362181157 0.6040967092 3.3506195099
0.2362347537 3.6892602956 0.0000000000 0.0000000000 0.0000000000 2399.8995594753 0.6040967092 3.3506195099
0.2225546750 3.6737691287 0.0000000000 0.0000000000 0.0000000000 2555.6670088012 0.6040967092 3.3506195099
0.2095264544 3.6577258661 0.0000000000 0.0000000000 0.0000000000 2692.8143540739 0.6040967092 3.3506195099
0.1971723505 3.6411579175 0.0000000000 0.0000000000 0.0000000000 2810.8678845712 0.6040967092 3.3506195099
0.1855134700 3.6240935888 0.0000000000 0.0000000000 0.0000000000 2909.5065768631 0.6040967092 3.3506195099
0.1745697319 3.6065620343 0.0000000000 0.0000000000 0.0000000000 2988.5657123336 0.6040967092 3.3506195099
0.1643598335 3.5885932063 0.0000000000 0.0000000000 0.0000000000 3048.0426111549 0.6040967092 3.3506195099
0.1549012182 3.5702178042 0.0000000000 0.0000000000 0.0000000000 3088.1068470344 0.6040967092 3.3506195099
0.1462100458 3.5514672221 0.0000000000 0.0000000000 0.0000000000 3109.1165359219 0.6040967092 3.3506195099
0.1383011651 3.5323734950 0.0000000000 0.0000000000 0.0000000000 3111.6410408616 0.6040967092 3.3506195099
0.1311880883 3.5129692443 0.0000000000 0.0000000000 0.0000000000 3096.4888554247 0.6040967092 3.3506195099
0.1248829679 3.4932876218 0.0000000000 0.0000000000 0.0000000000 3064.7376671659 0.6040967092 3.3506195099
0.1193965762 3.4733622533 0.0000000000 0.0000000000 0.0000000000 3017.7618369021 0.6040967092 3.3506195099
0.1147382865 3.4532271808 0.0000000000 0.0000000000 0.0000000000 2957.2509083014 0.6040967092 3.3506195099
0.1109160575 3.4329168048 0.0000000000 0.0000000000 0.0000000000 2885.2112791194 0.6040967092 3.3506195099
0.1079364193 3.4124658253 0.0000000000 0.0000000000 0.0000000000 2803.9416435086 0.6040967092 3.3506195099
0.1058044627 3.3919091824 0.0000000000 0.0000000000 0.0000000000 2715.9713596950 0.6040967092 3.3506195099
0.1045238300 3.3712819968 0.0000000000 0.0000000000 0.0000000000 2623.9509090852 0.6040967092 3.3506195099
0.1040967092 3.3506195097 0.0000000000 0.0000000000 0.0000000000 2530.4886080624 0.6040967092 3.3506195099
0.1045238300 3.3299570226 0.0000000000 0.0000000000 0.0000000000 2437.9421237410 0.6040967092 3.3506195099
0.1058044627 3.3093298369 0.0000000000 0.0000000000 0.0000000000 2348.1976374223 0.6040967092 3.3506195099
0.1079364193 3.2887731940 0.0000000000 0.0000000000 0.0000000000 2262.4941375134 0.6040967092 3.3506195099
0.1109160575 3.2683222145 0.0000000000 0.0000000000 0.0000000000 2181.3560034446 0.6040967092 3.3506195099
0.1147382866 3.2480118386 0.0000000000 0.0000000000 0.0000000000 2104.6682615737 0.6040967092 3.3506195099
0.1193965763 3.2278767661 0.0000000000 0.0000000000 0.0000000000 2031.8730167339 0.6040967092 3.3506195099
0.1248829680 3.2079513976 0.0000000000 0.0000000000 0.0000000000 1962.2152526554 0.6040967092 3.3506195099
0.1311880884 3.1882697751 0.0000000000 0.0000000000 0.0000000000 1894.9546991184 0.6040967092 3.3506195099
0.1383011652 3.1688655244 0.0000000000 0.0000000000 0.0000000000 1829.4921158581 0.6040967092 3.3506195099
0.1462100460 3.1497717974 0.0000000000 0.0000000000 0.0000000000 1765.4065548152 0.6040967092 3.3506195099
0.1549012183 3.1310212153 0.0000000000 0.0000000000 0.0000000000 1702.4335453325 0.6040967092 3.3506195099
0.1643598337 3.1126458132 0.0000000000 0.0000000000 0.0000000000 1640.4206776335 0.6040967092 3.3506195099
0.1745697321 3.0946769851 0.0000000000 0.0000000000 0.0000000000 1579.2853191681 0.6040967092 3.3506195099
0.1855134702 3.0771454306 0.0000000000 0.0000000000 0.0000000000 1518.9839731911 0.6040967092 3.3506195099
0.1971723507 3.0600811020 0.0000000000 0.0000000000 0.0000000000 1459.4930746423 0.6040967092 3.3506195099
0.2095264546 3.0435131534 0.0000000000 0.0000000000 0.0000000000 1400.7977740145 0.6040967092 3.3506195099
0.2225546752 3.0274698908 0.0000000000 0.0000000000 0.0000000000 1342.8856719192 0.6040967092 3.3506195099
0.2362347540 3.0119787239 0.0000000000 0.0000000000 0.0000000000 1285.7436221451 0.6040967092 3.3506195099
0.2654559236 2.9827575544 0.0000000000 0.0000000000 0.0000000000 1173.7079334532 0.6040967092 3.3506195099
0.2809470905 2.9690774756 0.0000000000 0.0000000000 0.0000000000 1118.7798724979 0.6040967092 3.3506195099
0.2969903530 2.9560492550 0.0000000000 0.0000000000 0.0000000000 1064.5545254851 0.6040967092 3.3506195099
0.3135583017 2.9436951511 0.0000000000 0.0000000000 0.0000000000 1011.0142020911 0.6040967092 3.3506195099
0.3306226303 2.9320362706 0.0000000000 0.0000000000 0.0000000000 958.1413605574 0.6040967092 3.3506195099
0.3481541849 2.9210925326 0.0000000000 0.0000000000 0.0000000000 905.9182713204 0.6040967092 3.3506195099
0.3661230129 2.9108826342 0.0000000000 0.0000000000 0.0000000000 854.3265214231 0.6040967092 3.3506195099
0.3844984150 2.9014240188 0.0000000000 0.0000000000 0.0000000000 803.3466129153 0.6040967092 3.3506195099
0.4032489971 2.8927328465 0.0000000000 0.0000000000 0.0000000000 752.9577020330 0.6040967092 3.3506195099
0.4223427242 2.8848239658 0.0000000000 0.0000000000 0.0000000000 703.1375131998 0.6040967092 3.3506195099
0.4417469749 2.8777108890 0.0000000000 0.0000000000 0.0000000000 653.8623637670 0.6040967092 3.3506195099
0.4614285973 2.8714057686 0.0000000000 0.0000000000 0.0000000000 605.1072537112 0.6040967092 3.3506195099
0.4813539659 2.8659193769 0.0000000000 0.0000000000 0.0000000000 556.8459667869 0.6040967092 3.3506195099
0.5014890384 2.8612610872 0.0000000000 0.0000000000 0.0000000000 509.0511632937 0.6040967092 3.3506195099
0.5217994143 2.8574388581 0.0000000000 0.0000000000 0.0000000000 461.6944434216 0.6040967092 3.3506195099
0.5422503938 2.8544592200 0.0000000000 0.0000000000 0.0000000000 414.7463891339 0.6040967092 3.3506195099
0.5628070367 2.8523272634 0.0000000000 0.0000000000 0.0000000000 368.1765617509 0.6040967092 3.3506195099
0.5834342224 2.8510466307 0.0000000000 0.0000000000 0.0000000000 321.9534935340 0.6040967092 3.3506195099
0.6040967095 2.8506195099 0.0000000000 0.0000000000 0.0000000000 276.0446022796 0.6040967092 3.3506195099
0.6247591966 2.8510466307 0.0000000000 0.0000000000 0.0000000000 230.4161568229 0.6040967092 3.3506195099
0.6453863822 2.8523272634 0.0000000000 0.0000000000 0.0000000000 185.0330549569 0.6040967092 3.3506195099
0.6659430251 2.8544592201 0.0000000000 0.0000000000 0.0000000000 139.8588460369 0.6040967092 3.3506195099
0.6863940046 2.8574388582 0.0000000000 0.0000000000 0.0000000000 94.8551952843 0.6040967092 3.3506195099
0.7067043806 2.8612610873 0.0000000000 0.0000000000 0.0000000000 49.9822592363 0.6040967092 3.3506195099
0.7268394531 2.8659193770 0.0000000000 0.0000000000 0.0000000000 5.1972476580 0.6040967092 3.3506195099
0.7467648216 2.8714057688 0.0000000000 0.0000000000 0.0000000000 -39.5438018462 0.6040967092 3.3506195099
0.7664464441 2.8777108891 0.0000000000 0.0000000000 0.0000000000 -84.2903784578 0.6040967092 3.3506195099
0.7858506948 2.8848239660 0.0000000000 0.0000000000 0.0000000000 -129.0906359238 0.6040967092 3.3506195099
0.8049444218 2.8927328467 0.0000000000 0.0000000000 0.0000000000 -174.0056996549 0.6040967092 3.3506195099
0.8236950039 2.9014240191 0.0000000000 0.0000000000 0.0000000000 -219.0846582112 0.6040967092 3.3506195099
0.8420704060 2.9108826345 0.0000000000 0.0000000000 0.0000000000 -264.4136556723 0.6040967092 3.3506195099
0.8600392340 2.9210925329 0.0000000000 0.0000000000 0.0000000000 -310.0262967363 0.6040967092 3.3506195099
0.8775707885 2.9320362710 0.0000000000 0.0000000000 0.0000000000 -356.0752780263 0.6040967092 3.3506195099
0.8946351172 2.9436951515 0.0000000000 0.0000000000 0.0000000000 -402.5139451464 0.6040967092 3.3506195099
0.9112030658 2.9560492554 0.0000000000 0.0000000000 0.0000000000 -449.6968013726 0.6040967092 3.3506195099
0.9272463284 2.9690774760 0.0000000000 0.0000000000 0.0000000000 -497.2656764792 0.6040967092 3.3506195099
0.9427374953 2.9827575548 0.0000000000 0.0000000000 0.0000000000 -546.2072838378 0.6040967092 3.3506195099
1.1340011191 2.8206036899 0.0000000000 0.1909543934 0.1636751169 -540.4976121739 0.5842122149 3.3307332428
1.1538714651 2.8402667491 0.0000000000 0.1914030354 0.1426609959 -581.4855648628 0.5853926724 3.3294823071
1.1729502216 2.8606573616 0.0000000000 0.1922889714 0.1264038954 -623.2199340191 0.5865766094 3.3282747126
1.1912060331 2.8817508112 0.0000000000 0.1935929726 0.1123939590 -665.7822362128 0.5877576980 3.3271159500
1.2086087809 2.9035221131 0.0000000000 0.1953698360 0.0988692732 -709.2405523267 0.5889296998 3.3260121563
1.2251300660 2.9259455679 0.0000000000 0.1976799501 0.0850886269 -753.6447249098 0.5900869163 3.3249696248
1.2407434937 2.9489945571 0.0000000000 0.2005728084 0.0709090375 -799.0437895265 0.5912244406 3.3239945567
1.2554248314 2.9726414338 0.0000000000 0.2040934173 0.0563630914 -845.4970508370 0.5923382861 3.3230929046
1.2691520642 2.9968574611 0.0000000000 0.2082918197 0.0414669027 -893.0736911796 0.5934254130 3.3222702650
1.2819053626 3.0216127796 0.0000000000 0.2132266180 0.0261932191 -941.8459881704 0.5944836705 3.3215317974
1.2936669891 3.0468763874 0.0000000000 0.2189642808 0.0104959031 -991.8826075254 0.5955116774 3.3208821553
1.3044211697 3.0726161281 0.0000000000 0.2255778736 -0.0056705491 -1043.2441567363 0.5965086718 3.3203254242
1.3141539596 3.0987986813 0.0000000000 0.2331464762 -0.0223442309 -1095.9801299767 0.5974743551 3.3198650618
1.3228531198 3.1253895574 0.0000000000 0.2417549071 -0.0395546810 -1150.1259974901 0.5984087500 3.3195038408
1.3305080155 3.1523530963 0.0000000000 0.2514932144 -0.0573222945 -1205.6999595847 0.5993120813 3.3192437964
1.3371095372 3.1796524735 0.0000000000 0.2624557385 -0.0756571120 -1262.6994838754 0.6001846822 3.3190861785
1.3426500436 3.2072497124 0.0000000000 0.2747397782 -0.0945573277 -1321.0979012409 0.6010269239 3.3190314117
1.3471233242 3.2351057058 0.0000000000 0.2884439313 -0.1140079045 -1380.8412772012 0.6018391668 3.3190790625
1.3505245783 3.2631802468 0.0000000000 0.3036661643 -0.1339794373 -1441.8457022260 0.6026217304 3.3192278167
1.3528504089 3.2914320695 0.0000000000 0.3205016564 -0.1544272930 -1503.9951096110 0.6033748803 3.3194754649
1.3540988310 3.3198189005 0.0000000000 0.3390404746 -0.1752910469 -1567.1397141491 0.6040988310 3.3198189002
1.3542692911 3.3482975215 0.0000000000 0.3593651484 -0.1964942393 -1631.0951486725 0.6047937625 3.3202541255
1.3533626976 3.3768238449 0.0000000000 0.3815482246 -0.2179444831 -1695.6423542440 0.6054598497 3.3207762744
1.3513814588 3.4053530016 0.0000000000 0.4056498877 -0.2395339422 -1760.5282567469 0.6060973014 3.3213796442
1.3483295244 3.4338394440 0.0000000000 0.4317157332 -0.2611401868 -1825.4672408796 0.6067064048 3.3220577441
1.3442124269 3.4622370661 0.0000000000 0.4597747796 -0.2826274212 -1890.1434117477 0.6072875720 3.3228033605
1.3390373184 3.4904993427 0.0000000000 0.4898378036 -0.3038480597 -1954.2136111825 0.6078413843 3.3236086420
1.3328129996 3.5185794906 0.0000000000 0.5218960746 -0.3246446130 -2017.3111265775 0.6083686300 3.3244652065
1.3255499397 3.5464306547 0.0000000000 0.5559205552 -0.3448518266 -2079.0499919253 0.6088703354 3.3253642736
1.3172602855 3.5740061197 0.0000000000 0.5918616162 -0.3642989928 -2139.0297352092 0.6093477879 3.3262968230
1.3079578637 3.6012595466 0.0000000000 0.6296492862 -0.3828123447 -2196.8403797416 0.6098025523 3.3272537781
1.2976581774 3.6281452313 0.0000000000 0.6691940224 -0.4002174279 -2252.0674704050 0.6102364855 3.3282262129
1.2863784009 3.6546183789 0.0000000000 0.7103879499 -0.4163413510 -2304.2968818960 0.6106517501 3.3292055744
1.2741373760 3.6806353867 0.0000000000 0.7531064741 -0.4310148321 -2353.1191870592 0.6110508310 3.3301839153
1.2609556068 3.7061541262 0.0000000000 0.7972101485 -0.4440739919 -2398.1334213800 0.6114365541 3.3311541261
1.2468552479 3.7311342188 0.0000000000 0.8425466616 -0.4553618887 -2438.9501909097 0.6118120986 3.3321101613
1.2318600723 3.7555372982 0.0000000000 0.8889528218 -0.4647298181 -2475.1940827690 0.6121809916 3.3330472545
1.2159954098 3.7793272635 0.0000000000 0.9362564678 -0.4720384943 -2506.5058862332 0.6125470750 3.3339621242
1.1992880737 3.8024705305 0.0000000000 0.9842780262 -0.4771587167 -2532.5419264802 0.6129144619 3.3348531790
1.1817663729 3.8249363146 0.0000000000 1.0328328022 -0.4799738145 -2552.9863090001 0.6132875806 3.3357207561
1.1634605360 3.8466969482 0.0000000000 1.0817238559 -0.4803685177 -2567.4693942165 0.6136716322 3.3365673948
1.1222733060 3.8899157093 0.0000000000 1.1850382958 -0.4735061912 -2579.3951503912 0.6143121274 3.3381227763
1.0992867132 3.9111397387 0.0000000000 1.2390934878 -0.4654442208 -2574.6412776007 0.6145622848 3.3388266875
1.0754782976 3.9313610068 0.0000000000 1.2926619823 -0.4541105444 -2561.6049798561 0.6148187632 3.3395056247
1.0508844038 3.9505447427 0.0000000000 1.3454886338 -0.4394827058 -2540.1028334021 0.6150767923 3.3401582047
1.0255431993 3.9686591043 0.0000000000 1.3973212719 -0.4215587151 -2509.9927033581 0.6153320807 3.3407842455
0.9994942833 3.9856745468 0.0000000000 1.4479117022 -0.4003574399 -2471.1748897044 0.6155804965 3.3413840809
0.9727784062 4.0015636813 0.0000000000 1.4970164084 -0.3759177320 -2423.5925916586 0.6158178616 3.3419583678
0.9454373236 4.0163012287 0.0000000000 1.5443969150 -0.3482968543 -2367.2319095684 0.6160398820 3.3425079922
0.9175137390 4.0298639741 0.0000000000 1.5898200153 -0.3175691812 -2302.1218884233 0.6162421706 3.3430339790
0.8890513086 4.0422307160 0.0000000000 1.6330580232 -0.2838256306 -2228.3350137732 0.6164203308 3.3435373999
0.8600946789 4.0533822250 0.0000000000 1.6738892037 -0.2471739087 -2145.9883083624 0.6165700771 3.3440192937
0.8306895367 4.0633012184 0.0000000000 1.7120984602 -0.2077393301 -2055.2450169632 0.6166873686 3.3444806065
0.8008826511 4.0719723498 0.0000000000 1.7474782985 -0.1656658298 -1956.3167765319 0.6167685359 3.3449221503
0.7707218963 4.0793822075 0.0000000000 1.7798300453 -0.1211168501 -1849.4660975418 0.6168103898 3.3453445735
0.7402562478 4.0855193178 0.0000000000 1.8089652247 -0.0742758217 -1735.0088716458 0.6168103052 3.3457483402
0.7095357498 4.0903741538 0.0000000000 1.8347069005 -0.0253457523 -1613.3164984488 0.6167662765 3.3461337190
0.6786114567 4.0939391505 0.0000000000 1.8568908153 0.0254526171 -1484.8172653417 0.6166769478 3.3465007808
0.6475353505 4.0962087278 0.0000000000 1.8753665310 0.0778837424 -1349.9969144237 0.6165416200 3.3468494090
0.6163602417 4.0971793231 0.0000000000 1.8899993269 0.1316992930 -1209.3985835868 0.6163602419 3.3471793231
0.5851396583 4.0968494311 0.0000000000 1.9006735830 0.1866368634 -1063.6220342557 0.6161333891 3.3474901123
0.5539277269 4.0952196480 0.0000000000 1.9072971673 0.2424158742 -913.3214381488 0.6158622362 3.3477812783
0.5227790505 4.0922927147 0.0000000000 1.9098047538 0.2987355252 -759.2009836148 0.6155485241 3.3480522799
0.4917485835 4.0880735559 0.0000000000 1.9081581001 0.3552800398 -602.0086868738 0.6151945264 3.3483025784
0.4608915056 4.0825693116 0.0000000000 1.9023439591 0.4117301786 -442.5298795781 0.6148030124 3.3485316776
0.4302630938 4.0757893597 0.0000000000 1.8923730640 0.4677728260 -281.5812650148 0.6143772093 3.3487391603
0.3999185918 4.0677453328 0.0000000000 1.8782828926 0.5231013560 -120.0046331776 0.6139207601 3.3489247210
0.3699130774 4.0584511274 0.0000000000 1.8601426398 0.5774091078 41.3414603351 0.6134376795 3.3490881962
0.3403013254 4.0479229112 0.0000000000 1.8380557984 0.6303861043 201.5921893867 0.6129323035 3.3492295953
0.3111376670 4.0361791267 0.0000000000 1.8121584395 0.6817244147 359.8874306923 0.6124092357 3.3493491318
0.2824758451 4.0232404912 0.0000000000 1.7826167080 0.7311256460 515.3814288556 0.6118732869 3.3494472548
0.2543688644 4.0091299916 0.0000000000 1.7496235929 0.7783064096 667.2540037139 0.6113294094 3.3495246783
0.2268688377 3.9938728705 0.0000000000 1.7133919629 0.8230132487 814.7179046857 0.6107826247 3.3495824048
0.2000268264 3.9774965991 0.0000000000 1.6741547759 0.8650223126 957.0267903640 0.6102379451 3.3496217405
0.1738926777 3.9600308356 0.0000000000 1.6321665841 0.9041330835 1093.4836256491 0.6097002894 3.3496442978
0.1485148580 3.9415073668 0.0000000000 1.5877023418 0.9401651909 1223.4488213124 0.6091743927 3.3496519848
0.1239402852 3.9219600311 0.0000000000 1.5410532385 0.9729608527 1346.3472664012 0.6086647138 3.3496469801
0.1002141655 3.9014246264 0.0000000000 1.4925215251 1.0023899494 1461.6738460497 0.6081753444 3.3496316936
0.0554781742 3.8575417662 0.0000000000 1.3910475602 1.0507879973 1667.9651235805 0.6072711074 3.3495805877
0.0345486118 3.8342747188 0.0000000000 1.3387289326 1.0696587234 1758.3001075552 0.6068616631 3.3495502906
0.0146278476 3.8101800848 0.0000000000 1.2857693762 1.0849645996 1839.8071794323 0.6064832298 3.3495205505
-0.0042498324 3.7853016434 0.0000000000 1.2324729315 1.0967332095 1912.3706337311 0.6061367057 3.3494940321
-0.0220526304 3.7596843859 0.0000000000 1.1791356203 1.1050199790 1975.9536631585 0.6058222284 3.3494732675
-0.0387512807 3.7333743823 0.0000000000 1.1260426890 1.1099068836 2030.5967771633 0.6055391852 3.3494605957
-0.0543190539 3.7064186579 0.0000000000 1.0734659422 1.1115011986 2076.4155239726 0.6052862596 3.3494581133
-0.0687317276 3.6788650774 0.0000000000 1.0216611723 1.1099341562 2113.5975493501 0.6050615089 3.3494676360
-0.0819675290 3.6507622413 0.0000000000 0.9708656719 1.1053594019 2142.3989708689 0.6048624661 3.3494906731
-0.0940070593 3.6221593915 0.0000000000 0.9212958251 1.0979511579 2163.1399753245 0.6046862569 3.3495284139
-0.1048332080 3.5931063264 0.0000000000 0.8731448005 1.0879020122 2176.1994966395 0.6045297233 3.3495817248
-0.1144310688 3.5636533240 0.0000000000 0.8265804107 1.0754202652 2182.0088187503 0.6043895431 3.3496511560
-0.1227878621 3.5338510702 0.0000000000 0.7817432397 1.0607267987 2181.0439826618 0.6042623374 3.3497369551
-0.1298928734 3.5037505903 0.0000000000 0.7387451736 1.0440514687 2173.8169595608 0.6041447606 3.3498390840
-0.1357374084 3.4734031815 0.0000000000 0.6976684811 1.0256290790 2160.8656735610 0.6040335692 3.3499572391
-0.1403147662 3.4428603446 0.0000000000 0.6585655842 1.0056950420 2142.7431037262 0.6039256686 3.3500908714
-0.1436202308 3.4121737160 0.0000000000 0.6214596407 0.9844809107 2120.0058516162 0.6038181390 3.3502392071
-0.1456510742 3.3813949978 0.0000000000 0.5863460424 0.9622100691 2093.2027149725 0.6037082446 3.3504012674
-0.1464065715 3.3505758890 0.0000000000 0.5531948902 0.9390939805 2062.8639235937 0.6035934285 3.3505758893
-0.1458880191 3.3197680157 0.0000000000 0.5219543213 0.9153292438 2029.4916533332 0.6034712997 3.3507617467
-0.1440987563 3.2890228635 0.0000000000 0.4925540883 0.8910948020 1993.5520374922 0.6033396134 3.3509573729
-0.1410441857 3.2583917099 0.0000000000 0.4649081812 0.8665469378 1955.4681188582 0.6031962491 3.3511611837
-0.1367317916 3.2279255591 0.0000000000 0.4389156842 0.8418096672 1915.6128359875 0.6030391859 3.3513715021
-0.1311711584 3.1976750766 0.0000000000 0.4144623965 0.8169663484 1874.3032420465 0.6028664755 3.3515865836
-0.1243739880 3.1676905261 0.0000000000 0.3914320315 0.7920799271 1831.8032567597 0.6026762113 3.3518046418
-0.1163541180 3.1380217063 0.0000000000 0.3697376961 0.7672886626 1788.3484778957 0.6024664937 3.3520238748
-0.1071275399 3.1087178889 0.0000000000 0.3493661162 0.7429829144 1744.2003069024 0.6022353912 3.3522424912