 TITLE = "Tecplot data"
 VARIABLES = "X", "Y", "Z" "U", "V", "p", "dispX", "dispY"
 ZONE SOLUTIONTIME=33.900000, NODES=26114 , ELEMENTS=25916, DATAPACKING=POINT, ZONETYPE=FEQUADRILATERAL
0.3879169080 0.3938932663 0.0000000000 0.0000000000 0.0000000000 -479.9430626683 0.0343635174 0.0403398756
0.3879169083 -0.3132135147 0.0000000000 0.0000000000 0.0000000000 -313.7873335598 0.0343635174 0.0403398756
-0.3191898733 0.3938932661 0.0000000000 0.0000000000 0.0000000000 -295.3952394493 0.0343635174 0.0403398756
-0.3191898730 -0.3132135151 0.0000000000 0.0000000000 0.0000000000 -49.4175373474 0.0343635174 0.0403398756
0.5641379730 0.5707533604 0.0000000000 0.6258654466 -0.0332371523 -451.3531028189 0.0338078872 0.0404232744
0.5658765353 -0.4882853146 0.0000000000 -0.0006759827 -0.0044347569 -306.6778922816 0.0355464491 0.0420447709
-0.4944037243 0.5721401479 0.0000000000 0.9352057934 0.5158897395 -43.6422316012 0.0359263618 0.0418100622
-0.4963522748 -0.4892849827 0.0000000000 0.7956708969 -0.4648499427 110.4326106967 0.0339778108 0.0410451035
1.0956564784 1.1016101939 0.0000000000 1.1930146601 -0.0936247019 -303.7276686004 0.0349963067 0.0409500220
1.0949389479 -1.0187886099 0.0000000000 1.2826646208 -0.0652711798 -206.3204833011 0.0342787753 0.0418715611
-1.0226268556 1.1055995857 0.0000000000 0.9706626904 0.1693007978 26.2410941566 0.0380333165 0.0449394142
-1.0277662923 -1.0170333214 0.0000000000 0.9249306410 -0.1681487914 103.0220224936 0.0328938789 0.0436268509
4.2364961449 3.3360862211 0.0000000000 1.0329219246 0.0026571155 8.9756717616 0.0364961449 0.0360862211
4.2275357716 -3.2639761420 0.0000000000 1.0011010899 -0.0300240965 10.4086328251 0.0275357716 0.0360238580
20.0000000000 4.7000000000 0.0000000000 1.0062659624 -0.0123196456 -0.0241860869 0.0000000000 0.0000000000
20.0000000000 -4.7000000000 0.0000000000 1.0032012059 0.0104221019 0.0372678852 0.0000000000 0.0000000000
-10.0000000000 15.0000000000 0.0000000000 1.0000000000 0.0000000000 7.3315864446 0.0000000000 0.0000000000
20.0000000000 15.0000000000 0.0000000000 1.0030918663 0.0000000000 0.0005541338 0.0000000000 0.0000000000
20.0000000000 -15.0000000000 0.0000000000 1.0039230751 0.0000000000 -0.0003552508 0.0000000000 0.0000000000
-10.0000000000 -15.0000000000 0.0000000000 1.0000000000 0.0000000000 21.7457513205 0.0000000000 0.0000000000
0.4008894536 -0.2997464930 0.0000000000 0.0000000000 0.0000000000 -315.0761710124 0.0343635174 0.0403398756
0.4133493792 -0.2858038297 0.0000000000 0.0000000000 0.0000000000 -316.2746382370 0.0343635174 0.0403398756
0.4252792589 -0.2714050250 0.0000000000 0.0000000000 0.0000000000 -318.0361645785 0.0343635174 0.0403398756
0.4366624075 -0.2565702169 0.0000000000 0.0000000000 0.0000000000 -320.0212693857 0.0343635174 0.0403398756
0.4474829048 -0.2413201531 0.0000000000 0.0000000000 0.0000000000 -322.3797847253 0.0343635174 0.0403398756
0.4577256172 -0.2256761624 0.0000000000 0.0000000000 0.0000000000 -325.0244760141 0.0343635174 0.0403398756
0.4673762195 -0.2096601241 0.0000000000 0.0000000000 0.0000000000 -327.9765568315 0.0343635174 0.0403398756
0.4764212143 -0.1932944382 0.0000000000 0.0000000000 0.0000000000 -331.2078586939 0.0343635174 0.0403398756
0.4848479515 -0.1766019937 0.0000000000 0.0000000000 0.0000000000 -334.7157255194 0.0343635174 0.0403398756
0.4926446455 -0.1596061363 0.0000000000 0.0000000000 0.0000000000 -338.4888931990 0.0343635174 0.0403398756
0.4998003918 -0.1423306363 0.0000000000 0.0000000000 0.0000000000 -342.5229450327 0.0343635174 0.0403398756
0.5063051827 -0.1247996551 0.0000000000 0.0000000000 0.0000000000 -346.8118252714 0.0343635174 0.0403398756
0.5121499204 -0.1070377113 0.0000000000 0.0000000000 0.0000000000 -351.3500103418 0.0343635174 0.0403398756
0.5173264306 -0.0890696467 0.0000000000 0.0000000000 0.0000000000 -356.1292993110 0.0343635174 0.0403398756
0.5218274736 -0.0709205911 0.0000000000 0.0000000000 0.0000000000 -361.1380224227 0.0343635174 0.0403398756
0.5256467541 -0.0526159277 0.0000000000 0.0000000000 0.0000000000 -366.3591380447 0.0343635174 0.0403398756
0.5287789306 -0.0341812572 0.0000000000 0.0000000000 0.0000000000 -371.7691183819 0.0343635174 0.0403398756
0.5312196224 -0.0156423622 0.0000000000 0.0000000000 0.0000000000 -377.3369095811 0.0343635174 0.0403398756
0.5329654160 0.0029748291 0.0000000000 0.0000000000 0.0000000000 -383.0235431087 0.0343635174 0.0403398756
0.5340138698 0.0216442787 0.0000000000 0.0000000000 0.0000000000 -388.7822911244 0.0343635174 0.0403398756
0.5343635174 0.0403398758 0.0000000000 0.0000000000 0.0000000000 -394.5596271200 0.0343635174 0.0403398756
0.5340138698 0.0590354730 0.0000000000 0.0000000000 0.0000000000 -400.2967640004 0.0343635174 0.0403398756
0.5329654160 0.0777049226 0.0000000000 0.0000000000 0.0000000000 -405.9323595915 0.0343635174 0.0403398756
0.5312196223 0.0963221139 0.0000000000 0.0000000000 0.0000000000 -411.4042005505 0.0343635174 0.0403398756
0.5287789305 0.1148610089 0.0000000000 0.0000000000 0.0000000000 -416.6567143487 0.0343635174 0.0403398756
0.5256467540 0.1332956794 0.0000000000 0.0000000000 0.0000000000 -421.6291285288 0.0343635174 0.0403398756
0.5218274735 0.1516003428 0.0000000000 0.0000000000 0.0000000000 -426.3131143154 0.0343635174 0.0403398756
0.5173264305 0.1697493983 0.0000000000 0.0000000000 0.0000000000 -430.5606138405 0.0343635174 0.0403398756
0.5121499203 0.1877174630 0.0000000000 0.0000000000 0.0000000000 -434.7799600219 0.0343635174 0.0403398756
0.5063051825 0.2054794067 0.0000000000 0.0000000000 0.0000000000 -437.5134377524 0.0343635174 0.0403398756
0.4998003917 0.2230103879 0.0000000000 0.0000000000 0.0000000000 -443.3419796317 0.0343635174 0.0403398756
0.4926446453 0.2402858879 0.0000000000 0.0000000000 0.0000000000 -444.4411656703 0.0343635174 0.0403398756
0.4848479513 0.2572817453 0.0000000000 0.0000000000 0.0000000000 -447.1078596573 0.0343635174 0.0403398756
0.4764212141 0.2739741899 0.0000000000 0.0000000000 0.0000000000 -449.6750716082 0.0343635174 0.0403398756
0.4673762193 0.2903398757 0.0000000000 0.0000000000 0.0000000000 -452.1702153437 0.0343635174 0.0403398756
0.4577256170 0.3063559140 0.0000000000 0.0000000000 0.0000000000 -454.7113732541 0.0343635174 0.0403398756
0.4474829045 0.3219999047 0.0000000000 0.0000000000 0.0000000000 -457.4610597940 0.0343635174 0.0403398756
0.4366624073 0.3372499685 0.0000000000 0.0000000000 0.0000000000 -460.5588769492 0.0343635174 0.0403398756
0.4252792586 0.3520847766 0.0000000000 0.0000000000 0.0000000000 -464.2107907398 0.0343635174 0.0403398756
0.4133493790 0.3664835813 0.0000000000 0.0000000000 0.0000000000 -468.5414860467 0.0343635174 0.0403398756
0.4008894533 0.3804262446 0.0000000000 0.0000000000 0.0000000000 -473.7427536486 0.0343635174 0.0403398756
0.3730043032 0.4082018310 0.0000000000 0.0000000000 0.0000000000 -488.0435346649 0.0343635174 0.0403398756
0.3575131363 0.4218819098 0.0000000000 0.0000000000 0.0000000000 -497.6827132012 0.0343635174 0.0403398756
0.3414698737 0.4349101304 0.0000000000 0.0000000000 0.0000000000 -508.8421933926 0.0343635174 0.0403398756
0.3249019251 0.4472642343 0.0000000000 0.0000000000 0.0000000000 -521.6971603394 0.0343635174 0.0403398756
0.3078375964 0.4589231148 0.0000000000 0.0000000000 0.0000000000 -536.3727200949 0.0343635174 0.0403398756
0.2903060419 0.4698668529 0.0000000000 0.0000000000 0.0000000000 -552.9991365803 0.0343635174 0.0403398756
0.2723372139 0.4800767513 0.0000000000 0.0000000000 0.0000000000 -571.6763161396 0.0343635174 0.0403398756
0.2539618118 0.4895353666 0.0000000000 0.0000000000 0.0000000000 -592.4408322928 0.0343635174 0.0403398756
0.2352112297 0.4982265390 0.0000000000 0.0000000000 0.0000000000 -615.2459791249 0.0343635174 0.0403398756
0.2161175026 0.5061354197 0.0000000000 0.0000000000 0.0000000000 -639.9404613207 0.0343635174 0.0403398756
0.1967132519 0.5132484965 0.0000000000 0.0000000000 0.0000000000 -666.2582247140 0.0343635174 0.0403398756
0.1770316295 0.5195536169 0.0000000000 0.0000000000 0.0000000000 -693.8170978649 0.0343635174 0.0403398756
0.1571062609 0.5250400086 0.0000000000 0.0000000000 0.0000000000 -722.1238619121 0.0343635174 0.0403398756
0.1369711884 0.5296982983 0.0000000000 0.0000000000 0.0000000000 -750.5846108856 0.0343635174 0.0403398756
0.1166608125 0.5335205274 0.0000000000 0.0000000000 0.0000000000 -778.5491119980 0.0343635174 0.0403398756
0.0962098330 0.5365001655 0.0000000000 0.0000000000 0.0000000000 -805.2573801444 0.0343635174 0.0403398756
0.0756531901 0.5386321221 0.0000000000 0.0000000000 0.0000000000 -830.1322649764 0.0343635174 0.0403398756
0.0550260044 0.5399127548 0.0000000000 0.0000000000 0.0000000000 -852.0340753609 0.0343635174 0.0403398756
0.0343635173 0.5403398756 0.0000000000 0.0000000000 0.0000000000 -871.4319015871 0.0343635174 0.0403398756
0.0137010302 0.5399127548 0.0000000000 0.0000000000 0.0000000000 -886.3394080595 0.0343635174 0.0403398756
-0.0069261554 0.5386321221 0.0000000000 0.0000000000 0.0000000000 -920.8486083076 0.0343635174 0.0403398756
-0.0274827983 0.5365001655 0.0000000000 0.0000000000 0.0000000000 -891.6831255351 0.0343635174 0.0403398756
-0.0479337778 0.5335205273 0.0000000000 0.0000000000 0.0000000000 -902.7151837459 0.0343635174 0.0403398756
-0.0682441538 0.5296982983 0.0000000000 0.0000000000 0.0000000000 -894.0334477406 0.0343635174 0.0403398756
-0.0883792263 0.5250400086 0.0000000000 0.0000000000 0.0000000000 -883.5866645157 0.0343635174 0.0403398756
-0.1083045948 0.5195536168 0.0000000000 0.0000000000 0.0000000000 -866.2602552013 0.0343635174 0.0403398756
-0.1279862173 0.5132484964 0.0000000000 0.0000000000 0.0000000000 -843.5217243806 0.0343635174 0.0403398756
-0.1473904680 0.5061354196 0.0000000000 0.0000000000 0.0000000000 -815.1100941285 0.0343635174 0.0403398756
-0.1664841950 0.4982265389 0.0000000000 0.0000000000 0.0000000000 -781.3359315322 0.0343635174 0.0403398756
-0.1852347771 0.4895353665 0.0000000000 0.0000000000 0.0000000000 -742.4390974487 0.0343635174 0.0403398756
-0.2036101792 0.4800767512 0.0000000000 0.0000000000 0.0000000000 -698.7555036075 0.0343635174 0.0403398756
-0.2215790072 0.4698668528 0.0000000000 0.0000000000 0.0000000000 -650.6618527276 0.0343635174 0.0403398756
-0.2391105618 0.4589231147 0.0000000000 0.0000000000 0.0000000000 -598.5814813822 0.0343635174 0.0403398756
-0.2561748904 0.4472642342 0.0000000000 0.0000000000 0.0000000000 -542.9738777075 0.0343635174 0.0403398756
-0.2727428390 0.4349101302 0.0000000000 0.0000000000 0.0000000000 -484.3290842500 0.0343635174 0.0403398756
-0.2887861016 0.4218819096 0.0000000000 0.0000000000 0.0000000000 -423.1611044319 0.0343635174 0.0403398756
-0.3042772685 0.4082018309 0.0000000000 0.0000000000 0.0000000000 -360.0018619219 0.0343635174 0.0403398756
-0.3334984380 0.3789806613 0.0000000000 0.0000000000 0.0000000000 -229.8913353549 0.0343635174 0.0403398756
-0.3471785168 0.3634894944 0.0000000000 0.0000000000 0.0000000000 -164.0409539577 0.0343635174 0.0403398756
-0.3602067374 0.3474462319 0.0000000000 0.0000000000 0.0000000000 -98.3904086436 0.0343635174 0.0403398756
-0.3725608413 0.3308782832 0.0000000000 0.0000000000 0.0000000000 -33.4766929822 0.0343635174 0.0403398756
-0.3842197218 0.3138139546 0.0000000000 0.0000000000 0.0000000000 30.1769572416 0.0343635174 0.0403398756
-0.3951634598 0.2962824000 0.0000000000 0.0000000000 0.0000000000 92.0651277785 0.0343635174 0.0403398756
-0.4053733583 0.2783135720 0.0000000000 0.0000000000 0.0000000000 151.7039609263 0.0343635174 0.0403398756
-0.4148319736 0.2599381699 0.0000000000 0.0000000000 0.0000000000 208.6346181996 0.0343635174 0.0403398756
-0.4235231460 0.2411875878 0.0000000000 0.0000000000 0.0000000000 262.4265137389 0.0343635174 0.0403398756
-0.4314320267 0.2220938607 0.0000000000 0.0000000000 0.0000000000 312.6803457083 0.0343635174 0.0403398756
-0.4385451035 0.2026896101 0.0000000000 0.0000000000 0.0000000000 359.0309286028 0.0343635174 0.0403398756
-0.4448502239 0.1830079876 0.0000000000 0.0000000000 0.0000000000 401.1498133235 0.0343635174 0.0403398756
-0.4503366156 0.1630826190 0.0000000000 0.0000000000 0.0000000000 438.7476735756 0.0343635174 0.0403398756
-0.4549949053 0.1429475465 0.0000000000 0.0000000000 0.0000000000 471.5764288046 0.0343635174 0.0403398756
-0.4588171343 0.1226371706 0.0000000000 0.0000000000 0.0000000000 499.4310850501 0.0343635174 0.0403398756
-0.4617967725 0.1021861911 0.0000000000 0.0000000000 0.0000000000 522.1512590785 0.0343635174 0.0403398756
-0.4639287291 0.0816295482 0.0000000000 0.0000000000 0.0000000000 539.6223933554 0.0343635174 0.0403398756
-0.4652093618 0.0610023626 0.0000000000 0.0000000000 0.0000000000 551.7766030943 0.0343635174 0.0403398756
-0.4656364826 0.0403398754 0.0000000000 0.0000000000 0.0000000000 558.5932347496 0.0343635174 0.0403398756
-0.4652093618 0.0196773883 0.0000000000 0.0000000000 0.0000000000 560.0989661059 0.0343635174 0.0403398756
-0.4639287291 -0.0009497973 0.0000000000 0.0000000000 0.0000000000 556.3677539646 0.0343635174 0.0403398756
-0.4617967724 -0.0215064402 0.0000000000 0.0000000000 0.0000000000 547.5200469986 0.0343635174 0.0403398756
-0.4588171342 -0.0419574197 0.0000000000 0.0000000000 0.0000000000 533.7223479601 0.0343635174 0.0403398756
-0.4549949052 -0.0622677957 0.0000000000 0.0000000000 0.0000000000 515.1850834408 0.0343635174 0.0403398756
-0.4503366155 -0.0824028681 0.0000000000 0.0000000000 0.0000000000 492.1626006506 0.0343635174 0.0403398756
-0.4448502237 -0.1023282367 0.0000000000 0.0000000000 0.0000000000 464.9480894633 0.0343635174 0.0403398756
-0.4385451034 -0.1220098592 0.0000000000 0.0000000000 0.0000000000 433.8770055482 0.0343635174 0.0403398756
-0.4314320265 -0.1414141099 0.0000000000 0.0000000000 0.0000000000 399.3131847829 0.0343635174 0.0403398756
-0.4235231458 -0.1605078369 0.0000000000 0.0000000000 0.0000000000 361.6670819311 0.0343635174 0.0403398756
-0.4148319734 -0.1792584190 0.0000000000 0.0000000000 0.0000000000 321.3501006605 0.0343635174 0.0403398756
-0.4053733581 -0.1976338211 0.0000000000 0.0000000000 0.0000000000 278.8551238878 0.0343635174 0.0403398756
-0.3951634596 -0.2156026491 0.0000000000 0.0000000000 0.0000000000 234.5766278760 0.0343635174 0.0403398756
-0.3842197216 -0.2331342036 0.0000000000 0.0000000000 0.0000000000 189.1855643958 0.0343635174 0.0403398756
-0.3725608411 -0.2501985323 0.0000000000 0.0000000000 0.0000000000 142.7683844628 0.0343635174 0.0403398756
-0.3602067371 -0.2667664809 0.0000000000 0.0000000000 0.0000000000 96.9502789172 0.0343635174 0.0403398756
-0.3471785165 -0.2828097435 0.0000000000 0.0000000000 0.0000000000 50.0301684728 0.0343635174 0.0403398756
-0.3334984377 -0.2983009104 0.0000000000 0.0000000000 0.0000000000 59.0196539355 0.0343635174 0.0403398756
-0.3042772682 -0.3275220799 0.0000000000 0.0000000000 0.0000000000 45.2465195986 0.0343635174 0.0403398756
-0.2887861013 -0.3412021586 0.0000000000 0.0000000000 0.0000000000 -144.4160073150 0.0343635174 0.0403398756
-0.2727428387 -0.3542303792 0.0000000000 0.0000000000 0.0000000000 -154.9191965253 0.0343635174 0.0403398756
-0.2561748901 -0.3665844832 0.0000000000 0.0000000000 0.0000000000 -193.7121692396 0.0343635174 0.0403398756
-0.2391105614 -0.3782433636 0.0000000000 0.0000000000 0.0000000000 -227.7566513600 0.0343635174 0.0403398756
-0.2215790069 -0.3891871017 0.0000000000 0.0000000000 0.0000000000 -255.7148042941 0.0343635174 0.0403398756
-0.2036101789 -0.3993970001 0.0000000000 0.0000000000 0.0000000000 -281.6221750938 0.0343635174 0.0403398756
-0.1852347768 -0.4088556154 0.0000000000 0.0000000000 0.0000000000 -303.0414678822 0.0343635174 0.0403398756
-0.1664841946 -0.4175467878 0.0000000000 0.0000000000 0.0000000000 -321.5716156531 0.0343635174 0.0403398756
-0.1473904676 -0.4254556685 0.0000000000 0.0000000000 0.0000000000 -336.3076785021 0.0343635174 0.0403398756
-0.1279862169 -0.4325687453 0.0000000000 0.0000000000 0.0000000000 -347.9853627746 0.0343635174 0.0403398756
-0.1083045944 -0.4388738657 0.0000000000 0.0000000000 0.0000000000 -356.4725141390 0.0343635174 0.0403398756
-0.0883792259 -0.4443602574 0.0000000000 0.0000000000 0.0000000000 -362.2370513068 0.0343635174 0.0403398756
-0.0682441534 -0.4490185471 0.0000000000 0.0000000000 0.0000000000 -365.4761954840 0.0343635174 0.0403398756
-0.0479337774 -0.4528407761 0.0000000000 0.0000000000 0.0000000000 -366.5915818929 0.0343635174 0.0403398756
-0.0274827979 -0.4558204143 0.0000000000 0.0000000000 0.0000000000 -365.9241727649 0.0343635174 0.0403398756
-0.0069261550 -0.4579523709 0.0000000000 0.0000000000 0.0000000000 -363.7798209897 0.0343635174 0.0403398756
0.0137010306 -0.4592330036 0.0000000000 0.0000000000 0.0000000000 -360.7391082398 0.0343635174 0.0403398756
0.0343635177 -0.4596601244 0.0000000000 0.0000000000 0.0000000000 -356.2939147625 0.0343635174 0.0403398756
0.0550260049 -0.4592330035 0.0000000000 0.0000000000 0.0000000000 -353.2114990599 0.0343635174 0.0403398756
0.0756531905 -0.4579523708 0.0000000000 0.0000000000 0.0000000000 -347.6443429980 0.0343635174 0.0403398756
0.0962098334 -0.4558204142 0.0000000000 0.0000000000 0.0000000000 -343.1393805571 0.0343635174 0.0403398756
0.1166608129 -0.4528407760 0.0000000000 0.0000000000 0.0000000000 -338.4866019768 0.0343635174 0.0403398756
0.1369711888 -0.4490185470 0.0000000000 0.0000000000 0.0000000000 -334.2698090896 0.0343635174 0.0403398756
0.1571062613 -0.4443602573 0.0000000000 0.0000000000 0.0000000000 -330.3490399470 0.0343635174 0.0403398756
0.1770316299 -0.4388738655 0.0000000000 0.0000000000 0.0000000000 -326.8495675003 0.0343635174 0.0403398756
0.1967132523 -0.4325687451 0.0000000000 0.0000000000 0.0000000000 -323.7737123477 0.0343635174 0.0403398756
0.2161175030 -0.4254556683 0.0000000000 0.0000000000 0.0000000000 -321.1315399993 0.0343635174 0.0403398756
0.2352112301 -0.4175467876 0.0000000000 0.0000000000 0.0000000000 -318.9081511235 0.0343635174 0.0403398756
0.2539618121 -0.4088556152 0.0000000000 0.0000000000 0.0000000000 -317.0757308915 0.0343635174 0.0403398756
0.2723372142 -0.3993969998 0.0000000000 0.0000000000 0.0000000000 -315.6051632224 0.0343635174 0.0403398756
0.2903060423 -0.3891871014 0.0000000000 0.0000000000 0.0000000000 -314.4541903364 0.0343635174 0.0403398756
0.3078375968 -0.3782433633 0.0000000000 0.0000000000 0.0000000000 -313.6157674189 0.0343635174 0.0403398756
0.3249019254 -0.3665844828 0.0000000000 0.0000000000 0.0000000000 -313.0363546817 0.0343635174 0.0403398756
0.3414698740 -0.3542303788 0.0000000000 0.0000000000 0.0000000000 -312.8056617291 0.0343635174 0.0403398756
0.3575131366 -0.3412021582 0.0000000000 0.0000000000 0.0000000000 -312.7627339965 0.0343635174 0.0403398756
0.3730043035 -0.3275220795 0.0000000000 0.0000000000 0.0000000000 -313.3046125165 0.0343635174 0.0403398756
0.5852809694 -0.4680876550 0.0000000000 -0.0211975442 -0.0030265021 -307.6532478651 0.0354920652 0.0420418979
0.6039201177 -0.4471381856 0.0000000000 -0.0349321855 -0.0026269932 -308.9502820567 0.0354413250 0.0420773725
0.6217639705 -0.4254923864 0.0000000000 -0.0432021652 -0.0030310448 -310.6206637516 0.0353903583 0.0421249646
0.6387843941 -0.4031898749 0.0000000000 -0.0474747624 -0.0039026127 -312.6730786748 0.0353360590 0.0421752639
0.6549566226 -0.3802659712 0.0000000000 -0.0491751435 -0.0048179764 -315.1004886716 0.0352775416 0.0422240720
0.6702580619 -0.3567547902 0.0000000000 -0.0495264061 -0.0053406503 -317.8934996254 0.0352149122 0.0422692668
0.6846677041 -0.3326903009 0.0000000000 -0.0494605626 -0.0050827348 -321.0483790086 0.0351486510 0.0423096987
0.6981658883 -0.3081067410 0.0000000000 -0.0496017109 -0.0037424358 -324.5699867258 0.0350793429 0.0423447298
0.7107342208 -0.2830387939 0.0000000000 -0.0503005276 -0.0011181790 -328.4706667605 0.0350075697 0.0423740100
0.7223555686 -0.2575216631 0.0000000000 -0.0516918453 0.0028935958 -332.7670662657 0.0349338765 0.0423973548
0.7330140830 -0.2315910921 0.0000000000 -0.0537537828 0.0083093338 -337.4762951680 0.0348587714 0.0424146758
0.7426952299 -0.2052833554 0.0000000000 -0.0563576528 0.0150724591 -342.6120552277 0.0347827321 0.0424259407
0.7513858169 -0.1786352310 0.0000000000 -0.0593062263 0.0230675373 -348.1808894908 0.0347062125 0.0424311494
0.7590740156 -0.1516839631 0.0000000000 -0.0623620922 0.0321329849 -354.1785769678 0.0346296458 0.0424303203
0.7657493791 -0.1244672193 0.0000000000 -0.0652688943 0.0420717190 -360.5867653501 0.0345534449 0.0424234808
0.7714028578 -0.0970230438 0.0000000000 -0.0677678036 0.0526596750 -367.3700517718 0.0344780028 0.0424106612
0.7760268135 -0.0693898079 0.0000000000 -0.0696108267 0.0636525062 -374.4738139642 0.0344036938 0.0423918914
0.7796150329 -0.0416061589 0.0000000000 -0.0705718927 0.0747910245 -381.8231344418 0.0343308754 0.0423671978
0.7821627392 -0.0137109661 0.0000000000 -0.0704561993 0.0858060473 -389.3231399090 0.0342598913 0.0423366037
0.7836666024 0.0142567344 0.0000000000 -0.0691079716 0.0964232481 -396.8609953325 0.0341910738 0.0423001298
0.7841247468 0.0422577982 0.0000000000 -0.0664165476 0.1063684160 -404.3096526531 0.0341247468 0.0422577979
0.7835367560 0.0702530320 0.0000000000 -0.0623205203 0.1153732688 -411.5332721211 0.0340612274 0.0422096360
0.7819036760 0.0982032562 0.0000000000 -0.0568095319 0.1231816900 -418.3940327161 0.0340008281 0.0421556857
0.7792280163 0.1260693684 0.0000000000 -0.0499232105 0.1295560293 -424.7598564160 0.0339438589 0.0420960110
0.7755137507 0.1538124078 0.0000000000 -0.0417466472 0.1342829596 -430.5124209157 0.0338906310 0.0420307080
0.7707663152 0.1813936201 0.0000000000 -0.0324016585 0.1371783345 -435.5547551017 0.0338414604 0.0419599145
0.7649926064 0.2087745206 0.0000000000 -0.0220327253 0.1380905861 -439.8177198579 0.0337966723 0.0418838199
0.7582009748 0.2359169568 0.0000000000 -0.0107856921 0.1369024436 -443.2647792813 0.0337566051 0.0418026727
0.7504012154 0.2627831679 0.0000000000 0.0012243488 0.1335312001 -445.8946596665 0.0337216112 0.0417167869
0.7416045523 0.2893358430 0.0000000000 0.0139624246 0.1279284748 -447.7417707153 0.0336920546 0.0416265463
0.7318236145 0.3155381750 0.0000000000 0.0275503913 0.1200815492 -448.8746142024 0.0336683031 0.0415324066
0.7210724037 0.3413539131 0.0000000000 0.0423825948 0.1100199051 -449.3927418340 0.0336507119 0.0414348947
0.7093662485 0.3667474103 0.0000000000 0.0592839427 0.0978319469 -449.4228510994 0.0336395976 0.0413346058
0.6967217449 0.3916836654 0.0000000000 0.0796852241 0.0836959950 -449.1138709818 0.0336351999 0.0412321941
0.6831566845 0.4161283562 0.0000000000 0.1057384769 0.0679232741 -448.6294041620 0.0336376318 0.0411283561
0.6686899766 0.4400478607 0.0000000000 0.1402439392 0.0509979115 -448.1351333326 0.0336468273 0.0410238032
0.6533415832 0.4634092684 0.0000000000 0.1862662948 0.0335869675 -447.7813878831 0.0336625025 0.0409192247
0.6371324827 0.4861803971 0.0000000000 0.2464310922 0.0164966333 -447.6874158171 0.0336841479 0.0408152578
0.6200846536 0.5083298518 0.0000000000 0.3220833618 0.0005761540 -447.9382700363 0.0337110419 0.0407125003
0.6022209854 0.5298272103 0.0000000000 0.4126324693 -0.0133973244 -448.5991058050 0.0337421932 0.0406116517
0.5835647747 0.5506435915 0.0000000000 0.5153733288 -0.0248103443 -449.7342266113 0.0337758709 0.0405140381
0.5418307812 0.5920999679 0.0000000000 0.7500823249 -0.0390260474 -453.9980131113 0.0338696025 0.0403070348
0.5186602477 0.6125217398 0.0000000000 0.8698720109 -0.0409360628 -457.2740766035 0.0339358194 0.0402086886
0.4946673857 0.6319775091 0.0000000000 0.9788970112 -0.0394473765 -461.1688726825 0.0340078512 0.0401221270
0.4698931670 0.6504323105 0.0000000000 1.0730734441 -0.0350672211 -465.5646899494 0.0340855555 0.0400457725
0.4443793265 0.6678536779 0.0000000000 1.1506367648 -0.0283812201 -470.3080970539 0.0341682080 0.0399788192
0.4181688375 0.6842111829 0.0000000000 1.2118781670 -0.0199158183 -475.2556908137 0.0342550508 0.0399207170
0.3913059375 0.6994764543 0.0000000000 1.2585471672 -0.0100615928 -480.2854748936 0.0343453929 0.0398711409
0.3638360403 0.7136232330 0.0000000000 1.2931569097 0.0009508970 -485.2936173359 0.0344385987 0.0398299965
0.3358056253 0.7266273708 0.0000000000 1.3183800917 0.0130307977 -490.1833932683 0.0345340569 0.0397973758
0.3072621421 0.7384667958 0.0000000000 1.3366347466 0.0261834666 -494.8521832424 0.0346311642 0.0397734797
0.2782539304 0.7491214758 0.0000000000 1.3498721527 0.0404632153 -499.1809003261 0.0347293286 0.0397585445
0.2488301484 0.7585733960 0.0000000000 1.3595248172 0.0559343240 -503.0284386789 0.0348279803 0.0397527841
0.2190406982 0.7668065510 0.0000000000 1.3665540408 0.0726446434 -506.2316444583 0.0349265829 0.0397563515
0.1889361436 0.7738069472 0.0000000000 1.3715428739 0.0906109482 -508.6096809901 0.0350246371 0.0397693132
0.1585676203 0.7795626143 0.0000000000 1.3747972101 0.1098129826 -509.9709546431 0.0351216777 0.0397916367
0.1279867384 0.7840636245 0.0000000000 1.3764350073 0.1301929383 -510.1208742191 0.0352172651 0.0398231896
0.0972454815 0.7873021187 0.0000000000 1.3764563134 0.1516578502 -508.8692381119 0.0353109725 0.0398637489
0.0663961050 0.7892723370 0.0000000000 1.3747941308 0.1740833025 -506.0366170122 0.0354023744 0.0399130182
0.0354910358 0.7899706486 0.0000000000 1.3713493842 0.1973175707 -501.4595312467 0.0354910359 0.0399706486
0.0045827748 0.7893955771 0.0000000000 1.3660140043 0.2211857898 -494.9944685856 0.0355765056 0.0400362583
-0.0262761974 0.7875478152 0.0000000000 1.3586856964 0.2454940012 -486.5208891789 0.0356583119 0.0401094455
-0.0570335118 0.7844302288 0.0000000000 1.3492771361 0.2700330422 -475.9433784024 0.0357359618 0.0401897940
-0.0876370010 0.7800478470 0.0000000000 1.3377215213 0.2945822828 -463.1930845221 0.0358089419 0.0402768695
-0.1180347864 0.7744078433 0.0000000000 1.3239757581 0.3189132195 -448.2285462907 0.0358767204 0.0403702094
-0.1481753653 0.7675195072 0.0000000000 1.3080221003 0.3427929205 -431.0359899782 0.0359387502 0.0404693078
-0.1780076950 0.7593942113 0.0000000000 1.2898687498 0.3659873119 -411.6291595383 0.0359944734 0.0405735995
-0.2074812753 0.7500453747 0.0000000000 1.2695497371 0.3882642821 -390.0487359398 0.0360433268 0.0406824435
-0.2365462287 0.7394884236 0.0000000000 1.2471242815 0.4093965847 -366.3613985175 0.0360847494 0.0407951076
-0.2651533788 0.7277407491 0.0000000000 1.2226757647 0.4291645201 -340.6585791640 0.0361181898 0.0409107542
-0.2932543282 0.7148216612 0.0000000000 1.1963104055 0.4473583827 -313.0549568777 0.0361431136 0.0410284249
-0.3208015395 0.7007523348 0.0000000000 1.1681556989 0.4637806652 -283.6867351787 0.0361590054 0.0411470215
-0.3477484271 0.6855557408 0.0000000000 1.1383586613 0.4782480176 -252.7097323407 0.0361653599 0.0412652751
-0.3740494728 0.6692565451 0.0000000000 1.1070838992 0.4905929634 -220.2973103253 0.0361616460 0.0413816865
-0.3996604067 0.6518809311 0.0000000000 1.0745114597 0.5006653700 -186.6380577383 0.0361472050 0.0414943932
-0.4245385568 0.6334562206 0.0000000000 1.0408343857 0.5083337305 -151.9333563272 0.0361209779 0.0416008386
-0.4486436921 0.6140099134 0.0000000000 1.0062550818 0.5134859463 -116.3929444163 0.0360807365 0.0416968624
-0.4719404613 0.5935669190 0.0000000000 0.9709806175 0.5160307774 -80.2335475123 0.0360207176 0.0417739861
-0.5158850124 0.5499505454 0.0000000000 0.8994075886 0.5129715548 -7.0933588013 0.0359079208 0.0419893668
-0.5364539852 0.5268563835 0.0000000000 0.8635850881 0.5073206709 29.3817061170 0.0358590662 0.0421319553
-0.5560624440 0.5029149348 0.0000000000 0.8280046313 0.4989173882 65.5244324399 0.0357929382 0.0422554004
-0.5746710077 0.4781730562 0.0000000000 0.7929078482 0.4877786277 101.0894104650 0.0357155304 0.0423654448
-0.5922451390 0.4526751874 0.0000000000 0.7585303806 0.4739423307 135.8403591058 0.0356297198 0.0424640690
-0.6087532291 0.4264658021 0.0000000000 0.7251011786 0.4574678600 169.5486340956 0.0355372368 0.0425520155
-0.6241659588 0.3995901357 0.0000000000 0.6928420651 0.4384348637 201.9939582628 0.0354393547 0.0426295911
-0.6384560969 0.3720943906 0.0000000000 0.6619662678 0.4169425113 232.9658310368 0.0353371396 0.0426969492
-0.6515984499 0.3440257654 0.0000000000 0.6326768888 0.3931085515 262.2650637667 0.0352315452 0.0427541972
-0.6635698665 0.3154324137 0.0000000000 0.6051653706 0.3670682599 289.7052956501 0.0351234496 0.0428014361
-0.6743492614 0.2863633749 0.0000000000 0.5796100448 0.3389732599 315.1144243329 0.0350136700 0.0428387733
-0.6839176450 0.2568684917 0.0000000000 0.5561747946 0.3089902334 338.3359225943 0.0349029670 0.0428663238
-0.6922581524 0.2269983227 0.0000000000 0.5350078616 0.2772995346 359.2300263514 0.0347920471 0.0428842076
-0.6993560680 0.1968040524 0.0000000000 0.5162408213 0.2440937137 377.6747897463 0.0346815660 0.0428925460
-0.7051988429 0.1663374027 0.0000000000 0.4999877264 0.2095759453 393.5670084104 0.0345721347 0.0428914602
-0.7097761045 0.1356505441 0.0000000000 0.4863443781 0.1739583488 406.8230067331 0.0344643303 0.0428810709
-0.7130796588 0.1047960084 0.0000000000 0.4753876613 0.1374602056 417.3792710677 0.0343587110 0.0428614996
-0.7151034860 0.0738266015 0.0000000000 0.4671749036 0.1003061048 425.1929032689 0.0342558329 0.0428328711
-0.7158437330 0.0427953168 0.0000000000 0.4617432846 0.0627240656 430.2418779573 0.0341562670 0.0427953171
-0.7152987058 0.0117552492 0.0000000000 0.4591093868 0.0249436674 432.5251172822 0.0340606130 0.0427489802
-0.7134688625 -0.0192404895 0.0000000000 0.4592689360 -0.0128057988 432.0623920035 0.0339695073 0.0426940199
-0.7103568094 -0.0501388535 0.0000000000 0.4621967667 -0.0502971460 428.8940606798 0.0338836253 0.0426306203
-0.7059672984 -0.0808869420 0.0000000000 0.4678470722 -0.0873070775 423.0806700267 0.0338036791 0.0425590010
-0.7003072213 -0.1114320759 0.0000000000 0.4761539321 -0.1236179706 414.7024149553 0.0337304126 0.0424794311
-0.6933855991 -0.1417218706 0.0000000000 0.4870320692 -0.1590196698 403.8584449944 0.0336646003 0.0423922451
-0.6852135609 -0.1717043072 0.0000000000 0.5003777780 -0.1933112903 390.6659969735 0.0336070508 0.0422978613