 TITLE = "Tecplot data"
 VARIABLES = "X", "Y", "Z" "U", "V", "p", "dispX", "dispY"
 ZONE SOLUTIONTIME=139.900000, NODES=26114 , ELEMENTS=25916, DATAPACKING=POINT, ZONETYPE=FEQUADRILATERAL
0.3896738409 0.4649534050 0.0000000000 0.0000000000 0.0000000000 -451.0366095120 0.0361204503 0.1114000144
0.3896738412 -0.2421533760 0.0000000000 0.0000000000 0.0000000000 -450.7540704196 0.0361204503 0.1114000144
-0.3174329404 0.4649534049 0.0000000000 0.0000000000 0.0000000000 -220.1288043800 0.0361204503 0.1114000144
-0.3174329401 -0.2421533764 0.0000000000 0.0000000000 0.0000000000 -139.9436772686 0.0361204503 0.1114000144
0.5659183608 0.6417452839 0.0000000000 0.3514718585 0.0162379264 -425.6545566517 0.0355882750 0.1114151980
0.5682064219 -0.4147450930 0.0000000000 0.2340684662 0.0471671691 -458.5761900236 0.0378763356 0.1155849925
-0.4915208938 0.6451968270 0.0000000000 0.9249259715 0.5211724711 12.4864995236 0.0388091923 0.1148667413
-0.4952268474 -0.4170351184 0.0000000000 0.8506647595 -0.4704094674 52.5495370517 0.0351032383 0.1132949678
1.0985756108 1.1735993138 0.0000000000 1.2628345988 -0.1910858901 -260.1481988094 0.0379154391 0.1129391419
1.0961258839 -0.9457723393 0.0000000000 1.1289537069 -0.0164106399 -110.3410963163 0.0354657113 0.1148878317
-1.0177033283 1.1833875263 0.0000000000 0.9793235684 0.1689485602 67.7085505854 0.0429568438 0.1227273549
-1.0279723073 -0.9408129254 0.0000000000 0.9407527652 -0.1548705326 80.3406358593 0.0326878639 0.1198472469
4.2451306866 3.3992405484 0.0000000000 1.0425362724 -0.0004756372 27.6185898527 0.0451306866 0.0992405484
4.2222994431 -3.2010093156 0.0000000000 1.0005588448 0.0244725393 20.6093924247 0.0222994431 0.0989906844
20.0000000000 4.7000000000 0.0000000000 1.0368260794 0.0331598889 0.1106813024 0.0000000000 0.0000000000
20.0000000000 -4.7000000000 0.0000000000 1.0443731818 -0.0322385764 0.1734556777 0.0000000000 0.0000000000
-10.0000000000 15.0000000000 0.0000000000 1.0000000000 0.0000000000 28.4765433659 0.0000000000 0.0000000000
20.0000000000 15.0000000000 0.0000000000 1.0305633949 0.0000000000 0.0223402899 0.0000000000 0.0000000000
20.0000000000 -15.0000000000 0.0000000000 1.0304983712 0.0000000000 0.0227335228 0.0000000000 0.0000000000
-10.0000000000 -15.0000000000 0.0000000000 1.0000000000 0.0000000000 35.0358666026 0.0000000000 0.0000000000
0.4026463865 -0.2286863543 0.0000000000 0.0000000000 0.0000000000 -446.8397104477 0.0361204503 0.1114000144
0.4151063121 -0.2147436910 0.0000000000 0.0000000000 0.0000000000 -442.2484984975 0.0361204503 0.1114000144
0.4270361918 -0.2003448863 0.0000000000 0.0000000000 0.0000000000 -437.3827333503 0.0361204503 0.1114000144
0.4384193404 -0.1855100782 0.0000000000 0.0000000000 0.0000000000 -432.2564662925 0.0361204503 0.1114000144
0.4492398377 -0.1702600144 0.0000000000 0.0000000000 0.0000000000 -427.1637557077 0.0361204503 0.1114000144
0.4594825501 -0.1546160236 0.0000000000 0.0000000000 0.0000000000 -422.3346519479 0.0361204503 0.1114000144
0.4691331524 -0.1385999854 0.0000000000 0.0000000000 0.0000000000 -418.0680597484 0.0361204503 0.1114000144
0.4781781472 -0.1222342995 0.0000000000 0.0000000000 0.0000000000 -414.6339782743 0.0361204503 0.1114000144
0.4866048844 -0.1055418549 0.0000000000 0.0000000000 0.0000000000 -412.2811411043 0.0361204503 0.1114000144
0.4944015784 -0.0885459975 0.0000000000 0.0000000000 0.0000000000 -411.2016083985 0.0361204503 0.1114000144
0.5015573248 -0.0712704976 0.0000000000 0.0000000000 0.0000000000 -411.5216588932 0.0361204503 0.1114000144
0.5080621156 -0.0537395164 0.0000000000 0.0000000000 0.0000000000 -413.2892729305 0.0361204503 0.1114000144
0.5139068533 -0.0359775726 0.0000000000 0.0000000000 0.0000000000 -416.4715992993 0.0361204503 0.1114000144
0.5190833635 -0.0180095079 0.0000000000 0.0000000000 0.0000000000 -420.9556968284 0.0361204503 0.1114000144
0.5235844065 0.0001395476 0.0000000000 0.0000000000 0.0000000000 -426.5548480455 0.0361204503 0.1114000144
0.5274036870 0.0184442110 0.0000000000 0.0000000000 0.0000000000 -433.0186343987 0.0361204503 0.1114000144
0.5305358635 0.0368788815 0.0000000000 0.0000000000 0.0000000000 -440.0472839029 0.0361204503 0.1114000144
0.5329765553 0.0554177765 0.0000000000 0.0000000000 0.0000000000 -447.3091952139 0.0361204503 0.1114000144
0.5347223489 0.0740349678 0.0000000000 0.0000000000 0.0000000000 -454.4625562653 0.0361204503 0.1114000144
0.5357708027 0.0927044174 0.0000000000 0.0000000000 0.0000000000 -461.1749799455 0.0361204503 0.1114000144
0.5361204503 0.1114000146 0.0000000000 0.0000000000 0.0000000000 -467.1559991759 0.0361204503 0.1114000144
0.5357708027 0.1300956117 0.0000000000 0.0000000000 0.0000000000 -472.1405337819 0.0361204503 0.1114000144
0.5347223489 0.1487650613 0.0000000000 0.0000000000 0.0000000000 -476.0369501942 0.0361204503 0.1114000144
0.5329765553 0.1673822526 0.0000000000 0.0000000000 0.0000000000 -478.4517276039 0.0361204503 0.1114000144
0.5305358634 0.1859211476 0.0000000000 0.0000000000 0.0000000000 -480.4485644781 0.0361204503 0.1114000144
0.5274036869 0.2043558181 0.0000000000 0.0000000000 0.0000000000 -478.1837137357 0.0361204503 0.1114000144
0.5235844064 0.2226604815 0.0000000000 0.0000000000 0.0000000000 -485.2628100334 0.0361204503 0.1114000144
0.5190833634 0.2408095371 0.0000000000 0.0000000000 0.0000000000 -477.4487624010 0.0361204503 0.1114000144
0.5139068532 0.2587776017 0.0000000000 0.0000000000 0.0000000000 -474.7568830674 0.0361204503 0.1114000144
0.5080621154 0.2765395455 0.0000000000 0.0000000000 0.0000000000 -471.5792159500 0.0361204503 0.1114000144
0.5015573246 0.2940705267 0.0000000000 0.0000000000 0.0000000000 -468.1043257624 0.0361204503 0.1114000144
0.4944015782 0.3113460266 0.0000000000 0.0000000000 0.0000000000 -464.4484179399 0.0361204503 0.1114000144
0.4866048842 0.3283418840 0.0000000000 0.0000000000 0.0000000000 -460.7733847277 0.0361204503 0.1114000144
0.4781781470 0.3450343286 0.0000000000 0.0000000000 0.0000000000 -457.2245650570 0.0361204503 0.1114000144
0.4691331522 0.3614000145 0.0000000000 0.0000000000 0.0000000000 -453.9311233532 0.0361204503 0.1114000144
0.4594825499 0.3774160527 0.0000000000 0.0000000000 0.0000000000 -451.0386829194 0.0361204503 0.1114000144
0.4492398374 0.3930600435 0.0000000000 0.0000000000 0.0000000000 -448.6923868515 0.0361204503 0.1114000144
0.4384193402 0.4083101072 0.0000000000 0.0000000000 0.0000000000 -447.0951817230 0.0361204503 0.1114000144
0.4270361915 0.4231449154 0.0000000000 0.0000000000 0.0000000000 -446.3727284667 0.0361204503 0.1114000144
0.4151063119 0.4375437201 0.0000000000 0.0000000000 0.0000000000 -446.7862246083 0.0361204503 0.1114000144
0.4026463862 0.4514863833 0.0000000000 0.0000000000 0.0000000000 -448.1963519437 0.0361204503 0.1114000144
0.3747612361 0.4792619697 0.0000000000 0.0000000000 0.0000000000 -455.0718520967 0.0361204503 0.1114000144
0.3592700692 0.4929420485 0.0000000000 0.0000000000 0.0000000000 -460.5885241234 0.0361204503 0.1114000144
0.3432268066 0.5059702691 0.0000000000 0.0000000000 0.0000000000 -466.8584867840 0.0361204503 0.1114000144
0.3266588580 0.5183243730 0.0000000000 0.0000000000 0.0000000000 -474.0859122055 0.0361204503 0.1114000144
0.3095945293 0.5299832535 0.0000000000 0.0000000000 0.0000000000 -482.0773062521 0.0361204503 0.1114000144
0.2920629748 0.5409269916 0.0000000000 0.0000000000 0.0000000000 -490.9941686178 0.0361204503 0.1114000144
0.2740941468 0.5511368900 0.0000000000 0.0000000000 0.0000000000 -500.8941624089 0.0361204503 0.1114000144
0.2557187447 0.5605955053 0.0000000000 0.0000000000 0.0000000000 -511.9174274146 0.0361204503 0.1114000144
0.2369681626 0.5692866777 0.0000000000 0.0000000000 0.0000000000 -524.1199305519 0.0361204503 0.1114000144
0.2178744355 0.5771955584 0.0000000000 0.0000000000 0.0000000000 -537.5334418653 0.0361204503 0.1114000144
0.1984701849 0.5843086352 0.0000000000 0.0000000000 0.0000000000 -552.1102701705 0.0361204503 0.1114000144
0.1787885624 0.5906137556 0.0000000000 0.0000000000 0.0000000000 -567.7480327924 0.0361204503 0.1114000144
0.1588631938 0.5961001474 0.0000000000 0.0000000000 0.0000000000 -584.2732323289 0.0361204503 0.1114000144
0.1387281213 0.6007584370 0.0000000000 0.0000000000 0.0000000000 -601.4411908915 0.0361204503 0.1114000144
0.1184177454 0.6045806661 0.0000000000 0.0000000000 0.0000000000 -618.9327528644 0.0361204503 0.1114000144
0.0979667659 0.6075603042 0.0000000000 0.0000000000 0.0000000000 -636.3601246222 0.0361204503 0.1114000144
0.0774101230 0.6096922609 0.0000000000 0.0000000000 0.0000000000 -653.2710452799 0.0361204503 0.1114000144
0.0567829374 0.6109728936 0.0000000000 0.0000000000 0.0000000000 -669.1590313062 0.0361204503 0.1114000144
0.0361204502 0.6114000144 0.0000000000 0.0000000000 0.0000000000 -683.4934095691 0.0361204503 0.1114000144
0.0154579631 0.6109728936 0.0000000000 0.0000000000 0.0000000000 -695.7179328105 0.0361204503 0.1114000144
-0.0051692225 0.6096922609 0.0000000000 0.0000000000 0.0000000000 -705.2847174916 0.0361204503 0.1114000144
-0.0257258654 0.6075603042 0.0000000000 0.0000000000 0.0000000000 -711.6580578948 0.0361204503 0.1114000144
-0.0461768449 0.6045806660 0.0000000000 0.0000000000 0.0000000000 -714.3993610415 0.0361204503 0.1114000144
-0.0664872209 0.6007584370 0.0000000000 0.0000000000 0.0000000000 -712.9812790352 0.0361204503 0.1114000144
-0.0866222933 0.5961001473 0.0000000000 0.0000000000 0.0000000000 -707.1848179895 0.0361204503 0.1114000144
-0.1065476619 0.5906137556 0.0000000000 0.0000000000 0.0000000000 -696.7337304257 0.0361204503 0.1114000144
-0.1262292844 0.5843086352 0.0000000000 0.0000000000 0.0000000000 -681.2017992958 0.0361204503 0.1114000144
-0.1456335351 0.5771955583 0.0000000000 0.0000000000 0.0000000000 -661.0427966360 0.0361204503 0.1114000144
-0.1647272621 0.5692866776 0.0000000000 0.0000000000 0.0000000000 -635.3279641726 0.0361204503 0.1114000144
-0.1834778442 0.5605955053 0.0000000000 0.0000000000 0.0000000000 -606.5263450897 0.0361204503 0.1114000144
-0.2018532463 0.5511368899 0.0000000000 0.0000000000 0.0000000000 -567.1417590662 0.0361204503 0.1114000144
-0.2198220743 0.5409269915 0.0000000000 0.0000000000 0.0000000000 -544.3887309764 0.0361204503 0.1114000144
-0.2373536288 0.5299832534 0.0000000000 0.0000000000 0.0000000000 -459.9705721799 0.0361204503 0.1114000144
-0.2544179575 0.5183243729 0.0000000000 0.0000000000 0.0000000000 -440.0994168145 0.0361204503 0.1114000144
-0.2709859061 0.5059702690 0.0000000000 0.0000000000 0.0000000000 -386.1030725150 0.0361204503 0.1114000144
-0.2870291687 0.4929420484 0.0000000000 0.0000000000 0.0000000000 -334.4966954084 0.0361204503 0.1114000144
-0.3025203356 0.4792619696 0.0000000000 0.0000000000 0.0000000000 -277.8228665729 0.0361204503 0.1114000144
-0.3317415051 0.4500408001 0.0000000000 0.0000000000 0.0000000000 -160.8214024163 0.0361204503 0.1114000144
-0.3454215839 0.4345496332 0.0000000000 0.0000000000 0.0000000000 -100.8293959727 0.0361204503 0.1114000144
-0.3584498045 0.4185063706 0.0000000000 0.0000000000 0.0000000000 -40.6021320351 0.0361204503 0.1114000144
-0.3708039084 0.4019384219 0.0000000000 0.0000000000 0.0000000000 19.2715589134 0.0361204503 0.1114000144
-0.3824627889 0.3848740933 0.0000000000 0.0000000000 0.0000000000 78.2570093331 0.0361204503 0.1114000144
-0.3934065269 0.3673425388 0.0000000000 0.0000000000 0.0000000000 135.8216266840 0.0361204503 0.1114000144
-0.4036164254 0.3493737107 0.0000000000 0.0000000000 0.0000000000 191.4566717146 0.0361204503 0.1114000144
-0.4130750407 0.3309983086 0.0000000000 0.0000000000 0.0000000000 244.6760924511 0.0361204503 0.1114000144
-0.4217662131 0.3122477265 0.0000000000 0.0000000000 0.0000000000 295.0219444892 0.0361204503 0.1114000144
-0.4296750938 0.2931539995 0.0000000000 0.0000000000 0.0000000000 342.0671750445 0.0361204503 0.1114000144
-0.4367881706 0.2737497488 0.0000000000 0.0000000000 0.0000000000 385.4187823991 0.0361204503 0.1114000144
-0.4430932909 0.2540681263 0.0000000000 0.0000000000 0.0000000000 424.7203695714 0.0361204503 0.1114000144
-0.4485796827 0.2341427578 0.0000000000 0.0000000000 0.0000000000 459.6544177519 0.0361204503 0.1114000144
-0.4532379724 0.2140076853 0.0000000000 0.0000000000 0.0000000000 489.9442643004 0.0361204503 0.1114000144
-0.4570602014 0.1936973093 0.0000000000 0.0000000000 0.0000000000 515.3556240319 0.0361204503 0.1114000144
-0.4600398396 0.1732463298 0.0000000000 0.0000000000 0.0000000000 535.6980745370 0.0361204503 0.1114000144
-0.4621717962 0.1526896869 0.0000000000 0.0000000000 0.0000000000 550.8256950631 0.0361204503 0.1114000144
-0.4634524289 0.1320625013 0.0000000000 0.0000000000 0.0000000000 560.6384187174 0.0361204503 0.1114000144
-0.4638795497 0.1114000142 0.0000000000 0.0000000000 0.0000000000 565.0811729706 0.0361204503 0.1114000144
-0.4634524289 0.0907375270 0.0000000000 0.0000000000 0.0000000000 564.1462920575 0.0361204503 0.1114000144
-0.4621717962 0.0701103414 0.0000000000 0.0000000000 0.0000000000 557.8689524641 0.0361204503 0.1114000144
-0.4600398395 0.0495536985 0.0000000000 0.0000000000 0.0000000000 546.3347571301 0.0361204503 0.1114000144
-0.4570602013 0.0291027190 0.0000000000 0.0000000000 0.0000000000 529.6638288598 0.0361204503 0.1114000144
-0.4532379723 0.0087923431 0.0000000000 0.0000000000 0.0000000000 508.0378133231 0.0361204503 0.1114000144
-0.4485796826 -0.0113427294 0.0000000000 0.0000000000 0.0000000000 481.6461902733 0.0361204503 0.1114000144
-0.4430932908 -0.0312680980 0.0000000000 0.0000000000 0.0000000000 450.7820498771 0.0361204503 0.1114000144
-0.4367881704 -0.0509497204 0.0000000000 0.0000000000 0.0000000000 415.6587611816 0.0361204503 0.1114000144
-0.4296750936 -0.0703539711 0.0000000000 0.0000000000 0.0000000000 376.7460566127 0.0361204503 0.1114000144
-0.4217662129 -0.0894476982 0.0000000000 0.0000000000 0.0000000000 334.1367127744 0.0361204503 0.1114000144
-0.4130750405 -0.1081982803 0.0000000000 0.0000000000 0.0000000000 288.7223743740 0.0361204503 0.1114000144
-0.4036164252 -0.1265736824 0.0000000000 0.0000000000 0.0000000000 239.9868354578 0.0361204503 0.1114000144
-0.3934065267 -0.1445425104 0.0000000000 0.0000000000 0.0000000000 190.1313645992 0.0361204503 0.1114000144
-0.3824627887 -0.1620740649 0.0000000000 0.0000000000 0.0000000000 136.3281719072 0.0361204503 0.1114000144
-0.3708039082 -0.1791383935 0.0000000000 0.0000000000 0.0000000000 85.2607466547 0.0361204503 0.1114000144
-0.3584498042 -0.1957063422 0.0000000000 0.0000000000 0.0000000000 26.1959617167 0.0361204503 0.1114000144
-0.3454215836 -0.2117496048 0.0000000000 0.0000000000 0.0000000000 -18.6268631269 0.0361204503 0.1114000144
-0.3317415048 -0.2272407716 0.0000000000 0.0000000000 0.0000000000 95.8250024216 0.0361204503 0.1114000144
-0.3025203353 -0.2564619411 0.0000000000 0.0000000000 0.0000000000 -211.5563309454 0.0361204503 0.1114000144
-0.2870291684 -0.2701420199 0.0000000000 0.0000000000 0.0000000000 -114.7968703344 0.0361204503 0.1114000144
-0.2709859058 -0.2831702405 0.0000000000 0.0000000000 0.0000000000 -297.5431318015 0.0361204503 0.1114000144
-0.2544179571 -0.2955243444 0.0000000000 0.0000000000 0.0000000000 -325.8174834210 0.0361204503 0.1114000144
-0.2373536285 -0.3071832249 0.0000000000 0.0000000000 0.0000000000 -381.5387245460 0.0361204503 0.1114000144
-0.2198220740 -0.3181269630 0.0000000000 0.0000000000 0.0000000000 -414.8519228539 0.0361204503 0.1114000144
-0.2018532459 -0.3283368614 0.0000000000 0.0000000000 0.0000000000 -456.0881946420 0.0361204503 0.1114000144
-0.1834778438 -0.3377954767 0.0000000000 0.0000000000 0.0000000000 -486.2183458018 0.0361204503 0.1114000144
-0.1647272617 -0.3464866491 0.0000000000 0.0000000000 0.0000000000 -516.4011851001 0.0361204503 0.1114000144
-0.1456335347 -0.3543955298 0.0000000000 0.0000000000 0.0000000000 -539.7850479602 0.0361204503 0.1114000144
-0.1262292840 -0.3615086066 0.0000000000 0.0000000000 0.0000000000 -560.2536460516 0.0361204503 0.1114000144
-0.1065476615 -0.3678137269 0.0000000000 0.0000000000 0.0000000000 -575.6475773075 0.0361204503 0.1114000144
-0.0866222930 -0.3733001187 0.0000000000 0.0000000000 0.0000000000 -587.2885370741 0.0361204503 0.1114000144
-0.0664872205 -0.3779584084 0.0000000000 0.0000000000 0.0000000000 -594.7420157678 0.0361204503 0.1114000144
-0.0461768445 -0.3817806374 0.0000000000 0.0000000000 0.0000000000 -598.6157231043 0.0361204503 0.1114000144
-0.0257258650 -0.3847602755 0.0000000000 0.0000000000 0.0000000000 -599.0750041119 0.0361204503 0.1114000144
-0.0051692221 -0.3868922322 0.0000000000 0.0000000000 0.0000000000 -596.6178460802 0.0361204503 0.1114000144
0.0154579635 -0.3881728648 0.0000000000 0.0000000000 0.0000000000 -591.6204278746 0.0361204503 0.1114000144
0.0361204506 -0.3885999856 0.0000000000 0.0000000000 0.0000000000 -584.5843317820 0.0361204503 0.1114000144
0.0567829378 -0.3881728648 0.0000000000 0.0000000000 0.0000000000 -575.9597801168 0.0361204503 0.1114000144
0.0774101234 -0.3868922321 0.0000000000 0.0000000000 0.0000000000 -566.2255952403 0.0361204503 0.1114000144
0.0979667663 -0.3847602755 0.0000000000 0.0000000000 0.0000000000 -555.8036243225 0.0361204503 0.1114000144
0.1184177458 -0.3817806373 0.0000000000 0.0000000000 0.0000000000 -545.0957186952 0.0361204503 0.1114000144
0.1387281217 -0.3779584082 0.0000000000 0.0000000000 0.0000000000 -534.4348626217 0.0361204503 0.1114000144
0.1588631942 -0.3733001185 0.0000000000 0.0000000000 0.0000000000 -524.0987687466 0.0361204503 0.1114000144
0.1787885628 -0.3678137268 0.0000000000 0.0000000000 0.0000000000 -514.3121362165 0.0361204503 0.1114000144
0.1984701852 -0.3615086064 0.0000000000 0.0000000000 0.0000000000 -505.2403909759 0.0361204503 0.1114000144
0.2178744359 -0.3543955295 0.0000000000 0.0000000000 0.0000000000 -496.9763783776 0.0361204503 0.1114000144
0.2369681630 -0.3464866488 0.0000000000 0.0000000000 0.0000000000 -489.5932841824 0.0361204503 0.1114000144
0.2557187451 -0.3377954764 0.0000000000 0.0000000000 0.0000000000 -483.1291096925 0.0361204503 0.1114000144
0.2740941472 -0.3283368611 0.0000000000 0.0000000000 0.0000000000 -477.4892890776 0.0361204503 0.1114000144
0.2920629752 -0.3181269626 0.0000000000 0.0000000000 0.0000000000 -472.9073842229 0.0361204503 0.1114000144
0.3095945297 -0.3071832246 0.0000000000 0.0000000000 0.0000000000 -468.4403887683 0.0361204503 0.1114000144
0.3266588583 -0.2955243441 0.0000000000 0.0000000000 0.0000000000 -465.1020181477 0.0361204503 0.1114000144
0.3432268070 -0.2831702401 0.0000000000 0.0000000000 0.0000000000 -461.7782389285 0.0361204503 0.1114000144
0.3592700695 -0.2701420195 0.0000000000 0.0000000000 0.0000000000 -458.4172800945 0.0361204503 0.1114000144
0.3747612364 -0.2564619407 0.0000000000 0.0000000000 0.0000000000 -455.0431878137 0.0361204503 0.1114000144
0.5876316939 -0.3945855356 0.0000000000 0.1684368969 0.0556922175 -459.6702225060 0.0378427897 0.1155440174
0.6062598824 -0.3735951691 0.0000000000 0.1079530414 0.0670612245 -459.6359812427 0.0377810897 0.1156203890
0.6240878112 -0.3518884213 0.0000000000 0.0524784482 0.0817072000 -458.4347248529 0.0377141991 0.1157289297
0.6410899611 -0.3295205149 0.0000000000 0.0022515965 0.0995913577 -456.1207778971 0.0376416259 0.1158446239
0.6572426164 -0.3065330167 0.0000000000 -0.0421503589 0.1203673764 -452.9075078926 0.0375635353 0.1159570265
0.6725240383 -0.2829629324 0.0000000000 -0.0800869437 0.1435005806 -449.1491711511 0.0374808886 0.1160611245
0.6869138834 -0.2588456453 0.0000000000 -0.1111641173 0.1684017087 -445.2917237102 0.0373948303 0.1161543543
0.7003929192 -0.2342160801 0.0000000000 -0.1354374152 0.1945465653 -441.8046479942 0.0373063738 0.1162353907
0.7129429598 -0.2091092363 0.0000000000 -0.1534359114 0.2215545603 -439.1141467397 0.0372163087 0.1163035676
0.7245469088 -0.1835604463 0.0000000000 -0.1660088169 0.2492023331 -437.5574323028 0.0371252167 0.1163585716
0.7351888376 -0.1576054966 0.0000000000 -0.1740709198 0.2773686414 -437.3657487053 0.0370335260 0.1164002713
0.7448540606 -0.1312806738 0.0000000000 -0.1783595911 0.3059347228 -438.6683897631 0.0369415627 0.1164286223
0.7535291937 -0.1046227688 0.0000000000 -0.1792950830 0.3346827637 -441.5022961621 0.0368495893 0.1164436116
0.7612021976 -0.0776690583 0.0000000000 -0.1769761008 0.3632326777 -445.8154859949 0.0367578278 0.1164452252
0.7678624101 -0.0504572729 0.0000000000 -0.1712832005 0.3910373948 -451.4623496155 0.0366664759 0.1164334272
0.7735005742 -0.0230255576 0.0000000000 -0.1620311870 0.4174318836 -458.1972239004 0.0365757192 0.1164081474
0.7781088625 0.0045875752 0.0000000000 -0.1491124384 0.4417133207 -465.6754065921 0.0364857428 0.1163692745
0.7816809009 0.0323432982 0.0000000000 -0.1325940463 0.4632247591 -473.4679505903 0.0363967434 0.1163166550
0.7842117891 0.0602025277 0.0000000000 -0.1127574159 0.4814206474 -481.0909847801 0.0363089412 0.1162500976
0.7856981178 0.0881259875 0.0000000000 -0.0900885934 0.4959037580 -488.0451823670 0.0362225892 0.1161693829
0.7861379812 0.1160742795 0.0000000000 -0.0652370807 0.5064334349 -493.8583363558 0.0361379812 0.1160742792
0.7855309848 0.1440079595 0.0000000000 -0.0389616612 0.5129110597 -498.1240879773 0.0360554562 0.1159645635
0.7838782501 0.1718876185 0.0000000000 -0.0120777031 0.5153498529 -500.5318258091 0.0359754022 0.1158400480
0.7811824154 0.1996739670 0.0000000000 0.0145848775 0.5138343900 -500.8854953047 0.0358982580 0.1157006097
0.7774476351 0.2273279221 0.0000000000 0.0402084699 0.5084731671 -499.1116594199 0.0358245154 0.1155462222
0.7726795762 0.2548106933 0.0000000000 0.0639990594 0.4993475761 -495.2590831869 0.0357547213 0.1153769877
0.7668854119 0.2820838663 0.0000000000 0.0851863650 0.4864640644 -489.4929768905 0.0356894778 0.1151931656
0.7600738097 0.3091094819 0.0000000000 0.1030233583 0.4697223501 -482.0864908983 0.0356294400 0.1149951979
0.7522549121 0.3358501074 0.0000000000 0.1168016813 0.4489179841 -473.4100470571 0.0355753078 0.1147837264
0.7434403067 0.3622689007 0.0000000000 0.1259007842 0.4237965714 -463.9161889872 0.0355278090 0.1145596041
0.7336429834 0.3883296644 0.0000000000 0.1298794997 0.3941643691 -454.1152220566 0.0354876720 0.1143238959
0.7228772754 0.4139968882 0.0000000000 0.1286014087 0.3600360367 -444.5371451871 0.0354555836 0.1140778698
0.7111587823 0.4392357788 0.0000000000 0.1223876917 0.3217768474 -435.6812232916 0.0354321315 0.1138229743
0.6985042757 0.4640122723 0.0000000000 0.1122536659 0.2801972496 -427.9673791808 0.0354177307 0.1135608010
0.6849315949 0.4882930256 0.0000000000 0.1003437215 0.2365910725 -421.7138249409 0.0354125421 0.1132930254
0.6704595549 0.5120453867 0.0000000000 0.0904918327 0.1927220651 -417.1507121332 0.0354164055 0.1130213292
0.6551079024 0.5352373581 0.0000000000 0.0883563875 0.1506945856 -414.4388845200 0.0354288217 0.1127473145
0.6388973502 0.5578375962 0.0000000000 0.1004317986 0.1125939705 -413.6469305062 0.0354490154 0.1124724569
0.6218496674 0.5798155406 0.0000000000 0.1320436018 0.0799452647 -414.6913649334 0.0354760556 0.1121981892
0.6039877039 0.6011418992 0.0000000000 0.1855281898 0.0533108952 -417.3074961883 0.0355089116 0.1119263407
0.5853348875 0.6217901100 0.0000000000 0.2598150040 0.0323456414 -421.0975752570 0.0355459837 0.1116605567
0.5436454212 0.6629028888 0.0000000000 0.4672800415 0.0032708905 -431.0917247118 0.0356842426 0.1111099558
0.5205154456 0.6831684728 0.0000000000 0.5929220435 -0.0049142706 -436.5142025999 0.0357910172 0.1108554216
0.4965638324 0.7024851958 0.0000000000 0.7223448901 -0.0084431374 -441.6783319157 0.0359042979 0.1106298137
0.4718315234 0.7208152176 0.0000000000 0.8499186671 -0.0072204581 -446.4001670130 0.0360239119 0.1104286796
0.4463602147 0.7381247380 0.0000000000 0.9703713685 -0.0013634329 -450.5191235959 0.0361490962 0.1102498793
0.4201930378 0.7543827155 0.0000000000 1.0792320687 0.0086778663 -453.8948341673 0.0362792511 0.1100922497
0.3933744740 0.7695606745 0.0000000000 1.1733404315 0.0221763484 -456.4281643010 0.0364139293 0.1099553610
0.3659501705 0.7836326538 0.0000000000 1.2511212516 0.0382767032 -458.0791028265 0.0365527290 0.1098394174
0.3379667670 0.7965750677 0.0000000000 1.3125260900 0.0561500980 -458.8637375711 0.0366951986 0.1097450727
0.3094717791 0.8083665291 0.0000000000 1.3587177695 0.0751065336 -458.8345992492 0.0368408013 0.1096732130
0.2805135266 0.8189877004 0.0000000000 1.3916347218 0.0946499200 -458.0558220864 0.0369889248 0.1096247691
0.2511410774 0.8284211912 0.0000000000 1.4135572206 0.1144813096 -456.5810338194 0.0371389093 0.1096005793
0.2214041855 0.8366514950 0.0000000000 1.4267547649 0.1344659350 -454.4373029570 0.0372900702 0.1096012955
0.1913532131 0.8436649545 0.0000000000 1.4332493247 0.1545826167 -451.6160221478 0.0374417066 0.1096273205
0.1610390376 0.8494497501 0.0000000000 1.4346936537 0.1748715046 -448.0704525371 0.0375930950 0.1096787725
0.1305129474 0.8539959111 0.0000000000 1.4323418812 0.1953904570 -443.7188722886 0.0377434741 0.1097554763
0.0998265346 0.8572953492 0.0000000000 1.4270811526 0.2161843869 -438.4517038894 0.0378920256 0.1098569794
0.0690315910 0.8593419073 0.0000000000 1.4194948443 0.2372674204 -432.1407865627 0.0380378605 0.1099825885
0.0381800116 0.8601314144 0.0000000000 1.4099350441 0.2586152943 -424.6491511425 0.0381800118 0.1101314144
0.0073237078 0.8596617354 0.0000000000 1.3985904439 0.2801647238 -415.8401102122 0.0383174387 0.1103024166
-0.0234854707 0.8579328042 0.0000000000 1.3855429637 0.3018168295 -405.5849974327 0.0384490386 0.1104944344
-0.0541958078 0.8549466369 0.0000000000 1.3708113531 0.3234424915 -393.7693240569 0.0385736659 0.1107062022
-0.0847557889 0.8507073232 0.0000000000 1.3543827815 0.3448882950 -380.2974023450 0.0386901540 0.1109363457
-0.1151141686 0.8452210001 0.0000000000 1.3362345961 0.3659823428 -365.0956230873 0.0387973382 0.1111833661
-0.1452200367 0.8384958143 0.0000000000 1.3163486180 0.3865396205 -348.1146115355 0.0388940788 0.1114456149
-0.1750228846 0.8305418791 0.0000000000 1.2947200676 0.4063668201 -329.3304699180 0.0389792838 0.1117212673
-0.2044726708 0.8213712282 0.0000000000 1.2713627602 0.4252666390 -308.7452788211 0.0390519313 0.1120082970
-0.2335198852 0.8109977689 0.0000000000 1.2463117747 0.4430416049 -286.3869926272 0.0391110929 0.1123044530
-0.2621156132 0.7994372332 0.0000000000 1.2196244322 0.4594974813 -262.3088334104 0.0391559555 0.1126072383
-0.2902116023 0.7867071215 0.0000000000 1.1913801445 0.4744462951 -236.5882624497 0.0391858395 0.1129138852
-0.3177603361 0.7728266313 0.0000000000 1.1616794969 0.4877090145 -209.3255904007 0.0392002089 0.1132213180
-0.3447151247 0.7578165510 0.0000000000 1.1306427888 0.4991178924 -180.6422612324 0.0391986623 0.1135260853
-0.3710302328 0.7416990731 0.0000000000 1.0984081589 0.5085185005 -150.6788559125 0.0391808860 0.1138242145
-0.3966610931 0.7244974122 0.0000000000 1.0651292408 0.5157714670 -119.5926229923 0.0391465186 0.1141108743
-0.4215647401 0.7062348956 0.0000000000 1.0309722553 0.5207541669 -87.5550172991 0.0390947946 0.1143795137
-0.4457008153 0.6869324495 0.0000000000 0.9961104925 0.5233620162 -54.7449441752 0.0390236133 0.1146193985
-0.4690340379 0.6666005876 0.0000000000 0.9607169563 0.5235143704 -21.3525490495 0.0389271410 0.1148076548
-0.5130588539 0.6232993943 0.0000000000 0.8894907722 0.5159582966 46.2023995520 0.0387340792 0.1153382157
-0.5336681262 0.6004189855 0.0000000000 0.8541069806 0.5082403041 79.8508566342 0.0386449251 0.1156945573
-0.5533192845 0.5766605453 0.0000000000 0.8190555038 0.4979319282 113.1953524760 0.0385360976 0.1160010109
-0.5719724244 0.5520811988 0.0000000000 0.7845676895 0.4850333373 146.0004786174 0.0384141137 0.1162735874
-0.5895922806 0.5267291032 0.0000000000 0.7508667998 0.4695706088 178.0399163294 0.0382825782 0.1165179848
-0.6061467708 0.5006503963 0.0000000000 0.7181698697 0.4515919231 209.0929320989 0.0381436951 0.1167366097
-0.6216062896 0.4738912248 0.0000000000 0.6866887945 0.4311654938 238.9446986869 0.0379990239 0.1169306802
-0.6359434461 0.4464983835 0.0000000000 0.6566293915 0.4083788240 267.3875239864 0.0378497904 0.1171009421
-0.6491329847 0.4185195032 0.0000000000 0.6281901275 0.3833379856 294.2223557531 0.0376970104 0.1172479349
-0.6611517714 0.3900030683 0.0000000000 0.6015606573 0.3561668632 319.2603545704 0.0375415447 0.1173720907
-0.6719788053 0.3609983671 0.0000000000 0.5769203177 0.3270062851 342.3244396309 0.0373841261 0.1174737654
-0.6815952347 0.3315554135 0.0000000000 0.5544366176 0.2960130402 363.2507590978 0.0372253772 0.1175532456
-0.6899843725 0.3017248603 0.0000000000 0.5342637566 0.2633587926 381.8900560014 0.0370658271 0.1176107453
-0.6971317039 0.2715579118 0.0000000000 0.5165411981 0.2292289062 398.1089159267 0.0369059302 0.1176464054
-0.7030248861 0.2411062394 0.0000000000 0.5013923225 0.1938211905 411.7908953431 0.0367460915 0.1176602970
-0.7076537364 0.2104219043 0.0000000000 0.4889231849 0.1573445584 422.8375373619 0.0365866984 0.1176524311
-0.7110102122 0.1795572832 0.0000000000 0.4792213900 0.1200175774 431.1692819843 0.0364281576 0.1176227744
-0.7130883847 0.1485650010 0.0000000000 0.4723550843 0.0820668853 436.7262692428 0.0362709341 0.1175712706
-0.7138844125 0.1174978655 0.0000000000 0.4683720476 0.0437254605 439.4690180901 0.0361155875 0.1174978658
-0.7133965201 0.0864088077 0.0000000000 0.4672988823 0.0052307632 439.3789557130 0.0359627987 0.1174025387
-0.7116249858 0.0553508251 0.0000000000 0.4691403355 -0.0331771991 436.4587749203 0.0358133840 0.1172853345
-0.7085721405 0.0243769310 0.0000000000 0.4738788660 -0.0712578442 430.7326276017 0.0356682943 0.1171464048
-0.7042423764 -0.0064598920 0.0000000000 0.4814745264 -0.1087720219 422.2461598451 0.0355286011 0.1169860511
-0.6986421603 -0.0371067336 0.0000000000 0.4918651633 -0.1454840768 411.0663796925 0.0353954737 0.1168047733
-0.6917800465 -0.0675107953 0.0000000000 0.5049669031 -0.1811639905 397.2813350299 0.0352701528 0.1166033204
-0.6836666835 -0.0976194296 0.0000000000 0.5206748418 -0.2155896163 380.9995638521 0.0351539282 0.1163827389
-0.6743148089 -0.1273801851 0.0000000000 0.5388638866 -0.2485489848 362.3492754272 0.0350481223 0.1161444172