 TITLE = "Tecplot data"
 VARIABLES = "X", "Y", "Z" "U", "V", "p", "dispX", "dispY"
 ZONE SOLUTIONTIME=164.900000, NODES=26114 , ELEMENTS=25916, DATAPACKING=POINT, ZONETYPE=FEQUADRILATERAL
0.3731266795 0.7645839881 0.0000000000 0.0000000000 0.0000000000 -589.5876665855 0.0195732889 0.4110305974
0.3731266797 0.0574772071 0.0000000000 0.0000000000 0.0000000000 -289.5523346431 0.0195732889 0.4110305974
-0.3339801018 0.7645839879 0.0000000000 0.0000000000 0.0000000000 -357.1182831841 0.0195732889 0.4110305974
-0.3339801015 0.0574772066 0.0000000000 0.0000000000 0.0000000000 216.0298432976 0.0195732889 0.4110305974
0.5498785761 0.9410005530 0.0000000000 0.5038757267 -0.0378441119 -571.3381553082 0.0195484903 0.4106704671
0.5534593921 -0.1048702707 0.0000000000 0.0747438379 0.0145593173 -275.7613667171 0.0231293058 0.4254598148
-0.5039837874 0.9530041857 0.0000000000 0.9374505796 0.5116284127 -40.2497824158 0.0263462987 0.4226741000
-0.5144172655 -0.1124093868 0.0000000000 0.8454855250 -0.4764854645 98.8838351667 0.0159128202 0.4179206993
1.0869483209 1.4770875879 0.0000000000 1.1526073724 -0.2117274421 -253.9686962686 0.0262881493 0.4164274161
1.0770038116 -0.6381959893 0.0000000000 1.2718461737 -0.0507427336 -137.6546217942 0.0163436390 0.4224641817
-1.0222424321 1.5108262180 0.0000000000 0.9811852825 0.1598159844 35.7366908265 0.0384177400 0.4501660465
-1.0525413011 -0.6196804349 0.0000000000 0.9394352682 -0.1623721839 112.3206841568 0.0081188701 0.4409797374
4.2588554966 3.6653673992 0.0000000000 1.0395620273 -0.0284181392 19.4235740127 0.0588554966 0.3653673992
4.1783164026 -2.9357047232 0.0000000000 0.9985968882 -0.0006684127 27.8302578923 -0.0216835974 0.3642952768
20.0000000000 4.7000000000 0.0000000000 1.0377119294 0.0357140298 0.1964393318 0.0000000000 0.0000000000
20.0000000000 -4.7000000000 0.0000000000 1.0415077297 -0.0304033024 0.0919616012 0.0000000000 0.0000000000
-10.0000000000 15.0000000000 0.0000000000 1.0000000000 0.0000000000 25.2323714866 0.0000000000 0.0000000000
20.0000000000 15.0000000000 0.0000000000 1.0301628221 0.0000000000 0.0239268479 0.0000000000 0.0000000000
20.0000000000 -15.0000000000 0.0000000000 1.0298534908 0.0000000000 0.0228840553 0.0000000000 0.0000000000
-10.0000000000 -15.0000000000 0.0000000000 1.0000000000 0.0000000000 38.6669686126 0.0000000000 0.0000000000
0.3860992251 0.0709442288 0.0000000000 0.0000000000 0.0000000000 -291.0864899933 0.0195732889 0.4110305974
0.3985591507 0.0848868920 0.0000000000 0.0000000000 0.0000000000 -289.1566475598 0.0195732889 0.4110305974
0.4104890303 0.0992856968 0.0000000000 0.0000000000 0.0000000000 -290.8080842255 0.0195732889 0.4110305974
0.4218721790 0.1141205049 0.0000000000 0.0000000000 0.0000000000 -292.4549313581 0.0195732889 0.4110305974
0.4326926762 0.1293705687 0.0000000000 0.0000000000 0.0000000000 -296.3596691593 0.0195732889 0.4110305974
0.4429353887 0.1450145594 0.0000000000 0.0000000000 0.0000000000 -300.2890183113 0.0195732889 0.4110305974
0.4525859909 0.1610305977 0.0000000000 0.0000000000 0.0000000000 -307.5961185833 0.0195732889 0.4110305974
0.4616309858 0.1773962836 0.0000000000 0.0000000000 0.0000000000 -313.8324243064 0.0195732889 0.4110305974
0.4700577230 0.1940887281 0.0000000000 0.0000000000 0.0000000000 -321.6361929355 0.0195732889 0.4110305974
0.4778544169 0.2110845855 0.0000000000 0.0000000000 0.0000000000 -331.1916679185 0.0195732889 0.4110305974
0.4850101633 0.2283600855 0.0000000000 0.0000000000 0.0000000000 -341.8621437750 0.0195732889 0.4110305974
0.4915149541 0.2458910667 0.0000000000 0.0000000000 0.0000000000 -352.0769043023 0.0195732889 0.4110305974
0.4973596919 0.2636530105 0.0000000000 0.0000000000 0.0000000000 -366.6839628167 0.0195732889 0.4110305974
0.5025362021 0.2816210751 0.0000000000 0.0000000000 0.0000000000 -378.9490162575 0.0195732889 0.4110305974
0.5070372450 0.2997701307 0.0000000000 0.0000000000 0.0000000000 -391.6732869969 0.0195732889 0.4110305974
0.5108565256 0.3180747941 0.0000000000 0.0000000000 0.0000000000 -412.5430356150 0.0195732889 0.4110305974
0.5139887020 0.3365094646 0.0000000000 0.0000000000 0.0000000000 -426.4510808851 0.0195732889 0.4110305974
0.5164293939 0.3550483596 0.0000000000 0.0000000000 0.0000000000 -443.5727922331 0.0195732889 0.4110305974
0.5181751875 0.3736655508 0.0000000000 0.0000000000 0.0000000000 -460.3182893091 0.0195732889 0.4110305974
0.5192236413 0.3923350005 0.0000000000 0.0000000000 0.0000000000 -477.2779836135 0.0195732889 0.4110305974
0.5195732889 0.4110305976 0.0000000000 0.0000000000 0.0000000000 -493.8414642054 0.0195732889 0.4110305974
0.5192236413 0.4297261948 0.0000000000 0.0000000000 0.0000000000 -509.7287405803 0.0195732889 0.4110305974
0.5181751875 0.4483956444 0.0000000000 0.0000000000 0.0000000000 -524.5857875178 0.0195732889 0.4110305974
0.5164293938 0.4670128357 0.0000000000 0.0000000000 0.0000000000 -538.1125882104 0.0195732889 0.4110305974
0.5139887020 0.4855517307 0.0000000000 0.0000000000 0.0000000000 -550.0943877155 0.0195732889 0.4110305974
0.5108565255 0.5039864012 0.0000000000 0.0000000000 0.0000000000 -560.3113234566 0.0195732889 0.4110305974
0.5070372450 0.5222910646 0.0000000000 0.0000000000 0.0000000000 -568.5510950300 0.0195732889 0.4110305974
0.5025362020 0.5404401201 0.0000000000 0.0000000000 0.0000000000 -575.5827616548 0.0195732889 0.4110305974
0.4973596917 0.5584081848 0.0000000000 0.0000000000 0.0000000000 -581.2979310160 0.0195732889 0.4110305974
0.4915149540 0.5761701285 0.0000000000 0.0000000000 0.0000000000 -584.4411931834 0.0195732889 0.4110305974
0.4850101632 0.5937011097 0.0000000000 0.0000000000 0.0000000000 -586.6032070001 0.0195732889 0.4110305974
0.4778544168 0.6109766097 0.0000000000 0.0000000000 0.0000000000 -587.6952677633 0.0195732889 0.4110305974
0.4700577228 0.6279724671 0.0000000000 0.0000000000 0.0000000000 -587.9630890849 0.0195732889 0.4110305974
0.4616309856 0.6446649117 0.0000000000 0.0000000000 0.0000000000 -587.6173291026 0.0195732889 0.4110305974
0.4525859907 0.6610305975 0.0000000000 0.0000000000 0.0000000000 -586.9526972145 0.0195732889 0.4110305974
0.4429353885 0.6770466358 0.0000000000 0.0000000000 0.0000000000 -586.1237020700 0.0195732889 0.4110305974
0.4326926760 0.6926906265 0.0000000000 0.0000000000 0.0000000000 -585.3895603865 0.0195732889 0.4110305974
0.4218721787 0.7079406903 0.0000000000 0.0000000000 0.0000000000 -584.8926876406 0.0195732889 0.4110305974
0.4104890301 0.7227754984 0.0000000000 0.0000000000 0.0000000000 -584.9398075333 0.0195732889 0.4110305974
0.3985591504 0.7371743031 0.0000000000 0.0000000000 0.0000000000 -585.5661402805 0.0195732889 0.4110305974
0.3860992248 0.7511169664 0.0000000000 0.0000000000 0.0000000000 -587.1910159015 0.0195732889 0.4110305974
0.3582140747 0.7788925528 0.0000000000 0.0000000000 0.0000000000 -593.6866585736 0.0195732889 0.4110305974
0.3427229078 0.7925726316 0.0000000000 0.0000000000 0.0000000000 -598.9158801993 0.0195732889 0.4110305974
0.3266796452 0.8056008522 0.0000000000 0.0000000000 0.0000000000 -605.3887084356 0.0195732889 0.4110305974
0.3101116965 0.8179549561 0.0000000000 0.0000000000 0.0000000000 -612.9118145487 0.0195732889 0.4110305974
0.2930473679 0.8296138366 0.0000000000 0.0000000000 0.0000000000 -621.4258464287 0.0195732889 0.4110305974
0.2755158134 0.8405575746 0.0000000000 0.0000000000 0.0000000000 -630.9506455198 0.0195732889 0.4110305974
0.2575469854 0.8507674731 0.0000000000 0.0000000000 0.0000000000 -641.4435985158 0.0195732889 0.4110305974
0.2391715833 0.8602260884 0.0000000000 0.0000000000 0.0000000000 -652.9762216525 0.0195732889 0.4110305974
0.2204210012 0.8689172608 0.0000000000 0.0000000000 0.0000000000 -665.5243754985 0.0195732889 0.4110305974
0.2013272741 0.8768261415 0.0000000000 0.0000000000 0.0000000000 -679.0641836539 0.0195732889 0.4110305974
0.1819230234 0.8839392183 0.0000000000 0.0000000000 0.0000000000 -693.5015555640 0.0195732889 0.4110305974
0.1622414009 0.8902443387 0.0000000000 0.0000000000 0.0000000000 -708.6587770719 0.0195732889 0.4110305974
0.1423160324 0.8957307304 0.0000000000 0.0000000000 0.0000000000 -724.4117664029 0.0195732889 0.4110305974
0.1221809599 0.9003890201 0.0000000000 0.0000000000 0.0000000000 -740.3027967975 0.0195732889 0.4110305974
0.1018705839 0.9042112491 0.0000000000 0.0000000000 0.0000000000 -756.2039946937 0.0195732889 0.4110305974
0.0814196044 0.9071908873 0.0000000000 0.0000000000 0.0000000000 -771.5534791049 0.0195732889 0.4110305974
0.0608629615 0.9093228439 0.0000000000 0.0000000000 0.0000000000 -785.9730019306 0.0195732889 0.4110305974
0.0402357759 0.9106034766 0.0000000000 0.0000000000 0.0000000000 -799.0403282061 0.0195732889 0.4110305974
0.0195732888 0.9110305974 0.0000000000 0.0000000000 0.0000000000 -810.1867496907 0.0195732889 0.4110305974
-0.0010891983 0.9106034766 0.0000000000 0.0000000000 0.0000000000 -818.9811850914 0.0195732889 0.4110305974
-0.0217163839 0.9093228439 0.0000000000 0.0000000000 0.0000000000 -824.8844710782 0.0195732889 0.4110305974
-0.0422730268 0.9071908873 0.0000000000 0.0000000000 0.0000000000 -827.5715991406 0.0195732889 0.4110305974
-0.0627240064 0.9042112491 0.0000000000 0.0000000000 0.0000000000 -826.3739123145 0.0195732889 0.4110305974
-0.0830343823 0.9003890201 0.0000000000 0.0000000000 0.0000000000 -821.1634694845 0.0195732889 0.4110305974
-0.1031694548 0.8957307304 0.0000000000 0.0000000000 0.0000000000 -811.5449674607 0.0195732889 0.4110305974
-0.1230948233 0.8902443386 0.0000000000 0.0000000000 0.0000000000 -797.2064336701 0.0195732889 0.4110305974
-0.1427764458 0.8839392182 0.0000000000 0.0000000000 0.0000000000 -778.0658066535 0.0195732889 0.4110305974
-0.1621806965 0.8768261414 0.0000000000 0.0000000000 0.0000000000 -754.2349576709 0.0195732889 0.4110305974
-0.1812744235 0.8689172607 0.0000000000 0.0000000000 0.0000000000 -724.9412595509 0.0195732889 0.4110305974
-0.2000250056 0.8602260883 0.0000000000 0.0000000000 0.0000000000 -691.5623204323 0.0195732889 0.4110305974
-0.2184004077 0.8507674730 0.0000000000 0.0000000000 0.0000000000 -652.8638619220 0.0195732889 0.4110305974
-0.2363692358 0.8405575745 0.0000000000 0.0000000000 0.0000000000 -609.7078042764 0.0195732889 0.4110305974
-0.2539007903 0.8296138365 0.0000000000 0.0000000000 0.0000000000 -562.9278535885 0.0195732889 0.4110305974
-0.2709651189 0.8179549560 0.0000000000 0.0000000000 0.0000000000 -511.8185598095 0.0195732889 0.4110305974
-0.2875330676 0.8056008520 0.0000000000 0.0000000000 0.0000000000 -456.6707270642 0.0195732889 0.4110305974
-0.3035763301 0.7925726314 0.0000000000 0.0000000000 0.0000000000 -401.7917287471 0.0195732889 0.4110305974
-0.3190674970 0.7788925527 0.0000000000 0.0000000000 0.0000000000 -339.3153099167 0.0195732889 0.4110305974
-0.3482886665 0.7496713831 0.0000000000 0.0000000000 0.0000000000 -187.3275677587 0.0195732889 0.4110305974
-0.3619687453 0.7341802162 0.0000000000 0.0000000000 0.0000000000 -156.5627883430 0.0195732889 0.4110305974
-0.3749969659 0.7181369536 0.0000000000 0.0000000000 0.0000000000 -83.7146660114 0.0195732889 0.4110305974
-0.3873510698 0.7015690050 0.0000000000 0.0000000000 0.0000000000 -23.1325753970 0.0195732889 0.4110305974
-0.3990099503 0.6845046763 0.0000000000 0.0000000000 0.0000000000 39.7379546737 0.0195732889 0.4110305974
-0.4099536884 0.6669731218 0.0000000000 0.0000000000 0.0000000000 100.1807513769 0.0195732889 0.4110305974
-0.4201635868 0.6490042938 0.0000000000 0.0000000000 0.0000000000 158.8692628650 0.0195732889 0.4110305974
-0.4296222021 0.6306288917 0.0000000000 0.0000000000 0.0000000000 215.0104087134 0.0195732889 0.4110305974
-0.4383133745 0.6118783096 0.0000000000 0.0000000000 0.0000000000 268.2497880342 0.0195732889 0.4110305974
-0.4462222552 0.5927845825 0.0000000000 0.0000000000 0.0000000000 318.1455685082 0.0195732889 0.4110305974
-0.4533353320 0.5733803319 0.0000000000 0.0000000000 0.0000000000 364.3196644801 0.0195732889 0.4110305974
-0.4596404524 0.5536987094 0.0000000000 0.0000000000 0.0000000000 406.4184734006 0.0195732889 0.4110305974
-0.4651268441 0.5337733408 0.0000000000 0.0000000000 0.0000000000 444.1276310559 0.0195732889 0.4110305974
-0.4697851338 0.5136382683 0.0000000000 0.0000000000 0.0000000000 477.1705035769 0.0195732889 0.4110305974
-0.4736073628 0.4933278924 0.0000000000 0.0000000000 0.0000000000 505.3111837095 0.0195732889 0.4110305974
-0.4765870010 0.4728769129 0.0000000000 0.0000000000 0.0000000000 528.3555294855 0.0195732889 0.4110305974
-0.4787189576 0.4523202700 0.0000000000 0.0000000000 0.0000000000 546.1523996730 0.0195732889 0.4110305974
-0.4799995903 0.4316930843 0.0000000000 0.0000000000 0.0000000000 558.5945289037 0.0195732889 0.4110305974
-0.4804267111 0.4110305972 0.0000000000 0.0000000000 0.0000000000 565.6194584431 0.0195732889 0.4110305974
-0.4799995903 0.3903681101 0.0000000000 0.0000000000 0.0000000000 567.2109104617 0.0195732889 0.4110305974
-0.4787189576 0.3697409245 0.0000000000 0.0000000000 0.0000000000 563.4000362202 0.0195732889 0.4110305974
-0.4765870009 0.3491842816 0.0000000000 0.0000000000 0.0000000000 554.2668427589 0.0195732889 0.4110305974
-0.4736073628 0.3287333021 0.0000000000 0.0000000000 0.0000000000 539.9389939921 0.0195732889 0.4110305974
-0.4697851337 0.3084229261 0.0000000000 0.0000000000 0.0000000000 520.5914663022 0.0195732889 0.4110305974
-0.4651268440 0.2882878536 0.0000000000 0.0000000000 0.0000000000 496.4407094700 0.0195732889 0.4110305974
-0.4596404523 0.2683624851 0.0000000000 0.0000000000 0.0000000000 467.7478869755 0.0195732889 0.4110305974
-0.4533353319 0.2486808626 0.0000000000 0.0000000000 0.0000000000 434.8048102388 0.0195732889 0.4110305974
-0.4462222550 0.2292766119 0.0000000000 0.0000000000 0.0000000000 397.9568115636 0.0195732889 0.4110305974
-0.4383133743 0.2101828849 0.0000000000 0.0000000000 0.0000000000 357.5426569934 0.0195732889 0.4110305974
-0.4296222019 0.1914323028 0.0000000000 0.0000000000 0.0000000000 314.0451542984 0.0195732889 0.4110305974
-0.4201635866 0.1730569007 0.0000000000 0.0000000000 0.0000000000 267.6297418631 0.0195732889 0.4110305974
-0.4099536882 0.1550880727 0.0000000000 0.0000000000 0.0000000000 219.6347777337 0.0195732889 0.4110305974
-0.3990099501 0.1375565182 0.0000000000 0.0000000000 0.0000000000 167.5169942990 0.0195732889 0.4110305974
-0.3873510696 0.1204921895 0.0000000000 0.0000000000 0.0000000000 121.9369720261 0.0195732889 0.4110305974
-0.3749969656 0.1039242409 0.0000000000 0.0000000000 0.0000000000 51.2639452181 0.0195732889 0.4110305974
-0.3619687450 0.0878809783 0.0000000000 0.0000000000 0.0000000000 53.0132567513 0.0195732889 0.4110305974
-0.3482886663 0.0723898114 0.0000000000 0.0000000000 0.0000000000 -183.0723343919 0.0195732889 0.4110305974
-0.3190674967 0.0431686419 0.0000000000 0.0000000000 0.0000000000 -283.0018541196 0.0195732889 0.4110305974
-0.3035763298 0.0294885632 0.0000000000 0.0000000000 0.0000000000 -160.2962288425 0.0195732889 0.4110305974
-0.2875330672 0.0164603426 0.0000000000 0.0000000000 0.0000000000 -265.0392834544 0.0195732889 0.4110305974
-0.2709651186 0.0041062386 0.0000000000 0.0000000000 0.0000000000 -261.6321858165 0.0195732889 0.4110305974
-0.2539007899 -0.0075526419 0.0000000000 0.0000000000 0.0000000000 -319.6811842088 0.0195732889 0.4110305974
-0.2363692354 -0.0184963799 0.0000000000 0.0000000000 0.0000000000 -337.5596441473 0.0195732889 0.4110305974
-0.2184004074 -0.0287062783 0.0000000000 0.0000000000 0.0000000000 -376.8473618047 0.0195732889 0.4110305974
-0.2000250053 -0.0381648936 0.0000000000 0.0000000000 0.0000000000 -398.2692678104 0.0195732889 0.4110305974
-0.1812744232 -0.0468560660 0.0000000000 0.0000000000 0.0000000000 -424.1887801732 0.0195732889 0.4110305974
-0.1621806961 -0.0547649467 0.0000000000 0.0000000000 0.0000000000 -441.1210223057 0.0195732889 0.4110305974
-0.1427764454 -0.0618780235 0.0000000000 0.0000000000 0.0000000000 -456.7122391991 0.0195732889 0.4110305974
-0.1230948230 -0.0681831439 0.0000000000 0.0000000000 0.0000000000 -466.6054308444 0.0195732889 0.4110305974
-0.1031694544 -0.0736695356 0.0000000000 0.0000000000 0.0000000000 -473.3976301127 0.0195732889 0.4110305974
-0.0830343819 -0.0783278253 0.0000000000 0.0000000000 0.0000000000 -475.9323352784 0.0195732889 0.4110305974
-0.0627240060 -0.0821500543 0.0000000000 0.0000000000 0.0000000000 -475.2679400446 0.0195732889 0.4110305974
-0.0422730264 -0.0851296925 0.0000000000 0.0000000000 0.0000000000 -471.3472691808 0.0195732889 0.4110305974
-0.0217163835 -0.0872616491 0.0000000000 0.0000000000 0.0000000000 -464.8135163289 0.0195732889 0.4110305974
-0.0010891979 -0.0885422818 0.0000000000 0.0000000000 0.0000000000 -455.9969614849 0.0195732889 0.4110305974
0.0195732892 -0.0889694026 0.0000000000 0.0000000000 0.0000000000 -445.4345934491 0.0195732889 0.4110305974
0.0402357763 -0.0885422818 0.0000000000 0.0000000000 0.0000000000 -433.5731507612 0.0195732889 0.4110305974
0.0608629619 -0.0872616491 0.0000000000 0.0000000000 0.0000000000 -420.8808088156 0.0195732889 0.4110305974
0.0814196048 -0.0851296924 0.0000000000 0.0000000000 0.0000000000 -407.8007945761 0.0195732889 0.4110305974
0.1018705844 -0.0821500542 0.0000000000 0.0000000000 0.0000000000 -394.7077133321 0.0195732889 0.4110305974
0.1221809603 -0.0783278252 0.0000000000 0.0000000000 0.0000000000 -381.9243066061 0.0195732889 0.4110305974
0.1423160328 -0.0736695355 0.0000000000 0.0000000000 0.0000000000 -369.7531619375 0.0195732889 0.4110305974
0.1622414013 -0.0681831437 0.0000000000 0.0000000000 0.0000000000 -358.4026955110 0.0195732889 0.4110305974
0.1819230238 -0.0618780233 0.0000000000 0.0000000000 0.0000000000 -348.0016794148 0.0195732889 0.4110305974
0.2013272745 -0.0547649465 0.0000000000 0.0000000000 0.0000000000 -338.6679015018 0.0195732889 0.4110305974
0.2204210015 -0.0468560658 0.0000000000 0.0000000000 0.0000000000 -330.4216646864 0.0195732889 0.4110305974
0.2391715836 -0.0381648934 0.0000000000 0.0000000000 0.0000000000 -323.2754886615 0.0195732889 0.4110305974
0.2575469857 -0.0287062780 0.0000000000 0.0000000000 0.0000000000 -317.1253522034 0.0195732889 0.4110305974
0.2755158137 -0.0184963796 0.0000000000 0.0000000000 0.0000000000 -311.8417580717 0.0195732889 0.4110305974
0.2930473682 -0.0075526415 0.0000000000 0.0000000000 0.0000000000 -307.3500839392 0.0195732889 0.4110305974
0.3101116969 0.0041062390 0.0000000000 0.0000000000 0.0000000000 -303.1610264214 0.0195732889 0.4110305974
0.3266796455 0.0164603429 0.0000000000 0.0000000000 0.0000000000 -299.8684299123 0.0195732889 0.4110305974
0.3427229081 0.0294885636 0.0000000000 0.0000000000 0.0000000000 -295.8468215210 0.0195732889 0.4110305974
0.3582140750 0.0431686423 0.0000000000 0.0000000000 0.0000000000 -294.6785498810 0.0195732889 0.4110305974
0.5730200671 -0.0848848410 0.0000000000 0.0160516594 0.0228687658 -274.4457417490 0.0232311629 0.4252447120
0.5916340050 -0.0637308295 0.0000000000 -0.0304911531 0.0295101087 -273.7436945728 0.0231552123 0.4254847286
0.6094248908 -0.0417764157 0.0000000000 -0.0633376506 0.0333936163 -274.1529572286 0.0230512787 0.4258409353
0.6263815248 -0.0191422257 0.0000000000 -0.0833575965 0.0340009147 -276.0176770321 0.0229331896 0.4262229131
0.6424856832 0.0041043014 0.0000000000 -0.0935082434 0.0318889138 -279.4913785448 0.0228066022 0.4265943445
0.6577195073 0.0279143151 0.0000000000 -0.0978902936 0.0285192790 -284.5568318200 0.0226763577 0.4269383721
0.6720653803 0.0522467194 0.0000000000 -0.1004959826 0.0257670474 -291.1297850883 0.0225463272 0.4272467190
0.6855056309 0.0770638687 0.0000000000 -0.1042288224 0.0253591205 -299.1648336152 0.0224190856 0.4275153395
0.6980226170 0.1023295551 0.0000000000 -0.1105516619 0.0285022617 -308.7044476168 0.0222959659 0.4277423591
0.7095990197 0.1280079816 0.0000000000 -0.1196647579 0.0357744203 -319.8707296204 0.0221773277 0.4279269994
0.7202181764 0.1540632264 0.0000000000 -0.1309076719 0.0472029220 -332.8275293746 0.0220628648 0.4280689943
0.7298643577 0.1804589701 0.0000000000 -0.1431460064 0.0624144233 -347.7342886704 0.0219518599 0.4281682662
0.7385229673 0.2071583622 0.0000000000 -0.1550552387 0.0807786550 -364.6998179363 0.0218433628 0.4282247426
0.7461806796 0.2341239635 0.0000000000 -0.1653098354 0.1015177730 -383.7392098968 0.0217363098 0.4282382470
0.7528255409 0.2613177310 0.0000000000 -0.1727109263 0.1237836919 -404.7382293245 0.0216296066 0.4282084311
0.7584470519 0.2887010320 0.0000000000 -0.1762764213 0.1467150229 -427.4309967560 0.0215221969 0.4281347370
0.7630362421 0.3162346810 0.0000000000 -0.1753029015 0.1694826001 -451.3960282239 0.0214131224 0.4280163803
0.7665857376 0.3438789990 0.0000000000 -0.1694000525 0.1913269489 -476.0728767927 0.0213015801 0.4278523557
0.7690898200 0.3715938939 0.0000000000 -0.1584966117 0.2115870945 -500.7978624067 0.0211869721 0.4276414638
0.7705444744 0.3993389643 0.0000000000 -0.1428191485 0.2297188868 -524.8538533383 0.0210689458 0.4273823597
0.7709474232 0.4270736241 0.0000000000 -0.1228486573 0.2453018499 -547.5267242885 0.0209474232 0.4270736238
0.7702981462 0.4547572484 0.0000000000 -0.0992628149 0.2580353150 -568.1605035992 0.0208226176 0.4267138524
0.7685978893 0.4823493370 0.0000000000 -0.0728727217 0.2677262151 -586.2043232811 0.0206950415 0.4263017666
0.7658496634 0.5098096901 0.0000000000 -0.0445618999 0.2742716779 -601.2465637988 0.0205655060 0.4258363328
0.7620582356 0.5370985902 0.0000000000 -0.0152329687 0.2776392006 -613.0342469761 0.0204351160 0.4253168903
0.7572301130 0.5641769815 0.0000000000 0.0142352200 0.2778460744 -621.4780876794 0.0203052581 0.4247432759
0.7513735154 0.5910066392 0.0000000000 0.0430194154 0.2749386261 -626.6453056786 0.0201775813 0.4241159385
0.7444983328 0.6175503187 0.0000000000 0.0703739970 0.2689716346 -628.7432486816 0.0200539632 0.4234360347
0.7366160611 0.6437718791 0.0000000000 0.0956463875 0.2599894340 -628.0971140173 0.0199364568 0.4227054981
0.7277397085 0.6696363719 0.0000000000 0.1182920513 0.2480123709 -625.1245997179 0.0198272108 0.4219270752
0.7178836684 0.6951100901 0.0000000000 0.1379006619 0.2330341725 -620.3092938451 0.0197283570 0.4211043216
0.7070635527 0.7201605704 0.0000000000 0.1542549188 0.2150360320 -614.1735068831 0.0196418608 0.4202415520
0.6952959872 0.7447565401 0.0000000000 0.1674576311 0.1940222624 -607.2508386018 0.0195693363 0.4193437356
0.6825983824 0.7688677990 0.0000000000 0.1781659856 0.1700824340 -600.0593019193 0.0195118374 0.4184163276
0.6689887176 0.7924650312 0.0000000000 0.1879247038 0.1434838438 -593.0761674809 0.0194696649 0.4174650311
0.6544854191 0.8155195605 0.0000000000 0.1994613804 0.1147829715 -586.7143026306 0.0194422697 0.4164955030
0.6391074423 0.8380031159 0.0000000000 0.2166631442 0.0849065755 -581.2977619944 0.0194283616 0.4155130722
0.6228746369 0.8598877733 0.0000000000 0.2439779558 0.0551218386 -577.0364096814 0.0194263021 0.4145226340
0.6058083217 0.8811464037 0.0000000000 0.2852967624 0.0268499187 -574.0076563855 0.0194347099 0.4135290522
0.5879318758 0.9017544379 0.0000000000 0.3427913126 0.0013836163 -572.1593245078 0.0194530835 0.4125388793
0.5692705761 0.9216950853 0.0000000000 0.4163277935 -0.0203380134 -571.3398536664 0.0194816723 0.4115655319
0.5277197155 0.9613676363 0.0000000000 0.6112884838 -0.0519830705 -572.1158686540 0.0197585368 0.4095747032
0.5047297444 0.9809815919 0.0000000000 0.7260326217 -0.0606040040 -573.2376274683 0.0200053161 0.4086685407
0.4809171564 0.9997174911 0.0000000000 0.8416408050 -0.0638551805 -574.4663425279 0.0202576219 0.4078621090
0.4563228558 1.0175253321 0.0000000000 0.9528267959 -0.0619591909 -575.5650624095 0.0205152443 0.4071387940
0.4309888801 1.0343657248 0.0000000000 1.0553215658 -0.0553530377 -576.3246157625 0.0207777616 0.4064908661
0.4049596354 1.0502051868 0.0000000000 1.1460661664 -0.0446606494 -576.5887283263 0.0210458486 0.4059147210
0.3782812271 1.0650149932 0.0000000000 1.2233077055 -0.0306257077 -576.2609454859 0.0213206824 0.4054096797
0.3510008386 1.0787706291 0.0000000000 1.2865418770 -0.0140142149 -575.3000674287 0.0216033971 0.4049773926
0.3231662883 1.0914510424 0.0000000000 1.3363038374 0.0044754214 -573.7040274841 0.0218947200 0.4046210474
0.2948258313 1.1030378692 0.0000000000 1.3738649759 0.0242719864 -571.4892333911 0.0221948535 0.4043445531
0.2660281198 1.1135148140 0.0000000000 1.4009088805 0.0449551113 -568.6713058523 0.0225035180 0.4041518827
0.2368222137 1.1228672198 0.0000000000 1.4192450418 0.0662484571 -565.2502315890 0.0228200456 0.4040466079
0.2072575671 1.1310817781 0.0000000000 1.4305935345 0.0879928969 -561.2008759321 0.0231434519 0.4040315786
0.1773839684 1.1381463386 0.0000000000 1.4364501082 0.1101107824 -556.4688433464 0.0234724618 0.4041087046
0.1472514344 1.1440498014 0.0000000000 1.4380238675 0.1325702856 -550.9711269361 0.0238054918 0.4042788239
0.1169100818 1.1487820932 0.0000000000 1.4362302801 0.1553554996 -544.6005378119 0.0241406085 0.4045416583
0.0864099988 1.1523342253 0.0000000000 1.4317197181 0.1784447290 -537.2326116417 0.0244754899 0.4048958555
0.0558011388 1.1546984169 0.0000000000 1.4249239679 0.2017969792 -528.7336574737 0.0248074083 0.4053390981
0.0251332494 1.1558682499 0.0000000000 1.4161076712 0.2253452903 -518.9688305361 0.0251332496 0.4058682499
-0.0055441599 1.1558388169 0.0000000000 1.4054165365 0.2489950872 -507.8094619212 0.0254495710 0.4064794981
-0.0361818184 1.1546068312 0.0000000000 1.3929182127 0.2726258120 -495.1392349255 0.0257526908 0.4071684615
-0.0667306741 1.1521706796 0.0000000000 1.3786345513 0.2960944621 -480.8590716727 0.0260387995 0.4079302448
-0.0971418644 1.1485304178 0.0000000000 1.3625656479 0.3192400647 -464.8907576884 0.0263040785 0.4087594402
-0.1273666880 1.1436877228 0.0000000000 1.3447068475 0.3418884630 -447.1794090092 0.0265448189 0.4096500888
-0.1573565825 1.1376458206 0.0000000000 1.3250601280 0.3638570361 -427.6949123905 0.0267575330 0.4105956212
-0.1870631091 1.1304094063 0.0000000000 1.3036412047 0.3849591351 -406.4324725289 0.0269390593 0.4115887945
-0.2164379425 1.1219845677 0.0000000000 1.2804834939 0.4050081186 -383.4123985877 0.0270866596 0.4126216365
-0.2454328683 1.1123787150 0.0000000000 1.2556398383 0.4238209299 -358.6792578576 0.0271981098 0.4136853990
-0.2739997873 1.1016005082 0.0000000000 1.2291826688 0.4412212017 -332.3005127202 0.0272717814 0.4147705133
-0.3020907337 1.0896597684 0.0000000000 1.2012030902 0.4570418915 -304.3647395668 0.0273067081 0.4158665320
-0.3296579171 1.0765673383 0.0000000000 1.1718092173 0.4711274734 -274.9795106093 0.0273026278 0.4169620250
-0.3566538042 1.0623348246 0.0000000000 1.1411239452 0.4833357309 -244.2689629651 0.0272599828 0.4180443589
-0.3830312722 1.0469740591 0.0000000000 1.1092822138 0.4935392753 -212.3711412691 0.0271798465 0.4190992006
-0.4087439068 1.0304958651 0.0000000000 1.0764273594 0.5016269736 -179.4344400490 0.0270637049 0.4201093273
-0.4337466260 1.0129069347 0.0000000000 1.0427061970 0.5075065098 -145.6150106534 0.0269129087 0.4210515528
-0.4579968802 0.9942007832 0.0000000000 1.0082558767 0.5111082804 -111.0606541483 0.0267275483 0.4218877322
-0.4814555780 0.9743274436 0.0000000000 0.9731876118 0.5124150840 -75.9398585027 0.0265056009 0.4225345107
-0.5257705680 0.9323290575 0.0000000000 0.9028686339 0.5069328977 -4.9909212339 0.0260223651 0.4243678790
-0.5465311158 0.9103347035 0.0000000000 0.8681706719 0.5002047675 30.1578753301 0.0257819355 0.4256102753
-0.5663322463 0.8873338939 0.0000000000 0.8336928724 0.4910970480 65.0589187026 0.0255231358 0.4266743595
-0.5851359376 0.8634271134 0.0000000000 0.7996595616 0.4795571046 99.5017738583 0.0252506005 0.4276195021
-0.6029056241 0.8386782874 0.0000000000 0.7662729691 0.4655827812 133.2920563098 0.0249692347 0.4284671690
-0.6196082769 0.8131407154 0.0000000000 0.7337261129 0.4491957120 166.2400773464 0.0246821890 0.4292269288
-0.6352138805 0.7868645382 0.0000000000 0.7022086570 0.4304347676 198.1586559314 0.0243914331 0.4299039936
-0.6496950716 0.7598991792 0.0000000000 0.6719083342 0.4093545322 228.8626408670 0.0240981650 0.4305017378
-0.6630269908 0.7322941913 0.0000000000 0.6430110708 0.3860250271 258.1692806169 0.0238030043 0.4310226231
-0.6751872165 0.7040995162 0.0000000000 0.6157004385 0.3605318905 285.8990294168 0.0235060997 0.4314685385
-0.6861557235 0.6753655152 0.0000000000 0.5901567245 0.3329766681 311.8766325352 0.0232072078 0.4318409136
-0.6959148444 0.6461429117 0.0000000000 0.5665557048 0.3034770885 335.9324155872 0.0229057675 0.4321407438
-0.7044492203 0.6164827089 0.0000000000 0.5450671542 0.2721672690 357.9037316317 0.0226009792 0.4323685938
-0.7117457375 0.5864361134 0.0000000000 0.5258531088 0.2391978314 377.6365391899 0.0222918966 0.4325246070
-0.7177934440 0.5560544783 0.0000000000 0.5090659052 0.2047359133 394.9871025819 0.0219775336 0.4326085359
-0.7225834496 0.5253892709 0.0000000000 0.4948460438 0.1689650382 409.8238203772 0.0216569853 0.4326197977
-0.7261088124 0.4944920652 0.0000000000 0.4833199369 0.1320847741 422.0291897235 0.0213295574 0.4325575564
-0.7283644238 0.4634145580 0.0000000000 0.4745976012 0.0943100880 431.5018959915 0.0209948950 0.4324208276
-0.7293469060 0.4322086051 0.0000000000 0.4687703314 0.0558703132 438.1589806758 0.0206530940 0.4322086055
-0.7290545383 0.4009262766 0.0000000000 0.4659084001 0.0170076953 441.9380067020 0.0203047804 0.4319200076
-0.7274872241 0.3696199282 0.0000000000 0.4660588719 -0.0220244686 442.7991315014 0.0199511457 0.4315544376
-0.7246465051 0.3383422896 0.0000000000 0.4692436856 -0.0609640786 440.7270254263 0.0195939297 0.4311117634
-0.7205356217 0.3071465644 0.0000000000 0.4754580865 -0.0995428749 435.7325630506 0.0192353558 0.4305925074
-0.7151596099 0.2760865382 0.0000000000 0.4846694391 -0.1374894865 427.8542106556 0.0188780240 0.4299980452
-0.7085254223 0.2452166846 0.0000000000 0.4968164080 -0.1745328929 417.1590169962 0.0185247771 0.4293308003
-0.7006420638 0.2145922565 0.0000000000 0.5118084796 -0.2104062632 403.7431017076 0.0181785479 0.4285944250
-0.6915207357 0.1842693461 0.0000000000 0.5295258582 -0.2448510841 387.7315466641 0.0178421954 0.4277939483