 TITLE = "Tecplot data"
 VARIABLES = "X", "Y", "Z" "U", "V", "p", "dispX", "dispY"
 ZONE SOLUTIONTIME=194.900000, NODES=26114 , ELEMENTS=25916, DATAPACKING=POINT, ZONETYPE=FEQUADRILATERAL
0.3589779077 0.5443171124 0.0000000000 0.0000000000 0.0000000000 -537.3030701187 0.0054245171 0.1907637218
0.3589779080 -0.1627896685 0.0000000000 0.0000000000 0.0000000000 -345.4741004741 0.0054245171 0.1907637218
-0.3481288736 0.5443171123 0.0000000000 0.0000000000 0.0000000000 -201.0165654094 0.0054245171 0.1907637218
-0.3481288733 -0.1627896690 0.0000000000 0.0000000000 0.0000000000 -101.3079268166 0.0054245171 0.1907637218
0.5358054966 0.7209132726 0.0000000000 0.3849928324 -0.0531945681 -540.9012520067 0.0054754107 0.1905831867
0.5373109179 -0.3329021827 0.0000000000 0.2341227193 -0.0365784560 -318.0799686666 0.0069808316 0.1974279028
-0.5218634540 0.7264607439 0.0000000000 0.8768686936 0.4764086221 0.0970403895 0.0084666321 0.1961306582
-0.5266014470 -0.3363718665 0.0000000000 0.9029097953 -0.5159000661 43.1471808186 0.0037286386 0.1939582197
1.0692040864 1.2539195362 0.0000000000 1.0821742436 -0.0502736653 -144.2050680234 0.0085439148 0.1932593643
1.0645595783 -0.8646361995 0.0000000000 1.3106207329 0.1184324454 -240.4934265947 0.0038994058 0.1960239715
-1.0466950851 1.2695014962 0.0000000000 0.9513244048 0.1514334754 49.6032573284 0.0139650870 0.2088413248
-1.0605128032 -0.8560359511 0.0000000000 0.9686977321 -0.1720804826 84.5961010165 0.0001473680 0.2046242212
4.2238501352 3.4695452345 0.0000000000 1.0086264657 -0.0340178356 14.9584770212 0.0238501352 0.1695452345
4.1865901973 -3.1309571837 0.0000000000 1.0303877448 -0.0129354777 28.2609579432 -0.0134098027 0.1690428163
20.0000000000 4.7000000000 0.0000000000 1.0426356651 0.0369265092 0.2657422984 0.0000000000 0.0000000000
20.0000000000 -4.7000000000 0.0000000000 1.0358166666 -0.0281998881 0.0187544017 0.0000000000 0.0000000000
-10.0000000000 15.0000000000 0.0000000000 1.0000000000 0.0000000000 27.3778430179 0.0000000000 0.0000000000
20.0000000000 15.0000000000 0.0000000000 1.0297623583 0.0000000000 0.0229747473 0.0000000000 0.0000000000
20.0000000000 -15.0000000000 0.0000000000 1.0285658280 0.0000000000 0.0212208047 0.0000000000 0.0000000000
-10.0000000000 -15.0000000000 0.0000000000 1.0000000000 0.0000000000 27.2987663389 0.0000000000 0.0000000000
0.3719504533 -0.1493226468 0.0000000000 0.0000000000 0.0000000000 -343.7905763048 0.0054245171 0.1907637218
0.3844103789 -0.1353799836 0.0000000000 0.0000000000 0.0000000000 -341.5469201243 0.0054245171 0.1907637218
0.3963402586 -0.1209811789 0.0000000000 0.0000000000 0.0000000000 -341.3989851422 0.0054245171 0.1907637218
0.4077234072 -0.1061463707 0.0000000000 0.0000000000 0.0000000000 -342.0316363578 0.0054245171 0.1907637218
0.4185439045 -0.0908963070 0.0000000000 0.0000000000 0.0000000000 -343.8453997023 0.0054245171 0.1907637218
0.4287866169 -0.0752523162 0.0000000000 0.0000000000 0.0000000000 -346.3994557771 0.0054245171 0.1907637218
0.4384372192 -0.0592362779 0.0000000000 0.0000000000 0.0000000000 -349.5959139121 0.0054245171 0.1907637218
0.4474822140 -0.0428705921 0.0000000000 0.0000000000 0.0000000000 -353.2088250552 0.0054245171 0.1907637218
0.4559089512 -0.0261781475 0.0000000000 0.0000000000 0.0000000000 -357.1194678449 0.0054245171 0.1907637218
0.4637056452 -0.0091822901 0.0000000000 0.0000000000 0.0000000000 -361.2132331521 0.0054245171 0.1907637218
0.4708613915 0.0080932099 0.0000000000 0.0000000000 0.0000000000 -365.4120503499 0.0054245171 0.1907637218
0.4773661824 0.0256241911 0.0000000000 0.0000000000 0.0000000000 -369.6403101240 0.0054245171 0.1907637218
0.4832109201 0.0433861348 0.0000000000 0.0000000000 0.0000000000 -373.8255880171 0.0054245171 0.1907637218
0.4883874303 0.0613541995 0.0000000000 0.0000000000 0.0000000000 -377.8926839019 0.0054245171 0.1907637218
0.4928884733 0.0795032551 0.0000000000 0.0000000000 0.0000000000 -381.7710068890 0.0054245171 0.1907637218
0.4967077538 0.0978079184 0.0000000000 0.0000000000 0.0000000000 -385.4034662626 0.0054245171 0.1907637218
0.4998399303 0.1162425889 0.0000000000 0.0000000000 0.0000000000 -388.7585894603 0.0054245171 0.1907637218
0.5022806221 0.1347814840 0.0000000000 0.0000000000 0.0000000000 -391.8408908219 0.0054245171 0.1907637218
0.5040264157 0.1533986752 0.0000000000 0.0000000000 0.0000000000 -394.6982069648 0.0054245171 0.1907637218
0.5050748695 0.1720681249 0.0000000000 0.0000000000 0.0000000000 -397.4237500828 0.0054245171 0.1907637218
0.5054245171 0.1907637220 0.0000000000 0.0000000000 0.0000000000 -400.1522592888 0.0054245171 0.1907637218
0.5050748695 0.2094593191 0.0000000000 0.0000000000 0.0000000000 -403.0501330841 0.0054245171 0.1907637218
0.5040264157 0.2281287688 0.0000000000 0.0000000000 0.0000000000 -406.3006233277 0.0054245171 0.1907637218
0.5022806220 0.2467459600 0.0000000000 0.0000000000 0.0000000000 -410.0857667626 0.0054245171 0.1907637218
0.4998399302 0.2652848551 0.0000000000 0.0000000000 0.0000000000 -414.5670568101 0.0054245171 0.1907637218
0.4967077537 0.2837195255 0.0000000000 0.0000000000 0.0000000000 -419.8682642725 0.0054245171 0.1907637218
0.4928884732 0.3020241889 0.0000000000 0.0000000000 0.0000000000 -426.0574593580 0.0054245171 0.1907637218
0.4883874302 0.3201732445 0.0000000000 0.0000000000 0.0000000000 -433.1489362327 0.0054245171 0.1907637218
0.4832109200 0.3381413091 0.0000000000 0.0000000000 0.0000000000 -441.0562730035 0.0054245171 0.1907637218
0.4773661822 0.3559032529 0.0000000000 0.0000000000 0.0000000000 -449.7386104945 0.0054245171 0.1907637218
0.4708613914 0.3734342341 0.0000000000 0.0000000000 0.0000000000 -458.7328352625 0.0054245171 0.1907637218
0.4637056450 0.3907097341 0.0000000000 0.0000000000 0.0000000000 -468.4785900395 0.0054245171 0.1907637218
0.4559089510 0.4077055915 0.0000000000 0.0000000000 0.0000000000 -474.6345190908 0.0054245171 0.1907637218
0.4474822138 0.4243980360 0.0000000000 0.0000000000 0.0000000000 -488.4306795067 0.0054245171 0.1907637218
0.4384372190 0.4407637219 0.0000000000 0.0000000000 0.0000000000 -496.0415427914 0.0054245171 0.1907637218
0.4287866167 0.4567797601 0.0000000000 0.0000000000 0.0000000000 -504.6673866576 0.0054245171 0.1907637218
0.4185439042 0.4724237509 0.0000000000 0.0000000000 0.0000000000 -512.1006898036 0.0054245171 0.1907637218
0.4077234069 0.4876738146 0.0000000000 0.0000000000 0.0000000000 -518.7354101470 0.0054245171 0.1907637218
0.3963402583 0.5025086228 0.0000000000 0.0000000000 0.0000000000 -524.5454348234 0.0054245171 0.1907637218
0.3844103786 0.5169074275 0.0000000000 0.0000000000 0.0000000000 -529.4045565339 0.0054245171 0.1907637218
0.3719504530 0.5308500907 0.0000000000 0.0000000000 0.0000000000 -533.7321149764 0.0054245171 0.1907637218
0.3440653029 0.5586256772 0.0000000000 0.0000000000 0.0000000000 -541.1340677374 0.0054245171 0.1907637218
0.3285741360 0.5723057559 0.0000000000 0.0000000000 0.0000000000 -544.6534433745 0.0054245171 0.1907637218
0.3125308734 0.5853339765 0.0000000000 0.0000000000 0.0000000000 -548.5729322167 0.0054245171 0.1907637218
0.2959629248 0.5976880805 0.0000000000 0.0000000000 0.0000000000 -552.9122493537 0.0054245171 0.1907637218
0.2788985961 0.6093469610 0.0000000000 0.0000000000 0.0000000000 -558.0697574567 0.0054245171 0.1907637218
0.2613670416 0.6202906990 0.0000000000 0.0000000000 0.0000000000 -564.0979426834 0.0054245171 0.1907637218
0.2433982136 0.6305005974 0.0000000000 0.0000000000 0.0000000000 -571.1368972880 0.0054245171 0.1907637218
0.2250228115 0.6399592128 0.0000000000 0.0000000000 0.0000000000 -579.1818276488 0.0054245171 0.1907637218
0.2062722294 0.6486503852 0.0000000000 0.0000000000 0.0000000000 -588.2391178757 0.0054245171 0.1907637218
0.1871785023 0.6565592658 0.0000000000 0.0000000000 0.0000000000 -598.2481761617 0.0054245171 0.1907637218
0.1677742516 0.6636723427 0.0000000000 0.0000000000 0.0000000000 -609.1491174335 0.0054245171 0.1907637218
0.1480926292 0.6699774630 0.0000000000 0.0000000000 0.0000000000 -620.8157884462 0.0054245171 0.1907637218
0.1281672606 0.6754638548 0.0000000000 0.0000000000 0.0000000000 -633.0817678631 0.0054245171 0.1907637218
0.1080321881 0.6801221445 0.0000000000 0.0000000000 0.0000000000 -645.7166393293 0.0054245171 0.1907637218
0.0877218122 0.6839443735 0.0000000000 0.0000000000 0.0000000000 -658.4299994208 0.0054245171 0.1907637218
0.0672708327 0.6869240117 0.0000000000 0.0000000000 0.0000000000 -670.8743660995 0.0054245171 0.1907637218
0.0467141898 0.6890559683 0.0000000000 0.0000000000 0.0000000000 -682.6478864923 0.0054245171 0.1907637218
0.0260870041 0.6903366010 0.0000000000 0.0000000000 0.0000000000 -693.3185432318 0.0054245171 0.1907637218
0.0054245170 0.6907637218 0.0000000000 0.0000000000 0.0000000000 -702.4017514446 0.0054245171 0.1907637218
-0.0152379701 0.6903366010 0.0000000000 0.0000000000 0.0000000000 -709.4650258412 0.0054245171 0.1907637218
-0.0358651557 0.6890559683 0.0000000000 0.0000000000 0.0000000000 -713.9354561842 0.0054245171 0.1907637218
-0.0564217986 0.6869240116 0.0000000000 0.0000000000 0.0000000000 -715.5079915970 0.0054245171 0.1907637218
-0.0768727781 0.6839443735 0.0000000000 0.0000000000 0.0000000000 -713.6356426526 0.0054245171 0.1907637218
-0.0971831541 0.6801221444 0.0000000000 0.0000000000 0.0000000000 -708.1342251866 0.0054245171 0.1907637218
-0.1173182266 0.6754638547 0.0000000000 0.0000000000 0.0000000000 -698.4585519386 0.0054245171 0.1907637218
-0.1372435951 0.6699774630 0.0000000000 0.0000000000 0.0000000000 -684.6230472624 0.0054245171 0.1907637218
-0.1569252176 0.6636723426 0.0000000000 0.0000000000 0.0000000000 -666.3827282686 0.0054245171 0.1907637218
-0.1763294683 0.6565592658 0.0000000000 0.0000000000 0.0000000000 -643.4615219089 0.0054245171 0.1907637218
-0.1954231953 0.6486503851 0.0000000000 0.0000000000 0.0000000000 -616.3554243371 0.0054245171 0.1907637218
-0.2141737774 0.6399592127 0.0000000000 0.0000000000 0.0000000000 -584.5496351706 0.0054245171 0.1907637218
-0.2325491795 0.6305005973 0.0000000000 0.0000000000 0.0000000000 -548.5315128884 0.0054245171 0.1907637218
-0.2505180076 0.6202906989 0.0000000000 0.0000000000 0.0000000000 -509.4264368720 0.0054245171 0.1907637218
-0.2680495621 0.6093469608 0.0000000000 0.0000000000 0.0000000000 -462.3140545553 0.0054245171 0.1907637218
-0.2851138907 0.5976880803 0.0000000000 0.0000000000 0.0000000000 -429.5921278128 0.0054245171 0.1907637218
-0.3016818393 0.5853339764 0.0000000000 0.0000000000 0.0000000000 -328.8374849598 0.0054245171 0.1907637218
-0.3177251019 0.5723057558 0.0000000000 0.0000000000 0.0000000000 -312.2346848056 0.0054245171 0.1907637218
-0.3332162688 0.5586256770 0.0000000000 0.0000000000 0.0000000000 -256.3375530939 0.0054245171 0.1907637218
-0.3624374383 0.5294045075 0.0000000000 0.0000000000 0.0000000000 -142.8720097249 0.0054245171 0.1907637218
-0.3761175171 0.5139133406 0.0000000000 0.0000000000 0.0000000000 -84.6051974702 0.0054245171 0.1907637218
-0.3891457377 0.4978700780 0.0000000000 0.0000000000 0.0000000000 -25.9985817880 0.0054245171 0.1907637218
-0.4014998416 0.4813021294 0.0000000000 0.0000000000 0.0000000000 32.1826462332 0.0054245171 0.1907637218
-0.4131587221 0.4642378007 0.0000000000 0.0000000000 0.0000000000 89.5036003928 0.0054245171 0.1907637218
-0.4241024602 0.4467062462 0.0000000000 0.0000000000 0.0000000000 145.4417954437 0.0054245171 0.1907637218
-0.4343123586 0.4287374182 0.0000000000 0.0000000000 0.0000000000 199.5178821218 0.0054245171 0.1907637218
-0.4437709739 0.4103620161 0.0000000000 0.0000000000 0.0000000000 251.2606911009 0.0054245171 0.1907637218
-0.4524621463 0.3916114340 0.0000000000 0.0000000000 0.0000000000 300.2221408782 0.0054245171 0.1907637218
-0.4603710270 0.3725177069 0.0000000000 0.0000000000 0.0000000000 345.9773457853 0.0054245171 0.1907637218
-0.4674841038 0.3531134562 0.0000000000 0.0000000000 0.0000000000 388.1290173293 0.0054245171 0.1907637218
-0.4737892242 0.3334318337 0.0000000000 0.0000000000 0.0000000000 426.3104095182 0.0054245171 0.1907637218
-0.4792756159 0.3135064652 0.0000000000 0.0000000000 0.0000000000 460.1883973049 0.0054245171 0.1907637218
-0.4839339056 0.2933713927 0.0000000000 0.0000000000 0.0000000000 489.4663313918 0.0054245171 0.1907637218
-0.4877561346 0.2730610167 0.0000000000 0.0000000000 0.0000000000 513.8863566070 0.0054245171 0.1907637218
-0.4907357728 0.2526100372 0.0000000000 0.0000000000 0.0000000000 533.2320091284 0.0054245171 0.1907637218
-0.4928677294 0.2320533943 0.0000000000 0.0000000000 0.0000000000 547.3294309754 0.0054245171 0.1907637218
-0.4941483621 0.2114262087 0.0000000000 0.0000000000 0.0000000000 556.0504516307 0.0054245171 0.1907637218
-0.4945754829 0.1907637216 0.0000000000 0.0000000000 0.0000000000 559.3114904001 0.0054245171 0.1907637218
-0.4941483621 0.1701012345 0.0000000000 0.0000000000 0.0000000000 557.0797890239 0.0054245171 0.1907637218
-0.4928677294 0.1494740488 0.0000000000 0.0000000000 0.0000000000 549.3651699778 0.0054245171 0.1907637218
-0.4907357727 0.1289174059 0.0000000000 0.0000000000 0.0000000000 536.2380323558 0.0054245171 0.1907637218
-0.4877561346 0.1084664264 0.0000000000 0.0000000000 0.0000000000 517.7963242598 0.0054245171 0.1907637218
-0.4839339055 0.0881560505 0.0000000000 0.0000000000 0.0000000000 494.2264790136 0.0054245171 0.1907637218
-0.4792756158 0.0680209780 0.0000000000 0.0000000000 0.0000000000 465.6854569676 0.0054245171 0.1907637218
-0.4737892241 0.0480956095 0.0000000000 0.0000000000 0.0000000000 432.5178641104 0.0054245171 0.1907637218
-0.4674841037 0.0284139870 0.0000000000 0.0000000000 0.0000000000 394.8415439822 0.0054245171 0.1907637218
-0.4603710268 0.0090097363 0.0000000000 0.0000000000 0.0000000000 353.3212312085 0.0054245171 0.1907637218
-0.4524621461 -0.0100839907 0.0000000000 0.0000000000 0.0000000000 307.7043284618 0.0054245171 0.1907637218
-0.4437709737 -0.0288345728 0.0000000000 0.0000000000 0.0000000000 259.5738471271 0.0054245171 0.1907637218
-0.4343123584 -0.0472099749 0.0000000000 0.0000000000 0.0000000000 207.1360022011 0.0054245171 0.1907637218
-0.4241024600 -0.0651788030 0.0000000000 0.0000000000 0.0000000000 155.1035177369 0.0054245171 0.1907637218
-0.4131587219 -0.0827103575 0.0000000000 0.0000000000 0.0000000000 95.7876168499 0.0054245171 0.1907637218
-0.4014998414 -0.0997746861 0.0000000000 0.0000000000 0.0000000000 45.6483852980 0.0054245171 0.1907637218
-0.3891457374 -0.1163426347 0.0000000000 0.0000000000 0.0000000000 -25.9508539791 0.0054245171 0.1907637218
-0.3761175168 -0.1323858973 0.0000000000 0.0000000000 0.0000000000 -54.8531681575 0.0054245171 0.1907637218
-0.3624374381 -0.1478770642 0.0000000000 0.0000000000 0.0000000000 -97.9609936216 0.0054245171 0.1907637218
-0.3332162685 -0.1770982337 0.0000000000 0.0000000000 0.0000000000 -314.9674984996 0.0054245171 0.1907637218
-0.3177251016 -0.1907783125 0.0000000000 0.0000000000 0.0000000000 -224.8498907672 0.0054245171 0.1907637218
-0.3016818390 -0.2038065331 0.0000000000 0.0000000000 0.0000000000 -367.1905789754 0.0054245171 0.1907637218
-0.2851138904 -0.2161606370 0.0000000000 0.0000000000 0.0000000000 -384.8644878863 0.0054245171 0.1907637218
-0.2680495617 -0.2278195175 0.0000000000 0.0000000000 0.0000000000 -445.7596081487 0.0054245171 0.1907637218
-0.2505180072 -0.2387632555 0.0000000000 0.0000000000 0.0000000000 -472.5420696011 0.0054245171 0.1907637218
-0.2325491792 -0.2489731539 0.0000000000 0.0000000000 0.0000000000 -515.6321100007 0.0054245171 0.1907637218
-0.2141737771 -0.2584317693 0.0000000000 0.0000000000 0.0000000000 -541.8821836570 0.0054245171 0.1907637218
-0.1954231950 -0.2671229416 0.0000000000 0.0000000000 0.0000000000 -571.3434581818 0.0054245171 0.1907637218
-0.1763294679 -0.2750318223 0.0000000000 0.0000000000 0.0000000000 -591.5475705662 0.0054245171 0.1907637218
-0.1569252172 -0.2821448991 0.0000000000 0.0000000000 0.0000000000 -609.6230872771 0.0054245171 0.1907637218
-0.1372435947 -0.2884500195 0.0000000000 0.0000000000 0.0000000000 -621.3607267785 0.0054245171 0.1907637218
-0.1173182262 -0.2939364112 0.0000000000 0.0000000000 0.0000000000 -629.2258528423 0.0054245171 0.1907637218
-0.0971831537 -0.2985947009 0.0000000000 0.0000000000 0.0000000000 -632.0707183551 0.0054245171 0.1907637218
-0.0768727777 -0.3024169300 0.0000000000 0.0000000000 0.0000000000 -630.9011539866 0.0054245171 0.1907637218
-0.0564217982 -0.3053965681 0.0000000000 0.0000000000 0.0000000000 -625.6382300585 0.0054245171 0.1907637218
-0.0358651553 -0.3075285247 0.0000000000 0.0000000000 0.0000000000 -616.9390715199 0.0054245171 0.1907637218
-0.0152379697 -0.3088091574 0.0000000000 0.0000000000 0.0000000000 -605.1532656662 0.0054245171 0.1907637218
0.0054245174 -0.3092362782 0.0000000000 0.0000000000 0.0000000000 -590.8700350655 0.0054245171 0.1907637218
0.0260870045 -0.3088091574 0.0000000000 0.0000000000 0.0000000000 -574.6235133001 0.0054245171 0.1907637218
0.0467141902 -0.3075285247 0.0000000000 0.0000000000 0.0000000000 -556.9548692058 0.0054245171 0.1907637218
0.0672708331 -0.3053965680 0.0000000000 0.0000000000 0.0000000000 -538.4311331174 0.0054245171 0.1907637218
0.0877218126 -0.3024169299 0.0000000000 0.0000000000 0.0000000000 -519.5533505996 0.0054245171 0.1907637218
0.1080321885 -0.2985947008 0.0000000000 0.0000000000 0.0000000000 -500.7796590383 0.0054245171 0.1907637218
0.1281672610 -0.2939364111 0.0000000000 0.0000000000 0.0000000000 -482.5208027333 0.0054245171 0.1907637218
0.1480926295 -0.2884500193 0.0000000000 0.0000000000 0.0000000000 -465.0685649109 0.0054245171 0.1907637218
0.1677742520 -0.2821448989 0.0000000000 0.0000000000 0.0000000000 -448.7035237511 0.0054245171 0.1907637218
0.1871785027 -0.2750318221 0.0000000000 0.0000000000 0.0000000000 -433.5557305029 0.0054245171 0.1907637218
0.2062722297 -0.2671229414 0.0000000000 0.0000000000 0.0000000000 -419.7675662283 0.0054245171 0.1907637218
0.2250228118 -0.2584317690 0.0000000000 0.0000000000 0.0000000000 -407.3118173853 0.0054245171 0.1907637218
0.2433982139 -0.2489731536 0.0000000000 0.0000000000 0.0000000000 -396.2061987640 0.0054245171 0.1907637218
0.2613670420 -0.2387632552 0.0000000000 0.0000000000 0.0000000000 -386.3461504804 0.0054245171 0.1907637218
0.2788985965 -0.2278195171 0.0000000000 0.0000000000 0.0000000000 -377.4455949826 0.0054245171 0.1907637218
0.2959629251 -0.2161606366 0.0000000000 0.0000000000 0.0000000000 -369.8079349395 0.0054245171 0.1907637218
0.3125308737 -0.2038065327 0.0000000000 0.0000000000 0.0000000000 -362.5963240294 0.0054245171 0.1907637218
0.3285741363 -0.1907783121 0.0000000000 0.0000000000 0.0000000000 -354.8373073227 0.0054245171 0.1907637218
0.3440653032 -0.1770982333 0.0000000000 0.0000000000 0.0000000000 -351.5700430173 0.0054245171 0.1907637218
0.5568242712 -0.3128035389 0.0000000000 0.1507999217 -0.0472409452 -313.1773208013 0.0070353670 0.1973260140
0.5754837931 -0.2917794942 0.0000000000 0.0858817645 -0.0630056631 -309.1819207492 0.0070050004 0.1974360638
0.5933349744 -0.2700173928 0.0000000000 0.0431788251 -0.0854363687 -306.5434491701 0.0069613623 0.1975999582
0.6103597088 -0.2475893457 0.0000000000 0.0228123543 -0.1153663555 -305.6313854617 0.0069113737 0.1977757931
0.6265369037 -0.2245432584 0.0000000000 0.0208281397 -0.1521328881 -306.5843363082 0.0068578227 0.1979467847
0.6418461474 -0.2009188948 0.0000000000 0.0305240418 -0.1936526666 -309.3194834925 0.0068029977 0.1981051622
0.6562677373 -0.1767528775 0.0000000000 0.0449149203 -0.2371362184 -313.6461344231 0.0067486842 0.1982471221
0.6697825849 -0.1520806568 0.0000000000 0.0586497946 -0.2798870210 -319.3598768562 0.0066960395 0.1983708140
0.6823722828 -0.1269374173 0.0000000000 0.0684882963 -0.3197612790 -326.2458339225 0.0066456316 0.1984753866
0.6940192619 -0.1013585269 0.0000000000 0.0728365541 -0.3553015284 -334.0430420373 0.0065975698 0.1985604909
0.7047069630 -0.0753797575 0.0000000000 0.0711701220 -0.3857158452 -342.4387771829 0.0065516513 0.1986260104
0.7144199792 -0.0490373842 0.0000000000 0.0636564231 -0.4107774185 -351.1011525474 0.0065074814 0.1986719119
0.7231441618 -0.0223682195 0.0000000000 0.0509089047 -0.4306538333 -359.7229598996 0.0064645573 0.1986981609
0.7308666945 0.0045903880 0.0000000000 0.0337921650 -0.4457023194 -368.0559868190 0.0064223247 0.1987046714
0.7375761513 0.0318005749 0.0000000000 0.0132741532 -0.4562928989 -375.9301282463 0.0063802171 0.1986912750
0.7432625431 0.0592239980 0.0000000000 -0.0096618990 -0.4627033169 -383.2597620531 0.0063376881 0.1986577030
0.7479173600 0.0868218801 0.0000000000 -0.0340533671 -0.4650914717 -390.0419675335 0.0062942403 0.1986035794
0.7515336091 0.1145550667 0.0000000000 -0.0589650803 -0.4635232655 -396.3500607501 0.0062494517 0.1985284234
0.7541058473 0.1423840927 0.0000000000 -0.0834904624 -0.4580263456 -402.3236941819 0.0062029994 0.1984316626
0.7556302070 0.1702692601 0.0000000000 -0.1067612703 -0.4486466823 -408.1550739752 0.0061546783 0.1983126555
0.7561044150 0.1981707254 0.0000000000 -0.1279698547 -0.4354950252 -414.0704893016 0.0061044150 0.1981707251
0.7555278035 0.2260485971 0.0000000000 -0.1464000596 -0.4187777490 -420.3072320911 0.0060522749 0.1980052011
0.7539013142 0.2538630418 0.0000000000 -0.1614581372 -0.3988102888 -427.0874949271 0.0059984664 0.1978154713
0.7512274972 0.2815743946 0.0000000000 -0.1726930268 -0.3760130644 -434.5922097943 0.0059433398 0.1976010372
0.7475105049 0.3091432740 0.0000000000 -0.1797963630 -0.3508916142 -442.9383761789 0.0058873852 0.1973615741
0.7427560807 0.3365306944 0.0000000000 -0.1825774582 -0.3240055610 -452.1628649127 0.0058312258 0.1970969888
0.7369715425 0.3636981740 0.0000000000 -0.1809172237 -0.2959342570 -462.2141043259 0.0057756084 0.1968074733
0.7301657567 0.3906078333 0.0000000000 -0.1747152628 -0.2672485157 -472.9511728931 0.0057213871 0.1964935492
0.7223491019 0.4172224809 0.0000000000 -0.1638515193 -0.2384958694 -484.1487142566 0.0056694976 0.1961560999
0.7135334177 0.4435056837 0.0000000000 -0.1481826122 -0.2102010888 -495.5065564787 0.0056209201 0.1957963871
0.7037319372 0.4694218174 0.0000000000 -0.1275807811 -0.1828765525 -506.6647195339 0.0055766258 0.1954160489
0.6929592006 0.4949360948 0.0000000000 -0.1020034334 -0.1570322141 -517.2261155286 0.0055375088 0.1950170763
0.6812309510 0.5200145679 0.0000000000 -0.0715626119 -0.1331752567 -526.7887125977 0.0055043002 0.1946017634
0.6685640189 0.5446240999 0.0000000000 -0.0365566244 -0.1117947085 -534.9854990145 0.0054774738 0.1941726286
0.6549762126 0.5687323033 0.0000000000 0.0025648619 -0.0933326630 -541.5259398784 0.0054571599 0.1937323032
0.6404862543 0.5923074527 0.0000000000 0.0453104739 -0.0781467469 -546.2300015317 0.0054431049 0.1932833952
0.6251138085 0.6153184025 0.0000000000 0.0913167493 -0.0664664078 -549.0472040732 0.0054347278 0.1928283589
0.6088796422 0.6377345879 0.0000000000 0.1405411732 -0.0583417608 -550.0574356673 0.0054313075 0.1923694486
0.5918058807 0.6595262597 0.0000000000 0.1934189166 -0.0535849442 -549.4546153113 0.0054322689 0.1919089082
0.5739162781 0.6806653308 0.0000000000 0.2509020362 -0.0517155716 -547.5170159108 0.0054374858 0.1914497723
0.5552361754 0.7011278200 0.0000000000 0.3143060035 -0.0519371422 -544.5671678764 0.0054472716 0.1909982666
0.5135294379 0.7418685451 0.0000000000 0.4720445637 -0.0543210818 -536.5772656925 0.0055682593 0.1900756120
0.4904024830 0.7619691653 0.0000000000 0.5684222430 -0.0536442589 -532.0713082179 0.0056780547 0.1896561141
0.4664493548 0.7811380591 0.0000000000 0.6713207339 -0.0500213834 -527.6961755392 0.0057898204 0.1892826770
0.4417110839 0.7993341220 0.0000000000 0.7765732741 -0.0428725985 -523.6203499266 0.0059034724 0.1889475840
0.4162300108 0.8165221118 0.0000000000 0.8793622162 -0.0321872288 -519.9035877484 0.0060188923 0.1886472531
0.3900502728 0.8326704995 0.0000000000 0.9751880855 -0.0183690244 -516.5141177396 0.0061364861 0.1883800336
0.3632174358 0.8477509531 0.0000000000 1.0605854272 -0.0020535151 -513.3568208975 0.0062568911 0.1881456396
0.3357781595 0.8617381024 0.0000000000 1.1334607299 0.0160546547 -510.3067184367 0.0063807179 0.1879448660
0.3077799496 0.8746092120 0.0000000000 1.1930927486 0.0353039759 -507.2356083033 0.0065083812 0.1877792170
0.2792710228 0.8863438436 0.0000000000 1.2399023974 0.0551732077 -504.0263598846 0.0066400450 0.1876505275
0.2503002452 0.8969235902 0.0000000000 1.2751063950 0.0753040415 -500.5758905965 0.0067756434 0.1875606589
0.2209170912 0.9063318958 0.0000000000 1.3003522790 0.0954959359 -496.7908413284 0.0069149232 0.1875112840
0.1911715924 0.9145539394 0.0000000000 1.3174042857 0.1156752853 -492.5801290224 0.0070574772 0.1875037399
0.1611142623 0.9215765607 0.0000000000 1.3279165769 0.1358529289 -487.8476536185 0.0072027557 0.1875389266
0.1307960015 0.9273882236 0.0000000000 1.3333004609 0.1560817928 -482.4873083270 0.0073500589 0.1876172460
0.1002679909 0.9319790157 0.0000000000 1.3346718210 0.1764220720 -476.3812767892 0.0074985176 0.1877385809
0.0695815854 0.9353406834 0.0000000000 1.3328555671 0.1969169198 -469.4015573898 0.0076470765 0.1879023136
0.0387882180 0.9374666954 0.0000000000 1.3284233642 0.2175783690 -461.4139417858 0.0077944875 0.1881073766
0.0079393198 0.9383523189 0.0000000000 1.3217454522 0.2383814723 -452.2833878780 0.0079393199 0.1883523189
-0.0229137421 0.9379946906 0.0000000000 1.3130436314 0.2592641510 -441.8797947920 0.0080799887 0.1886353718
-0.0537197116 0.9363928686 0.0000000000 1.3024382441 0.2801304877 -430.0834468279 0.0082147977 0.1889544988
-0.0844274816 0.9335478555 0.0000000000 1.2899862431 0.3008557679 -416.7896922842 0.0083419920 0.1893074207
-0.1149861276 0.9294625943 0.0000000000 1.2757100778 0.3212921547 -401.9126692300 0.0084598153 0.1896916167
-0.1453449418 0.9241419415 0.0000000000 1.2596184793 0.3412743560 -385.3880530711 0.0085665650 0.1901043076
-0.1754534699 0.9175926279 0.0000000000 1.2417207053 0.3606249597 -367.1748893536 0.0086606457 0.1905424285
-0.2052615505 0.9098232136 0.0000000000 1.2220358039 0.3791593005 -347.2566129998 0.0087406178 0.1910026018
-0.2347193581 0.9008440426 0.0000000000 1.2005982352 0.3966898267 -325.6413643041 0.0088052439 0.1914811114
-0.2637774477 0.8906671989 0.0000000000 1.1774608989 0.4130299731 -302.3617068863 0.0088535304 0.1919738829
-0.2923868031 0.8793064589 0.0000000000 1.1526963517 0.4279975679 -277.4738422815 0.0088847656 0.1924764640
-0.3204988912 0.8667772346 0.0000000000 1.1263967666 0.4414178008 -251.0564026244 0.0088985506 0.1929839983
-0.3480657259 0.8530964916 0.0000000000 1.0986730210 0.4531257805 -223.2088919124 0.0088948191 0.1934911783
-0.3750399489 0.8382826098 0.0000000000 1.0696531554 0.4629687096 -194.0498223426 0.0088738381 0.1939921441
-0.4013749410 0.8223551125 0.0000000000 1.0394803430 0.4708077340 -163.7146120586 0.0088361778 0.1944802539
-0.4270249933 0.8053340717 0.0000000000 1.0083102748 0.4765195429 -132.3530189901 0.0087826184 0.1949475339
-0.4519456134 0.7872386366 0.0000000000 0.9763078106 0.4799982141 -100.1268239270 0.0087139213 0.1953832547
-0.4760940477 0.7680828110 0.0000000000 0.9436399331 0.4811573959 -67.2020360404 0.0086303808 0.1957697600
-0.4994294930 0.7478613303 0.0000000000 0.9104663819 0.4799430642 -33.7587070308 0.0085316859 0.1960683975
-0.5434781481 0.7048764633 0.0000000000 0.8438306382 0.4697856862 33.7521962731 0.0083147850 0.1969152847
-0.5641070030 0.6822139924 0.0000000000 0.8108758600 0.4608195897 67.2925868894 0.0082060483 0.1974895641
-0.5837648513 0.6586408067 0.0000000000 0.7782864016 0.4493671365 100.5285419027 0.0080905309 0.1979812724
-0.6024167791 0.6342255848 0.0000000000 0.7462871615 0.4354206466 133.2444850008 0.0079697590 0.1984179734
-0.6200291199 0.6090207624 0.0000000000 0.7150925862 0.4190041574 165.2330353766 0.0078457389 0.1988096440
-0.6365706934 0.5830745339 0.0000000000 0.6849110557 0.4001630179 196.2900072668 0.0077197726 0.1991607473
-0.6520126614 0.5564342698 0.0000000000 0.6559464630 0.3789611959 226.2143487985 0.0075926522 0.1994737252
-0.6663284097 0.5291476055 0.0000000000 0.6283977078 0.3554804530 254.8089435823 0.0074648268 0.1997501641
-0.6794935117 0.5012627897 0.0000000000 0.6024576423 0.3298198660 281.8818000055 0.0073364834 0.1999912214
-0.6914857228 0.4728287612 0.0000000000 0.5783117584 0.3020954324 307.2474041032 0.0072075933 0.2001977835
-0.7022849823 0.4438951192 0.0000000000 0.5561367758 0.2724396366 330.7281495917 0.0070779490 0.2003705176
-0.7118734141 0.4145120515 0.0000000000 0.5360992073 0.2410009435 352.1558077675 0.0069471979 0.2005098836
-0.7202353193 0.3847302515 0.0000000000 0.5183539611 0.2079431946 371.3730220423 0.0068148802 0.2006161364
-0.7273571615 0.3546008368 0.0000000000 0.5030430182 0.1734448842 388.2348256920 0.0066804726 0.2006893304
-0.7332275402 0.3241752768 0.0000000000 0.4902941810 0.1376982761 402.6101845122 0.0065434374 0.2007293344
-0.7378371554 0.2935053309 0.0000000000 0.4802198346 0.1009083193 414.3835527172 0.0064032794 0.2007358577
-0.7411787638 0.2626429983 0.0000000000 0.4729156274 0.0632913494 423.4564054187 0.0062596060 0.2007084895
-0.7432471331 0.2316404783 0.0000000000 0.4684590234 0.0250736016 429.7486959313 0.0061121857 0.2006467479
-0.7440390005 0.2005501398 0.0000000000 0.4669077791 -0.0135104206 433.2001982864 0.0059609995 0.2005501401
-0.7435530413 0.1694244996 0.0000000000 0.4682984882 -0.0522196981 433.7717225819 0.0058062775 0.2004182306
-0.7417898560 0.1383162088 0.0000000000 0.4726453021 -0.0908085672 431.4461852951 0.0056485138 0.2002507182
-0.7387519756 0.1072780455 0.0000000000 0.4799389375 -0.1290287118 426.2295204797 0.0054884591 0.2000475193
-0.7344438879 0.0763629143 0.0000000000 0.4901460891 -0.1666313085 418.1514231502 0.0053270896 0.1998088573
-0.7288720771 0.0456238485 0.0000000000 0.5032092600 -0.2033693658 407.2658807385 0.0051655569 0.1995353555
-0.7220450751 0.0151140122 0.0000000000 0.5190469616 -0.2390002717 393.6514325806 0.0050051243 0.1992281279
-0.7139735174 -0.0151133058 0.0000000000 0.5375541997 -0.2732885207 377.4110974648 0.0048470943 0.1988888627