 TITLE = "Tecplot data"
 VARIABLES = "X", "Y", "Z" "U", "V", "p", "dispX", "dispY"
 ZONE SOLUTIONTIME=109.900000, NODES=26114 , ELEMENTS=25916, DATAPACKING=POINT, ZONETYPE=FEQUADRILATERAL
0.3889457562 -0.0210402850 0.0000000000 0.0000000000 0.0000000000 -309.6310844998 0.0353923656 -0.3745936756
0.3889457565 -0.7281470659 0.0000000000 0.0000000000 0.0000000000 -625.6613473475 0.0353923656 -0.3745936756
-0.3181610251 -0.0210402851 0.0000000000 0.0000000000 0.0000000000 -133.9480889128 0.0353923656 -0.3745936756
-0.3181610248 -0.7281470664 0.0000000000 0.0000000000 0.0000000000 -180.6527926887 0.0353923656 -0.3745936756
0.5648373872 0.1562594454 0.0000000000 0.1481552285 0.0453864339 -283.6720610191 0.0345073013 -0.3740706405
0.5638499541 -0.9176000661 0.0000000000 0.4766576927 0.0491264034 -627.3240084848 0.0335198678 -0.3872699806
-0.4996367170 0.1456623545 0.0000000000 0.8713239879 0.5028005644 79.5058823929 0.0306933690 -0.3846677312
-0.4916451520 -0.9111554718 0.0000000000 0.8975779032 -0.4910524734 -20.8316302942 0.0386849336 -0.3808253857
1.0898898986 0.6812801503 0.0000000000 1.3315546570 -0.0846097168 -220.1632458766 0.0292297269 -0.3793800216
1.0993769153 -1.4450018845 0.0000000000 1.0842035173 0.1374529903 -190.4531886664 0.0387167427 -0.3843417135
-1.0394549865 0.6516450944 0.0000000000 0.9553462715 0.1692543654 101.8523257979 0.0212051856 -0.4090150771
-1.0153956208 -1.4619776216 0.0000000000 0.9637261289 -0.1544314961 37.0066901894 0.0452645504 -0.4013174493
4.1967659647 2.9673954815 0.0000000000 1.0217892872 0.0168570664 27.5492880013 -0.0032340353 -0.3326045185
4.2684327969 -3.6315571166 0.0000000000 1.0200931775 0.0361896992 13.2431272905 0.0684327969 -0.3315571166
20.0000000000 4.7000000000 0.0000000000 1.0363745174 0.0275576424 0.0012376310 0.0000000000 0.0000000000
20.0000000000 -4.7000000000 0.0000000000 1.0410210168 -0.0325908349 0.2587518718 0.0000000000 0.0000000000
-10.0000000000 15.0000000000 0.0000000000 1.0000000000 0.0000000000 31.6910481502 0.0000000000 0.0000000000
20.0000000000 15.0000000000 0.0000000000 1.0293110692 0.0000000000 0.0199637459 0.0000000000 0.0000000000
20.0000000000 -15.0000000000 0.0000000000 1.0287150763 0.0000000000 0.0204774497 0.0000000000 0.0000000000
-10.0000000000 -15.0000000000 0.0000000000 1.0000000000 0.0000000000 22.8903632622 0.0000000000 0.0000000000
0.4019183018 -0.7146800442 0.0000000000 0.0000000000 0.0000000000 -625.1598094261 0.0353923656 -0.3745936756
0.4143782274 -0.7007373810 0.0000000000 0.0000000000 0.0000000000 -622.8140775998 0.0353923656 -0.3745936756
0.4263081071 -0.6863385763 0.0000000000 0.0000000000 0.0000000000 -621.0872976466 0.0353923656 -0.3745936756
0.4376912557 -0.6715037681 0.0000000000 0.0000000000 0.0000000000 -618.2122442565 0.0353923656 -0.3745936756
0.4485117530 -0.6562537044 0.0000000000 0.0000000000 0.0000000000 -614.6850378671 0.0353923656 -0.3745936756
0.4587544654 -0.6406097136 0.0000000000 0.0000000000 0.0000000000 -609.9277790437 0.0353923656 -0.3745936756
0.4684050677 -0.6245936753 0.0000000000 0.0000000000 0.0000000000 -603.9122208624 0.0353923656 -0.3745936756
0.4774500625 -0.6082279895 0.0000000000 0.0000000000 0.0000000000 -596.4156896968 0.0353923656 -0.3745936756
0.4858767997 -0.5915355449 0.0000000000 0.0000000000 0.0000000000 -587.3903310195 0.0353923656 -0.3745936756
0.4936734937 -0.5745396875 0.0000000000 0.0000000000 0.0000000000 -576.8102422782 0.0353923656 -0.3745936756
0.5008292401 -0.5572641875 0.0000000000 0.0000000000 0.0000000000 -564.7590371437 0.0353923656 -0.3745936756
0.5073340309 -0.5397332063 0.0000000000 0.0000000000 0.0000000000 -551.3950663859 0.0353923656 -0.3745936756
0.5131787686 -0.5219712626 0.0000000000 0.0000000000 0.0000000000 -536.9633172245 0.0353923656 -0.3745936756
0.5183552788 -0.5040031979 0.0000000000 0.0000000000 0.0000000000 -521.7721185159 0.0353923656 -0.3745936756
0.5228563218 -0.4858541423 0.0000000000 0.0000000000 0.0000000000 -506.1746868682 0.0353923656 -0.3745936756
0.5266756023 -0.4675494789 0.0000000000 0.0000000000 0.0000000000 -490.5388637261 0.0353923656 -0.3745936756
0.5298077788 -0.4491148085 0.0000000000 0.0000000000 0.0000000000 -475.2176057799 0.0353923656 -0.3745936756
0.5322484706 -0.4305759134 0.0000000000 0.0000000000 0.0000000000 -460.5196148717 0.0353923656 -0.3745936756
0.5339942642 -0.4119587222 0.0000000000 0.0000000000 0.0000000000 -446.6861738544 0.0353923656 -0.3745936756
0.5350427180 -0.3932892725 0.0000000000 0.0000000000 0.0000000000 -433.8761960601 0.0353923656 -0.3745936756
0.5353923656 -0.3745936754 0.0000000000 0.0000000000 0.0000000000 -422.1619878099 0.0353923656 -0.3745936756
0.5350427180 -0.3558980783 0.0000000000 0.0000000000 0.0000000000 -411.5363979272 0.0353923656 -0.3745936756
0.5339942642 -0.3372286286 0.0000000000 0.0000000000 0.0000000000 -401.9295037174 0.0353923656 -0.3745936756
0.5322484706 -0.3186114374 0.0000000000 0.0000000000 0.0000000000 -393.2263727938 0.0353923656 -0.3745936756
0.5298077787 -0.3000725423 0.0000000000 0.0000000000 0.0000000000 -385.2832098088 0.0353923656 -0.3745936756
0.5266756022 -0.2816378719 0.0000000000 0.0000000000 0.0000000000 -377.9463967518 0.0353923656 -0.3745936756
0.5228563217 -0.2633332085 0.0000000000 0.0000000000 0.0000000000 -371.0807553973 0.0353923656 -0.3745936756
0.5183552787 -0.2451841529 0.0000000000 0.0000000000 0.0000000000 -364.5797820787 0.0353923656 -0.3745936756
0.5131787685 -0.2272160883 0.0000000000 0.0000000000 0.0000000000 -358.3696343895 0.0353923656 -0.3745936756
0.5073340307 -0.2094541445 0.0000000000 0.0000000000 0.0000000000 -352.3988889669 0.0353923656 -0.3745936756
0.5008292399 -0.1919231633 0.0000000000 0.0000000000 0.0000000000 -346.6463666289 0.0353923656 -0.3745936756
0.4936734935 -0.1746476633 0.0000000000 0.0000000000 0.0000000000 -341.0918330417 0.0353923656 -0.3745936756
0.4858767995 -0.1576518059 0.0000000000 0.0000000000 0.0000000000 -335.7572308147 0.0353923656 -0.3745936756
0.4774500623 -0.1409593614 0.0000000000 0.0000000000 0.0000000000 -330.6309978974 0.0353923656 -0.3745936756
0.4684050675 -0.1245936755 0.0000000000 0.0000000000 0.0000000000 -325.8164373376 0.0353923656 -0.3745936756
0.4587544652 -0.1085776373 0.0000000000 0.0000000000 0.0000000000 -321.2925214026 0.0353923656 -0.3745936756
0.4485117527 -0.0929336465 0.0000000000 0.0000000000 0.0000000000 -317.3599074325 0.0353923656 -0.3745936756
0.4376912555 -0.0776835828 0.0000000000 0.0000000000 0.0000000000 -313.8679419720 0.0353923656 -0.3745936756
0.4263081068 -0.0628487746 0.0000000000 0.0000000000 0.0000000000 -311.5256180256 0.0353923656 -0.3745936756
0.4143782272 -0.0484499699 0.0000000000 0.0000000000 0.0000000000 -309.6036793321 0.0353923656 -0.3745936756
0.4019183015 -0.0345073067 0.0000000000 0.0000000000 0.0000000000 -309.6359414279 0.0353923656 -0.3745936756
0.3740331514 -0.0067317202 0.0000000000 0.0000000000 0.0000000000 -312.1038231600 0.0353923656 -0.3745936756
0.3585419845 0.0069483585 0.0000000000 0.0000000000 0.0000000000 -314.7863643561 0.0353923656 -0.3745936756
0.3424987219 0.0199765791 0.0000000000 0.0000000000 0.0000000000 -318.9927271591 0.0353923656 -0.3745936756
0.3259307733 0.0323306831 0.0000000000 0.0000000000 0.0000000000 -323.6382336942 0.0353923656 -0.3745936756
0.3088664446 0.0439895636 0.0000000000 0.0000000000 0.0000000000 -329.1992424417 0.0353923656 -0.3745936756
0.2913348901 0.0549333016 0.0000000000 0.0000000000 0.0000000000 -335.4037190210 0.0353923656 -0.3745936756
0.2733660621 0.0651432000 0.0000000000 0.0000000000 0.0000000000 -342.5430683651 0.0353923656 -0.3745936756
0.2549906600 0.0746018154 0.0000000000 0.0000000000 0.0000000000 -350.6442627696 0.0353923656 -0.3745936756
0.2362400779 0.0832929878 0.0000000000 0.0000000000 0.0000000000 -359.8889539442 0.0353923656 -0.3745936756
0.2171463508 0.0912018685 0.0000000000 0.0000000000 0.0000000000 -370.3166418985 0.0353923656 -0.3745936756
0.1977421002 0.0983149453 0.0000000000 0.0000000000 0.0000000000 -381.9750518310 0.0353923656 -0.3745936756
0.1780604777 0.1046200656 0.0000000000 0.0000000000 0.0000000000 -394.8218258136 0.0353923656 -0.3745936756
0.1581351091 0.1101064574 0.0000000000 0.0000000000 0.0000000000 -408.7766163420 0.0353923656 -0.3745936756
0.1380000366 0.1147647471 0.0000000000 0.0000000000 0.0000000000 -423.6821670072 0.0353923656 -0.3745936756
0.1176896607 0.1185869761 0.0000000000 0.0000000000 0.0000000000 -439.3172760256 0.0353923656 -0.3745936756
0.0972386812 0.1215666143 0.0000000000 0.0000000000 0.0000000000 -455.3818804990 0.0353923656 -0.3745936756
0.0766820383 0.1236985709 0.0000000000 0.0000000000 0.0000000000 -471.5045730134 0.0353923656 -0.3745936756
0.0560548527 0.1249792036 0.0000000000 0.0000000000 0.0000000000 -487.2454109771 0.0353923656 -0.3745936756
0.0353923655 0.1254063244 0.0000000000 0.0000000000 0.0000000000 -502.1101019739 0.0353923656 -0.3745936756
0.0147298784 0.1249792036 0.0000000000 0.0000000000 0.0000000000 -515.5655450232 0.0353923656 -0.3745936756
-0.0058973072 0.1236985709 0.0000000000 0.0000000000 0.0000000000 -527.0606869510 0.0353923656 -0.3745936756
-0.0264539501 0.1215666143 0.0000000000 0.0000000000 0.0000000000 -536.0481088412 0.0353923656 -0.3745936756
-0.0469049296 0.1185869761 0.0000000000 0.0000000000 0.0000000000 -542.0062263654 0.0353923656 -0.3745936756
-0.0672153056 0.1147647470 0.0000000000 0.0000000000 0.0000000000 -544.4595659660 0.0353923656 -0.3745936756
-0.0873503781 0.1101064573 0.0000000000 0.0000000000 0.0000000000 -542.9962837941 0.0353923656 -0.3745936756
-0.1072757466 0.1046200656 0.0000000000 0.0000000000 0.0000000000 -537.2817845688 0.0353923656 -0.3745936756
-0.1269573691 0.0983149452 0.0000000000 0.0000000000 0.0000000000 -527.0681659185 0.0353923656 -0.3745936756
-0.1463616198 0.0912018684 0.0000000000 0.0000000000 0.0000000000 -512.1994337856 0.0353923656 -0.3745936756
-0.1654553468 0.0832929877 0.0000000000 0.0000000000 0.0000000000 -492.6128741626 0.0353923656 -0.3745936756
-0.1842059289 0.0746018153 0.0000000000 0.0000000000 0.0000000000 -468.3371294692 0.0353923656 -0.3745936756
-0.2025813310 0.0651431999 0.0000000000 0.0000000000 0.0000000000 -439.4876574928 0.0353923656 -0.3745936756
-0.2205501590 0.0549333015 0.0000000000 0.0000000000 0.0000000000 -406.2602465824 0.0353923656 -0.3745936756
-0.2380817136 0.0439895635 0.0000000000 0.0000000000 0.0000000000 -368.9232068063 0.0353923656 -0.3745936756
-0.2551460422 0.0323306829 0.0000000000 0.0000000000 0.0000000000 -327.8087521494 0.0353923656 -0.3745936756
-0.2717139908 0.0199765790 0.0000000000 0.0000000000 0.0000000000 -283.3039644805 0.0353923656 -0.3745936756
-0.2877572534 0.0069483584 0.0000000000 0.0000000000 0.0000000000 -235.8415981954 0.0353923656 -0.3745936756
-0.3032484203 -0.0067317204 0.0000000000 0.0000000000 0.0000000000 -185.8908483864 0.0353923656 -0.3745936756
-0.3324695898 -0.0359528899 0.0000000000 0.0000000000 0.0000000000 -80.5274388596 0.0353923656 -0.3745936756
-0.3461496686 -0.0514440568 0.0000000000 0.0000000000 0.0000000000 -26.1509934878 0.0353923656 -0.3745936756
-0.3591778892 -0.0674873194 0.0000000000 0.0000000000 0.0000000000 28.6612713194 0.0353923656 -0.3745936756
-0.3715319931 -0.0840552680 0.0000000000 0.0000000000 0.0000000000 83.4001131228 0.0353923656 -0.3745936756
-0.3831908736 -0.1011195967 0.0000000000 0.0000000000 0.0000000000 137.5653153152 0.0353923656 -0.3745936756
-0.3941346116 -0.1186511512 0.0000000000 0.0000000000 0.0000000000 190.6222519094 0.0353923656 -0.3745936756
-0.4043445101 -0.1366199792 0.0000000000 0.0000000000 0.0000000000 241.8732916199 0.0353923656 -0.3745936756
-0.4138031254 -0.1549953813 0.0000000000 0.0000000000 0.0000000000 290.4480929388 0.0353923656 -0.3745936756
-0.4224942978 -0.1737459634 0.0000000000 0.0000000000 0.0000000000 335.7805841517 0.0353923656 -0.3745936756
-0.4304031785 -0.1928396905 0.0000000000 0.0000000000 0.0000000000 377.6942429731 0.0353923656 -0.3745936756
-0.4375162553 -0.2122439412 0.0000000000 0.0000000000 0.0000000000 416.0513189159 0.0353923656 -0.3745936756
-0.4438213757 -0.2319255637 0.0000000000 0.0000000000 0.0000000000 450.5800309697 0.0353923656 -0.3745936756
-0.4493077674 -0.2518509322 0.0000000000 0.0000000000 0.0000000000 480.9418759026 0.0353923656 -0.3745936756
-0.4539660571 -0.2719860047 0.0000000000 0.0000000000 0.0000000000 506.8182251849 0.0353923656 -0.3745936756
-0.4577882861 -0.2922963807 0.0000000000 0.0000000000 0.0000000000 527.9334040569 0.0353923656 -0.3745936756
-0.4607679243 -0.3127473602 0.0000000000 0.0000000000 0.0000000000 544.0642773497 0.0353923656 -0.3745936756
-0.4628998809 -0.3333040031 0.0000000000 0.0000000000 0.0000000000 555.0344264372 0.0353923656 -0.3745936756
-0.4641805136 -0.3539311887 0.0000000000 0.0000000000 0.0000000000 560.7244818560 0.0353923656 -0.3745936756
-0.4646076344 -0.3745936758 0.0000000000 0.0000000000 0.0000000000 561.0511124249 0.0353923656 -0.3745936756
-0.4641805136 -0.3952561629 0.0000000000 0.0000000000 0.0000000000 556.0034267942 0.0353923656 -0.3745936756
-0.4628998809 -0.4158833485 0.0000000000 0.0000000000 0.0000000000 545.5748276380 0.0353923656 -0.3745936756
-0.4607679242 -0.4364399914 0.0000000000 0.0000000000 0.0000000000 529.8849396921 0.0353923656 -0.3745936756
-0.4577882860 -0.4568909710 0.0000000000 0.0000000000 0.0000000000 508.9567024234 0.0353923656 -0.3745936756
-0.4539660570 -0.4772013469 0.0000000000 0.0000000000 0.0000000000 483.1181930545 0.0353923656 -0.3745936756
-0.4493077673 -0.4973364194 0.0000000000 0.0000000000 0.0000000000 452.2738072216 0.0353923656 -0.3745936756
-0.4438213755 -0.5172617879 0.0000000000 0.0000000000 0.0000000000 417.2227276390 0.0353923656 -0.3745936756
-0.4375162551 -0.5369434104 0.0000000000 0.0000000000 0.0000000000 377.3058049418 0.0353923656 -0.3745936756
-0.4304031783 -0.5563476611 0.0000000000 0.0000000000 0.0000000000 334.5031074895 0.0353923656 -0.3745936756
-0.4224942976 -0.5754413881 0.0000000000 0.0000000000 0.0000000000 287.5388358570 0.0353923656 -0.3745936756
-0.4138031252 -0.5941919702 0.0000000000 0.0000000000 0.0000000000 237.0423312737 0.0353923656 -0.3745936756
-0.4043445099 -0.6125673723 0.0000000000 0.0000000000 0.0000000000 178.8250852749 0.0353923656 -0.3745936756
-0.3941346114 -0.6305362004 0.0000000000 0.0000000000 0.0000000000 133.7630429148 0.0353923656 -0.3745936756
-0.3831908734 -0.6480677549 0.0000000000 0.0000000000 0.0000000000 51.2528330776 0.0353923656 -0.3745936756
-0.3715319929 -0.6651320835 0.0000000000 0.0000000000 0.0000000000 54.2428609793 0.0353923656 -0.3745936756
-0.3591778889 -0.6817000321 0.0000000000 0.0000000000 0.0000000000 -129.1169792983 0.0353923656 -0.3745936756
-0.3461496683 -0.6977432947 0.0000000000 0.0000000000 0.0000000000 -2.7408497555 0.0353923656 -0.3745936756
-0.3324695895 -0.7132344616 0.0000000000 0.0000000000 0.0000000000 -333.0197563820 0.0353923656 -0.3745936756
-0.3032484200 -0.7424556311 0.0000000000 0.0000000000 0.0000000000 -158.8554705500 0.0353923656 -0.3745936756
-0.2877572531 -0.7561357099 0.0000000000 0.0000000000 0.0000000000 -524.9500639107 0.0353923656 -0.3745936756
-0.2717139905 -0.7691639305 0.0000000000 0.0000000000 0.0000000000 -341.0732603698 0.0353923656 -0.3745936756
-0.2551460419 -0.7815180344 0.0000000000 0.0000000000 0.0000000000 -501.4848545518 0.0353923656 -0.3745936756
-0.2380817132 -0.7931769149 0.0000000000 0.0000000000 0.0000000000 -483.8823853730 0.0353923656 -0.3745936756
-0.2205501587 -0.8041206529 0.0000000000 0.0000000000 0.0000000000 -567.3986603982 0.0353923656 -0.3745936756
-0.2025813306 -0.8143305513 0.0000000000 0.0000000000 0.0000000000 -586.8478905641 0.0353923656 -0.3745936756
-0.1842059285 -0.8237891667 0.0000000000 0.0000000000 0.0000000000 -639.1097297458 0.0353923656 -0.3745936756
-0.1654553464 -0.8324803390 0.0000000000 0.0000000000 0.0000000000 -664.7450759299 0.0353923656 -0.3745936756
-0.1463616194 -0.8403892197 0.0000000000 0.0000000000 0.0000000000 -699.8168576425 0.0353923656 -0.3745936756
-0.1269573687 -0.8475022965 0.0000000000 0.0000000000 0.0000000000 -721.7783250871 0.0353923656 -0.3745936756
-0.1072757462 -0.8538074169 0.0000000000 0.0000000000 0.0000000000 -744.4739635986 0.0353923656 -0.3745936756
-0.0873503777 -0.8592938086 0.0000000000 0.0000000000 0.0000000000 -759.3636644524 0.0353923656 -0.3745936756
-0.0672153052 -0.8639520983 0.0000000000 0.0000000000 0.0000000000 -771.8942127539 0.0353923656 -0.3745936756
-0.0469049292 -0.8677743274 0.0000000000 0.0000000000 0.0000000000 -779.0150656972 0.0353923656 -0.3745936756
-0.0264539497 -0.8707539655 0.0000000000 0.0000000000 0.0000000000 -783.0283857859 0.0353923656 -0.3745936756
-0.0058973068 -0.8728859221 0.0000000000 0.0000000000 0.0000000000 -783.0719714071 0.0353923656 -0.3745936756
0.0147298788 -0.8741665548 0.0000000000 0.0000000000 0.0000000000 -780.3066037269 0.0353923656 -0.3745936756
0.0353923659 -0.8745936756 0.0000000000 0.0000000000 0.0000000000 -774.7419635381 0.0353923656 -0.3745936756
0.0560548531 -0.8741665548 0.0000000000 0.0000000000 0.0000000000 -767.1267623776 0.0353923656 -0.3745936756
0.0766820387 -0.8728859221 0.0000000000 0.0000000000 0.0000000000 -757.7882074173 0.0353923656 -0.3745936756
0.0972386816 -0.8707539654 0.0000000000 0.0000000000 0.0000000000 -747.2926191899 0.0353923656 -0.3745936756
0.1176896611 -0.8677743273 0.0000000000 0.0000000000 0.0000000000 -736.0294926940 0.0353923656 -0.3745936756
0.1380000370 -0.8639520982 0.0000000000 0.0000000000 0.0000000000 -724.4297323614 0.0353923656 -0.3745936756
0.1581351095 -0.8592938085 0.0000000000 0.0000000000 0.0000000000 -712.8215685368 0.0353923656 -0.3745936756
0.1780604781 -0.8538074167 0.0000000000 0.0000000000 0.0000000000 -701.4990463773 0.0353923656 -0.3745936756
0.1977421005 -0.8475022963 0.0000000000 0.0000000000 0.0000000000 -690.6791182128 0.0353923656 -0.3745936756
0.2171463512 -0.8403892195 0.0000000000 0.0000000000 0.0000000000 -680.5231669788 0.0353923656 -0.3745936756
0.2362400783 -0.8324803388 0.0000000000 0.0000000000 0.0000000000 -671.1405614531 0.0353923656 -0.3745936756
0.2549906604 -0.8237891664 0.0000000000 0.0000000000 0.0000000000 -662.5896794490 0.0353923656 -0.3745936756
0.2733660624 -0.8143305510 0.0000000000 0.0000000000 0.0000000000 -654.9289133932 0.0353923656 -0.3745936756
0.2913348905 -0.8041206526 0.0000000000 0.0000000000 0.0000000000 -648.1534798923 0.0353923656 -0.3745936756
0.3088664450 -0.7931769145 0.0000000000 0.0000000000 0.0000000000 -642.3697180826 0.0353923656 -0.3745936756
0.3259307736 -0.7815180340 0.0000000000 0.0000000000 0.0000000000 -637.4282883475 0.0353923656 -0.3745936756
0.3424987222 -0.7691639301 0.0000000000 0.0000000000 0.0000000000 -633.6685820475 0.0353923656 -0.3745936756
0.3585419848 -0.7561357095 0.0000000000 0.0000000000 0.0000000000 -630.2447697530 0.0353923656 -0.3745936756
0.3740331517 -0.7424556307 0.0000000000 0.0000000000 0.0000000000 -628.6450810151 0.0353923656 -0.3745936756
0.5831103113 -0.8971735750 0.0000000000 0.3996718632 0.0381341998 -632.7768401514 0.0333214070 -0.3870440220
0.6017983952 -0.8764587643 0.0000000000 0.3363491592 0.0257877888 -638.3447361947 0.0333196025 -0.3872432063
0.6197210469 -0.8551644595 0.0000000000 0.2837117656 0.0133274955 -643.8878438791 0.0333474347 -0.3875471085
0.6368333140 -0.8332393443 0.0000000000 0.2388722875 0.0021071144 -649.1355721934 0.0333849789 -0.3878742055
0.6531037969 -0.8106824825 0.0000000000 0.1989057051 -0.0067756225 -653.7230486554 0.0334247159 -0.3881924394
0.6685047774 -0.7875112714 0.0000000000 0.1613187830 -0.0125440811 -657.2180098220 0.0334616277 -0.3884872144
0.6830114041 -0.7637515406 0.0000000000 0.1243478248 -0.0147094597 -659.1531992809 0.0334923510 -0.3887515410
0.6966016299 -0.7394335978 0.0000000000 0.0869996355 -0.0129938735 -659.0616607894 0.0335150846 -0.3889821270
0.7092560040 -0.7145903407 0.0000000000 0.0489422204 -0.0072650731 -656.5144510272 0.0335293529 -0.3891775368
0.7209573575 -0.6892562564 0.0000000000 0.0103543033 0.0024967047 -651.1603744048 0.0335356654 -0.3893372386
0.7316904953 -0.6634668595 0.0000000000 -0.0282112846 0.0162053283 -642.7653337498 0.0335351836 -0.3894610916
0.7414419586 -0.6372583621 0.0000000000 -0.0659404915 0.0336632871 -631.2465784413 0.0335294607 -0.3895490661
0.7501998649 -0.6106674645 0.0000000000 -0.1018549806 0.0545559729 -616.6959584856 0.0335202604 -0.3896010841
0.7579538042 -0.5837312096 0.0000000000 -0.1349005323 0.0784517083 -599.3868911889 0.0335094344 -0.3896169262
0.7646947675 -0.5564868744 0.0000000000 -0.1640292099 0.1048089450 -579.7619625989 0.0334988332 -0.3895961743
0.7704150900 -0.5289718850 0.0000000000 -0.1882746628 0.1329899472 -558.4011274183 0.0334902350 -0.3895381800
0.7751084007 -0.5012237525 0.0000000000 -0.2068198755 0.1622801990 -535.9734555436 0.0334852810 -0.3894420532
0.7787695767 -0.4732800291 0.0000000000 -0.2190569188 0.1919135267 -513.1778841022 0.0334854192 -0.3893066724
0.7813947025 -0.4451782832 0.0000000000 -0.2246367252 0.2211030844 -490.6804270177 0.0334918545 -0.3891307133
0.7829810392 -0.4169560952 0.0000000000 -0.2235041456 0.2490770989 -469.0565024261 0.0335055106 -0.3889126999
0.7835270024 -0.3886510734 0.0000000000 -0.2159120937 0.2751160712 -448.7467788323 0.0335270024 -0.3886510737
0.7830321499 -0.3603008876 0.0000000000 -0.2024104491 0.2985863030 -430.0326922804 0.0335566213 -0.3883442836
0.7814971786 -0.3319433192 0.0000000000 -0.1838102511 0.3189641633 -413.0338802133 0.0335943307 -0.3879908897
0.7789239267 -0.3036163215 0.0000000000 -0.1611293595 0.3358463738 -397.7254385359 0.0336397693 -0.3875896788
0.7753153824 -0.2753580850 0.0000000000 -0.1355298858 0.3489429165 -383.9696115265 0.0336922628 -0.3871397849
0.7706756975 -0.2472071007 0.0000000000 -0.1082591059 0.3580505189 -371.5552075717 0.0337508426 -0.3866408064
0.7650102085 -0.2192022135 0.0000000000 -0.0806038680 0.3630070577 -360.2386713762 0.0338142744 -0.3860929142
0.7583254691 -0.1913826568 0.0000000000 -0.0538631451 0.3636330326 -349.7824324686 0.0338810994 -0.3854969409
0.7506292987 -0.1637880637 0.0000000000 -0.0293335455 0.3596770413 -339.9876440699 0.0339496944 -0.3848544447
0.7419308501 -0.1364584447 0.0000000000 -0.0082895901 0.3507947975 -330.7189086789 0.0340183525 -0.3841677414
0.7322407024 -0.1094341278 0.0000000000 0.0080691331 0.3365954833 -321.9182426709 0.0340853910 -0.3834398962
0.7215709768 -0.0827556530 0.0000000000 0.0187278564 0.3167727326 -313.6053685748 0.0341492849 -0.3826746714
0.7099354739 -0.0564636151 0.0000000000 0.0230271293 0.2912994341 -305.8625481880 0.0342088230 -0.3818764196
0.6973498133 -0.0305984459 0.0000000000 0.0208850416 0.2606288992 -298.8062630290 0.0342632682 -0.3810499172
0.6838315361 -0.0052001372 0.0000000000 0.0131019801 0.2258449503 -292.5584651556 0.0343124834 -0.3802001374
0.6694000985 0.0196920781 0.0000000000 0.0018314357 0.1887370540 -287.2430578152 0.0343569491 -0.3793319794
0.6540766639 0.0440400170 0.0000000000 -0.0088604970 0.1517655552 -283.0210256570 0.0343975832 -0.3784500266
0.6378836416 0.0678066557 0.0000000000 -0.0128970972 0.1177849956 -280.1192584253 0.0344353068 -0.3775584835
0.6208440289 0.0909557666 0.0000000000 -0.0032894600 0.0893951437 -278.7699408874 0.0344704171 -0.3766615849
0.6029806177 0.1134503487 0.0000000000 0.0256821887 0.0681077327 -279.0606723416 0.0345018254 -0.3757652098
0.5843153284 0.1352479831 0.0000000000 0.0765297804 0.0538714271 -280.8189632471 0.0345264245 -0.3748815703
0.5423444900 0.1787066484 0.0000000000 0.2485546326 0.0408551321 -287.6330455464 0.0343833114 -0.3730862847
0.5189517443 0.2000371561 0.0000000000 0.3649453770 0.0400603130 -291.8941783169 0.0342273160 -0.3722758951
0.4947344693 0.2203022628 0.0000000000 0.4926217282 0.0424974302 -296.1936043628 0.0340749349 -0.3715531193
0.4697337711 0.2394838092 0.0000000000 0.6264255209 0.0484187430 -300.4011745286 0.0339261596 -0.3709027288
0.4439913725 0.2575571017 0.0000000000 0.7604392550 0.0581088660 -304.4297079104 0.0337802540 -0.3703177571
0.4175490375 0.2744952246 0.0000000000 0.8882481193 0.0714008607 -308.1675685721 0.0336352507 -0.3697952412
0.3904492986 0.2902703267 0.0000000000 1.0039521427 0.0876110331 -311.4676808146 0.0334887539 -0.3693349867
0.3627359460 0.3048543186 0.0000000000 1.1032354517 0.1057440804 -314.1861120382 0.0333385045 -0.3689389179
0.3344542878 0.3182196925 0.0000000000 1.1839426634 0.1247706364 -316.2258452618 0.0331827194 -0.3686103026
0.3056511696 0.3303403133 0.0000000000 1.2460370616 0.1438456816 -317.5525237611 0.0330201917 -0.3683530028
0.2763748516 0.3411920395 0.0000000000 1.2911162069 0.1624202963 -318.1820492649 0.0328502499 -0.3681708918
0.2466748436 0.3507531636 0.0000000000 1.3217455728 0.1802530034 -318.1553236722 0.0326726756 -0.3680674483
0.2166017592 0.3590047217 0.0000000000 1.3408248518 0.1973519479 -317.5127632625 0.0324876440 -0.3680454778
0.1862072098 0.3659307147 0.0000000000 1.3511116715 0.2138855649 -316.2746853258 0.0322957033 -0.3681069194
0.1555437313 0.3715182530 0.0000000000 1.3549410354 0.2300934590 -314.4295439174 0.0320977887 -0.3682527246
0.1246647250 0.3757576221 0.0000000000 1.3541178436 0.2462167097 -311.9298847845 0.0318952517 -0.3684828127
0.0936243916 0.3786422705 0.0000000000 1.3499304939 0.2624539481 -308.6946403295 0.0316898827 -0.3687960993
0.0624776388 0.3801687332 0.0000000000 1.3432303877 0.2789405500 -304.6156884829 0.0314839083 -0.3691905856
0.0312799543 0.3803365195 0.0000000000 1.3345340611 0.2957442255 -299.5665029636 0.0312799544 -0.3696634805
0.0000872417 0.3791479966 0.0000000000 1.3241210779 0.3128699851 -293.4111284663 0.0310809725 -0.3702113222
-0.0310443723 0.3766082984 0.0000000000 1.3121150727 0.3302690911 -286.0123614380 0.0308901370 -0.3708300714
-0.0620587493 0.3727252735 0.0000000000 1.2985449050 0.3478486734 -277.2386418940 0.0307107243 -0.3715151613
-0.0928999559 0.3675094722 0.0000000000 1.2833879379 0.3654804025 -266.9696105104 0.0305459869 -0.3722615054
-0.1235124770 0.3609741616 0.0000000000 1.2665993266 0.3830077299 -255.1005240086 0.0303990298 -0.3730634724
-0.1538414203 0.3531353521 0.0000000000 1.2481312691 0.4002517999 -241.5457919493 0.0302726952 -0.3739148473
-0.1838327102 0.3440118213 0.0000000000 1.2279454670 0.4170163681 -226.2418659557 0.0301694582 -0.3748087905
-0.2134332709 0.3336251266 0.0000000000 1.2060211629 0.4330920940 -209.1496379036 0.0300913311 -0.3757378046
-0.2425911995 0.3219996066 0.0000000000 1.1823603422 0.4482605097 -190.2564272970 0.0300397786 -0.3766937094
-0.2712559263 0.3091623770 0.0000000000 1.1569911013 0.4622978763 -169.5775799565 0.0300156424 -0.3776676179
-0.2993783601 0.2951433373 0.0000000000 1.1299697857 0.4749790533 -147.1576669318 0.0300190817 -0.3786498990
-0.3269110130 0.2799752162 0.0000000000 1.1013822519 0.4860814257 -123.0712544648 0.0300495319 -0.3796300971
-0.3538080970 0.2636937192 0.0000000000 1.0713444851 0.4953888739 -97.4232443069 0.0301056900 -0.3805967464
-0.3800255858 0.2463379224 0.0000000000 1.0400027568 0.5026956608 -70.3487126953 0.0301855330 -0.3815369362
-0.4055212248 0.2279512848 0.0000000000 1.0075338216 0.5078100468 -42.0128029539 0.0302863869 -0.3824352530
-0.4302544690 0.2085843549 0.0000000000 0.9741456033 0.5105564892 -12.6090404623 0.0304050657 -0.3832710271
-0.4541866124 0.1883028725 0.0000000000 0.9400845322 0.5107762503 17.6320570814 0.0305378162 -0.3840101785
-0.4772838271 0.1672157023 0.0000000000 0.9056466835 0.5083040174 48.4735771921 0.0306773518 -0.3845772306
-0.5207824409 0.1217712654 0.0000000000 0.8357933833 0.4957641787 111.1173822347 0.0310104923 -0.3861899131
-0.5411248855 0.0974361455 0.0000000000 0.8007440392 0.4855007456 142.6395167636 0.0311881658 -0.3872882827
-0.5604981845 0.0724326909 0.0000000000 0.7662923854 0.4723205958 173.7463508995 0.0313571977 -0.3882268435
-0.5788640863 0.0467477707 0.0000000000 0.7326836095 0.4563082666 204.1724434883 0.0315224518 -0.3890598406
-0.5961914703 0.0204040738 0.0000000000 0.7001755752 0.4375473181 233.6453761290 0.0316833885 -0.3898070446
-0.6124509975 -0.0065637113 0.0000000000 0.6690242015 0.4161429158 261.9000860408 0.0318394684 -0.3904774979
-0.6276146450 -0.0341157424 0.0000000000 0.6394740338 0.3922255694 288.6841238477 0.0319906685 -0.3910762869
-0.6416557833 -0.0622093370 0.0000000000 0.6117534020 0.3659500990 313.7616962252 0.0321374532 -0.3916067784
-0.6545492724 -0.0907998678 0.0000000000 0.5860710774 0.3374932719 336.9167268520 0.0322807227 -0.3920714361
-0.6662715575 -0.1198411423 0.0000000000 0.5626139157 0.3070508271 357.9551880924 0.0324217587 -0.3924721200
-0.6768007689 -0.1492855852 0.0000000000 0.5415451924 0.2748342455 376.7067997260 0.0325621625 -0.3928101868
-0.6861168277 -0.1790843475 0.0000000000 0.5230035267 0.2410674354 393.0261489554 0.0327037842 -0.3930865155
-0.6942015590 -0.2091873996 0.0000000000 0.5071023415 0.2059834470 406.7932761832 0.0328486405 -0.3933015147
-0.7010388122 -0.2395436328 0.0000000000 0.4939298311 0.1698212834 417.9137721234 0.0329988218 -0.3934551391
-0.7066145895 -0.2701009820 0.0000000000 0.4835494014 0.1328228505 426.3184347424 0.0331563881 -0.3935469245
-0.7109171779 -0.3008065747 0.0000000000 0.4760005048 0.0952300783 431.9625314708 0.0333232570 -0.3935760479
-0.7139372813 -0.3316069045 0.0000000000 0.4712997605 0.0572822631 434.8247062850 0.0335010884 -0.3935414133
-0.7156681431 -0.3624480300 0.0000000000 0.4694422556 0.0192137062 434.9055765744 0.0336911757 -0.3934417604
-0.7161056471 -0.3932757947 0.0000000000 0.4704029719 -0.0187482658 432.2260841102 0.0338943529 -0.3932757944
-0.7152483863 -0.4240360660 0.0000000000 0.4741383628 -0.0563848673 426.8257066303 0.0341109325 -0.3930423350
-0.7130976885 -0.4546749907 0.0000000000 0.4805880496 -0.0934870289 418.7606186147 0.0343406812 -0.3927404812
-0.7096575935 -0.4851392628 0.0000000000 0.4896765916 -0.1298562260 408.1018671361 0.0345828413 -0.3923697891
-0.7049347808 -0.5153764015 0.0000000000 0.5013153434 -0.1653050284 394.9336203915 0.0348361967 -0.3919304585