 TITLE = "Tecplot data"
 VARIABLES = "X", "Y", "Z" "U", "V", "p", "dispX", "dispY"
 ZONE SOLUTIONTIME=159.900000, NODES=26114 , ELEMENTS=25916, DATAPACKING=POINT, ZONETYPE=FEQUADRILATERAL
0.3768187380 0.7342172010 0.0000000000 0.0000000000 0.0000000000 -567.8559781791 0.0232653475 0.3806638103
0.3768187383 0.0271104200 0.0000000000 0.0000000000 0.0000000000 -312.5220004526 0.0232653475 0.3806638103
-0.3302880432 0.7342172008 0.0000000000 0.0000000000 0.0000000000 -284.2741770974 0.0232653475 0.3806638103
-0.3302880429 0.0271104196 0.0000000000 0.0000000000 0.0000000000 197.4049222346 0.0232653475 0.3806638103
0.5534848536 0.9106791783 0.0000000000 0.4875943107 -0.0291193796 -546.9434806197 0.0231547678 0.3803490924
0.5570208085 -0.1362573495 0.0000000000 0.0890313085 0.0298373402 -303.4705596656 0.0266907223 0.3940727360
-0.5006498755 0.9218290421 0.0000000000 0.9400261726 0.5159075357 -34.0048639265 0.0296802105 0.3914989564
-0.5104589629 -0.1432806174 0.0000000000 0.8418680742 -0.4723082562 95.0700385493 0.0198711227 0.3870494687
1.0901401341 1.4463348328 0.0000000000 1.1768951011 -0.2172936621 -261.3977349359 0.0294799624 0.3856746610
1.0809712546 -0.6693426213 0.0000000000 1.2436637612 -0.0616679900 -122.7149987263 0.0203110820 0.3913175497
-1.0196542954 1.4776882720 0.0000000000 0.9832080005 0.1620364866 40.4387920297 0.0410058767 0.4170281006
-1.0480577078 -0.6522047907 0.0000000000 0.9373005725 -0.1603109573 109.0231513699 0.0126024635 0.4084553816
4.2593725726 3.6384102829 0.0000000000 1.0425588262 -0.0231882017 21.3517771524 0.0593725726 0.3384102829
4.1846164306 -2.9625758437 0.0000000000 0.9968111439 0.0049462682 26.5355294436 -0.0153835694 0.3374241563
20.0000000000 4.7000000000 0.0000000000 1.0374376755 0.0352842052 0.1789273413 0.0000000000 0.0000000000
20.0000000000 -4.7000000000 0.0000000000 1.0423947319 -0.0308723864 0.1090564235 0.0000000000 0.0000000000
-10.0000000000 15.0000000000 0.0000000000 1.0000000000 0.0000000000 25.7782811768 0.0000000000 0.0000000000
20.0000000000 15.0000000000 0.0000000000 1.0302894243 0.0000000000 0.0238029127 0.0000000000 0.0000000000
20.0000000000 -15.0000000000 0.0000000000 1.0300926349 0.0000000000 0.0229755127 0.0000000000 0.0000000000
-10.0000000000 -15.0000000000 0.0000000000 1.0000000000 0.0000000000 38.9230445118 0.0000000000 0.0000000000
0.3897912836 0.0405774417 0.0000000000 0.0000000000 0.0000000000 -313.2087982554 0.0232653475 0.3806638103
0.4022512093 0.0545201050 0.0000000000 0.0000000000 0.0000000000 -310.7395579882 0.0232653475 0.3806638103
0.4141810889 0.0689189097 0.0000000000 0.0000000000 0.0000000000 -311.3856203569 0.0232653475 0.3806638103
0.4255642375 0.0837537178 0.0000000000 0.0000000000 0.0000000000 -312.1758461418 0.0232653475 0.3806638103
0.4363847348 0.0990037816 0.0000000000 0.0000000000 0.0000000000 -314.8608765004 0.0232653475 0.3806638103
0.4466274472 0.1146477724 0.0000000000 0.0000000000 0.0000000000 -318.5060709315 0.0232653475 0.3806638103
0.4562780495 0.1306638106 0.0000000000 0.0000000000 0.0000000000 -324.3038952371 0.0232653475 0.3806638103
0.4653230444 0.1470294965 0.0000000000 0.0000000000 0.0000000000 -329.8385949420 0.0232653475 0.3806638103
0.4737497815 0.1637219410 0.0000000000 0.0000000000 0.0000000000 -337.8877765222 0.0232653475 0.3806638103
0.4815464755 0.1807177984 0.0000000000 0.0000000000 0.0000000000 -347.0531246293 0.0232653475 0.3806638103
0.4887022219 0.1979932984 0.0000000000 0.0000000000 0.0000000000 -357.8591183266 0.0232653475 0.3806638103
0.4952070127 0.2155242796 0.0000000000 0.0000000000 0.0000000000 -368.1654339047 0.0232653475 0.3806638103
0.5010517504 0.2332862234 0.0000000000 0.0000000000 0.0000000000 -383.9208160223 0.0232653475 0.3806638103
0.5062282607 0.2512542880 0.0000000000 0.0000000000 0.0000000000 -395.8786647549 0.0232653475 0.3806638103
0.5107293036 0.2694033436 0.0000000000 0.0000000000 0.0000000000 -406.3926209544 0.0232653475 0.3806638103
0.5145485841 0.2877080070 0.0000000000 0.0000000000 0.0000000000 -430.3302858804 0.0232653475 0.3806638103
0.5176807606 0.3061426775 0.0000000000 0.0000000000 0.0000000000 -442.9662538583 0.0232653475 0.3806638103
0.5201214524 0.3246815725 0.0000000000 0.0000000000 0.0000000000 -459.7593175636 0.0232653475 0.3806638103
0.5218672461 0.3432987638 0.0000000000 0.0000000000 0.0000000000 -475.4579739604 0.0232653475 0.3806638103
0.5229156999 0.3619682134 0.0000000000 0.0000000000 0.0000000000 -491.0760290368 0.0232653475 0.3806638103
0.5232653475 0.3806638105 0.0000000000 0.0000000000 0.0000000000 -505.8642661791 0.0232653475 0.3806638103
0.5229156999 0.3993594077 0.0000000000 0.0000000000 0.0000000000 -519.5970886674 0.0232653475 0.3806638103
0.5218672460 0.4180288573 0.0000000000 0.0000000000 0.0000000000 -531.9649721021 0.0232653475 0.3806638103
0.5201214524 0.4366460486 0.0000000000 0.0000000000 0.0000000000 -542.7127883524 0.0232653475 0.3806638103
0.5176807606 0.4551849436 0.0000000000 0.0000000000 0.0000000000 -551.8136373369 0.0232653475 0.3806638103
0.5145485841 0.4736196141 0.0000000000 0.0000000000 0.0000000000 -558.8037914377 0.0232653475 0.3806638103
0.5107293035 0.4919242775 0.0000000000 0.0000000000 0.0000000000 -564.5436618836 0.0232653475 0.3806638103
0.5062282606 0.5100733330 0.0000000000 0.0000000000 0.0000000000 -563.1082468471 0.0232653475 0.3806638103
0.5010517503 0.5280413977 0.0000000000 0.0000000000 0.0000000000 -572.9131269840 0.0232653475 0.3806638103
0.4952070126 0.5458033415 0.0000000000 0.0000000000 0.0000000000 -571.4683817612 0.0232653475 0.3806638103
0.4887022217 0.5633343226 0.0000000000 0.0000000000 0.0000000000 -572.1349626589 0.0232653475 0.3806638103
0.4815464753 0.5806098226 0.0000000000 0.0000000000 0.0000000000 -571.1604556457 0.0232653475 0.3806638103
0.4737497814 0.5976056800 0.0000000000 0.0000000000 0.0000000000 -569.9141038667 0.0232653475 0.3806638103
0.4653230442 0.6142981246 0.0000000000 0.0000000000 0.0000000000 -568.2891113750 0.0232653475 0.3806638103
0.4562780493 0.6306638104 0.0000000000 0.0000000000 0.0000000000 -566.5884824697 0.0232653475 0.3806638103
0.4466274470 0.6466798487 0.0000000000 0.0000000000 0.0000000000 -565.0112116063 0.0232653475 0.3806638103
0.4363847346 0.6623238394 0.0000000000 0.0000000000 0.0000000000 -563.6894610782 0.0232653475 0.3806638103
0.4255642373 0.6775739032 0.0000000000 0.0000000000 0.0000000000 -562.8833431724 0.0232653475 0.3806638103
0.4141810887 0.6924087113 0.0000000000 0.0000000000 0.0000000000 -562.7139586138 0.0232653475 0.3806638103
0.4022512090 0.7068075160 0.0000000000 0.0000000000 0.0000000000 -563.4112100147 0.0232653475 0.3806638103
0.3897912833 0.7207501793 0.0000000000 0.0000000000 0.0000000000 -565.0540059539 0.0232653475 0.3806638103
0.3619061332 0.7485257657 0.0000000000 0.0000000000 0.0000000000 -572.1092336402 0.0232653475 0.3806638103
0.3464149664 0.7622058445 0.0000000000 0.0000000000 0.0000000000 -577.7954872507 0.0232653475 0.3806638103
0.3303717038 0.7752340651 0.0000000000 0.0000000000 0.0000000000 -584.4725464492 0.0232653475 0.3806638103
0.3138037551 0.7875881690 0.0000000000 0.0000000000 0.0000000000 -592.2943107726 0.0232653475 0.3806638103
0.2967394265 0.7992470495 0.0000000000 0.0000000000 0.0000000000 -600.9850776237 0.0232653475 0.3806638103
0.2792078720 0.8101907876 0.0000000000 0.0000000000 0.0000000000 -610.6984837882 0.0232653475 0.3806638103
0.2612390439 0.8204006860 0.0000000000 0.0000000000 0.0000000000 -621.3940358613 0.0232653475 0.3806638103
0.2428636418 0.8298593013 0.0000000000 0.0000000000 0.0000000000 -633.1439898984 0.0232653475 0.3806638103
0.2241130597 0.8385504737 0.0000000000 0.0000000000 0.0000000000 -645.9508300901 0.0232653475 0.3806638103
0.2050193327 0.8464593544 0.0000000000 0.0000000000 0.0000000000 -659.8029560611 0.0232653475 0.3806638103
0.1856150820 0.8535724312 0.0000000000 0.0000000000 0.0000000000 -674.5966761209 0.0232653475 0.3806638103
0.1659334595 0.8598775516 0.0000000000 0.0000000000 0.0000000000 -690.1917754402 0.0232653475 0.3806638103
0.1460080910 0.8653639433 0.0000000000 0.0000000000 0.0000000000 -706.3699276492 0.0232653475 0.3806638103
0.1258730185 0.8700222330 0.0000000000 0.0000000000 0.0000000000 -722.8544443092 0.0232653475 0.3806638103
0.1055626425 0.8738444621 0.0000000000 0.0000000000 0.0000000000 -739.3018530343 0.0232653475 0.3806638103
0.0851116630 0.8768241002 0.0000000000 0.0000000000 0.0000000000 -755.3182729476 0.0232653475 0.3806638103
0.0645550201 0.8789560569 0.0000000000 0.0000000000 0.0000000000 -770.4534543872 0.0232653475 0.3806638103
0.0439278345 0.8802366895 0.0000000000 0.0000000000 0.0000000000 -784.2366431059 0.0232653475 0.3806638103
0.0232653474 0.8806638103 0.0000000000 0.0000000000 0.0000000000 -796.1599814185 0.0232653475 0.3806638103
0.0026028602 0.8802366895 0.0000000000 0.0000000000 0.0000000000 -805.7194685663 0.0232653475 0.3806638103
-0.0180243254 0.8789560568 0.0000000000 0.0000000000 0.0000000000 -812.4544691898 0.0232653475 0.3806638103
-0.0385809683 0.8768241002 0.0000000000 0.0000000000 0.0000000000 -815.7772870246 0.0232653475 0.3806638103
-0.0590319478 0.8738444620 0.0000000000 0.0000000000 0.0000000000 -815.3766878974 0.0232653475 0.3806638103
-0.0793423237 0.8700222330 0.0000000000 0.0000000000 0.0000000000 -810.8879134450 0.0232653475 0.3806638103
-0.0994773962 0.8653639433 0.0000000000 0.0000000000 0.0000000000 -801.9043463764 0.0232653475 0.3806638103
-0.1194027648 0.8598775515 0.0000000000 0.0000000000 0.0000000000 -788.1577365906 0.0232653475 0.3806638103
-0.1390843873 0.8535724312 0.0000000000 0.0000000000 0.0000000000 -769.8208465282 0.0232653475 0.3806638103
-0.1584886379 0.8464593543 0.0000000000 0.0000000000 0.0000000000 -745.9955164357 0.0232653475 0.3806638103
-0.1775823650 0.8385504736 0.0000000000 0.0000000000 0.0000000000 -718.0062817705 0.0232653475 0.3806638103
-0.1963329471 0.8298593012 0.0000000000 0.0000000000 0.0000000000 -684.1798946202 0.0232653475 0.3806638103
-0.2147083492 0.8204006859 0.0000000000 0.0000000000 0.0000000000 -646.5429419640 0.0232653475 0.3806638103
-0.2326771772 0.8101907875 0.0000000000 0.0000000000 0.0000000000 -603.6951668946 0.0232653475 0.3806638103
-0.2502087317 0.7992470494 0.0000000000 0.0000000000 0.0000000000 -556.8434939336 0.0232653475 0.3806638103
-0.2672730604 0.7875881689 0.0000000000 0.0000000000 0.0000000000 -506.3610047216 0.0232653475 0.3806638103
-0.2838410090 0.7752340650 0.0000000000 0.0000000000 0.0000000000 -451.9399241807 0.0232653475 0.3806638103
-0.2998842716 0.7622058443 0.0000000000 0.0000000000 0.0000000000 -396.3888299053 0.0232653475 0.3806638103
-0.3153754385 0.7485257656 0.0000000000 0.0000000000 0.0000000000 -333.1045669637 0.0232653475 0.3806638103
-0.3445966080 0.7193045960 0.0000000000 0.0000000000 0.0000000000 -202.9344691408 0.0232653475 0.3806638103
-0.3582766867 0.7038134292 0.0000000000 0.0000000000 0.0000000000 -147.5589922890 0.0232653475 0.3806638103
-0.3713049073 0.6877701666 0.0000000000 0.0000000000 0.0000000000 -81.6942879470 0.0232653475 0.3806638103
-0.3836590113 0.6712022179 0.0000000000 0.0000000000 0.0000000000 -19.4882540717 0.0232653475 0.3806638103
-0.3953178918 0.6541378893 0.0000000000 0.0000000000 0.0000000000 42.6827008111 0.0232653475 0.3806638103
-0.4062616298 0.6366063347 0.0000000000 0.0000000000 0.0000000000 103.0694093799 0.0232653475 0.3806638103
-0.4164715282 0.6186375067 0.0000000000 0.0000000000 0.0000000000 161.5319226389 0.0232653475 0.3806638103
-0.4259301436 0.6002621046 0.0000000000 0.0000000000 0.0000000000 217.4953167832 0.0232653475 0.3806638103
-0.4346213159 0.5815115225 0.0000000000 0.0000000000 0.0000000000 270.5421864770 0.0232653475 0.3806638103
-0.4425301966 0.5624177955 0.0000000000 0.0000000000 0.0000000000 320.2462854581 0.0232653475 0.3806638103
-0.4496432734 0.5430135448 0.0000000000 0.0000000000 0.0000000000 366.2242999252 0.0232653475 0.3806638103
-0.4559483938 0.5233319223 0.0000000000 0.0000000000 0.0000000000 408.1242430330 0.0232653475 0.3806638103
-0.4614347856 0.5034065537 0.0000000000 0.0000000000 0.0000000000 445.6321763297 0.0232653475 0.3806638103
-0.4660930752 0.4832714813 0.0000000000 0.0000000000 0.0000000000 478.4729254948 0.0232653475 0.3806638103
-0.4699153043 0.4629611053 0.0000000000 0.0000000000 0.0000000000 506.4122443794 0.0232653475 0.3806638103
-0.4728949424 0.4425101258 0.0000000000 0.0000000000 0.0000000000 529.2580554047 0.0232653475 0.3806638103
-0.4750268991 0.4219534829 0.0000000000 0.0000000000 0.0000000000 546.8615258720 0.0232653475 0.3806638103
-0.4763075317 0.4013262973 0.0000000000 0.0000000000 0.0000000000 559.1180779360 0.0232653475 0.3806638103
-0.4767346525 0.3806638101 0.0000000000 0.0000000000 0.0000000000 565.9680633886 0.0232653475 0.3806638103
-0.4763075317 0.3600013230 0.0000000000 0.0000000000 0.0000000000 567.3982660026 0.0232653475 0.3806638103
-0.4750268990 0.3393741374 0.0000000000 0.0000000000 0.0000000000 563.4420404817 0.0232653475 0.3806638103
-0.4728949424 0.3188174945 0.0000000000 0.0000000000 0.0000000000 554.1815135403 0.0232653475 0.3806638103
-0.4699153042 0.2983665150 0.0000000000 0.0000000000 0.0000000000 539.7438971398 0.0232653475 0.3806638103
-0.4660930752 0.2780561390 0.0000000000 0.0000000000 0.0000000000 520.3057481876 0.0232653475 0.3806638103
-0.4614347855 0.2579210666 0.0000000000 0.0000000000 0.0000000000 496.0793672041 0.0232653475 0.3806638103
-0.4559483937 0.2379956980 0.0000000000 0.0000000000 0.0000000000 467.3315057005 0.0232653475 0.3806638103
-0.4496432733 0.2183140755 0.0000000000 0.0000000000 0.0000000000 434.3408616557 0.0232653475 0.3806638103
-0.4425301965 0.1989098248 0.0000000000 0.0000000000 0.0000000000 397.4736138223 0.0232653475 0.3806638103
-0.4346213158 0.1798160978 0.0000000000 0.0000000000 0.0000000000 357.0259601234 0.0232653475 0.3806638103
-0.4259301434 0.1610655157 0.0000000000 0.0000000000 0.0000000000 313.5511198079 0.0232653475 0.3806638103
-0.4164715280 0.1426901136 0.0000000000 0.0000000000 0.0000000000 267.0877312610 0.0232653475 0.3806638103
-0.4062616296 0.1247212856 0.0000000000 0.0000000000 0.0000000000 219.1601319206 0.0232653475 0.3806638103
-0.3953178915 0.1071897311 0.0000000000 0.0000000000 0.0000000000 167.0116323717 0.0232653475 0.3806638103
-0.3836590110 0.0901254024 0.0000000000 0.0000000000 0.0000000000 121.2330815147 0.0232653475 0.3806638103
-0.3713049071 0.0735574538 0.0000000000 0.0000000000 0.0000000000 51.6137856317 0.0232653475 0.3806638103
-0.3582766865 0.0575141912 0.0000000000 0.0000000000 0.0000000000 50.3574807016 0.0232653475 0.3806638103
-0.3445966077 0.0420230243 0.0000000000 0.0000000000 0.0000000000 -168.6831016217 0.0232653475 0.3806638103
-0.3153754382 0.0128018548 0.0000000000 0.0000000000 0.0000000000 -275.1321179632 0.0232653475 0.3806638103
-0.2998842713 -0.0008782239 0.0000000000 0.0000000000 0.0000000000 -162.5322834077 0.0232653475 0.3806638103
-0.2838410087 -0.0139064445 0.0000000000 0.0000000000 0.0000000000 -261.4713427142 0.0232653475 0.3806638103
-0.2672730600 -0.0262605484 0.0000000000 0.0000000000 0.0000000000 -261.3570243704 0.0232653475 0.3806638103
-0.2502087314 -0.0379194289 0.0000000000 0.0000000000 0.0000000000 -322.3899972902 0.0232653475 0.3806638103
-0.2326771768 -0.0488631670 0.0000000000 0.0000000000 0.0000000000 -339.9403251136 0.0232653475 0.3806638103
-0.2147083488 -0.0590730654 0.0000000000 0.0000000000 0.0000000000 -381.0756702131 0.0232653475 0.3806638103
-0.1963329467 -0.0685316807 0.0000000000 0.0000000000 0.0000000000 -402.8096444469 0.0232653475 0.3806638103
-0.1775823646 -0.0772228531 0.0000000000 0.0000000000 0.0000000000 -429.8036393865 0.0232653475 0.3806638103
-0.1584886376 -0.0851317338 0.0000000000 0.0000000000 0.0000000000 -447.5384051485 0.0232653475 0.3806638103
-0.1390843869 -0.0922448106 0.0000000000 0.0000000000 0.0000000000 -463.9744530490 0.0232653475 0.3806638103
-0.1194027644 -0.0985499310 0.0000000000 0.0000000000 0.0000000000 -474.6557274766 0.0232653475 0.3806638103
-0.0994773958 -0.1040363227 0.0000000000 0.0000000000 0.0000000000 -482.3069528502 0.0232653475 0.3806638103
-0.0793423233 -0.1086946124 0.0000000000 0.0000000000 0.0000000000 -485.6837055270 0.0232653475 0.3806638103
-0.0590319474 -0.1125168414 0.0000000000 0.0000000000 0.0000000000 -485.9055241202 0.0232653475 0.3806638103
-0.0385809679 -0.1154964796 0.0000000000 0.0000000000 0.0000000000 -482.8703797122 0.0232653475 0.3806638103
-0.0180243250 -0.1176284362 0.0000000000 0.0000000000 0.0000000000 -477.2406067780 0.0232653475 0.3806638103
0.0026028606 -0.1189090689 0.0000000000 0.0000000000 0.0000000000 -469.3275725626 0.0232653475 0.3806638103
0.0232653478 -0.1193361897 0.0000000000 0.0000000000 0.0000000000 -459.6570014448 0.0232653475 0.3806638103
0.0439278349 -0.1189090688 0.0000000000 0.0000000000 0.0000000000 -448.6996356650 0.0232653475 0.3806638103
0.0645550205 -0.1176284361 0.0000000000 0.0000000000 0.0000000000 -436.8595427932 0.0232653475 0.3806638103
0.0851116634 -0.1154964795 0.0000000000 0.0000000000 0.0000000000 -424.6027840496 0.0232653475 0.3806638103
0.1055626429 -0.1125168413 0.0000000000 0.0000000000 0.0000000000 -412.3079644860 0.0232653475 0.3806638103
0.1258730189 -0.1086946123 0.0000000000 0.0000000000 0.0000000000 -400.2840881808 0.0232653475 0.3806638103
0.1460080913 -0.1040363225 0.0000000000 0.0000000000 0.0000000000 -388.8484886606 0.0232653475 0.3806638103
0.1659334599 -0.0985499308 0.0000000000 0.0000000000 0.0000000000 -378.1373323257 0.0232653475 0.3806638103
0.1856150824 -0.0922448104 0.0000000000 0.0000000000 0.0000000000 -368.3545351925 0.0232653475 0.3806638103
0.2050193331 -0.0851317336 0.0000000000 0.0000000000 0.0000000000 -359.5688332871 0.0232653475 0.3806638103
0.2241130601 -0.0772228529 0.0000000000 0.0000000000 0.0000000000 -351.8302639514 0.0232653475 0.3806638103
0.2428636422 -0.0685316805 0.0000000000 0.0000000000 0.0000000000 -345.1074872845 0.0232653475 0.3806638103
0.2612390443 -0.0590730651 0.0000000000 0.0000000000 0.0000000000 -339.3879445129 0.0232653475 0.3806638103
0.2792078723 -0.0488631667 0.0000000000 0.0000000000 0.0000000000 -334.4192088857 0.0232653475 0.3806638103
0.2967394268 -0.0379194286 0.0000000000 0.0000000000 0.0000000000 -330.2728275718 0.0232653475 0.3806638103
0.3138037554 -0.0262605481 0.0000000000 0.0000000000 0.0000000000 -326.3290668663 0.0232653475 0.3806638103
0.3303717041 -0.0139064441 0.0000000000 0.0000000000 0.0000000000 -323.1372339674 0.0232653475 0.3806638103
0.3464149667 -0.0008782235 0.0000000000 0.0000000000 0.0000000000 -319.3765349535 0.0232653475 0.3806638103
0.3619061335 0.0128018552 0.0000000000 0.0000000000 0.0000000000 -317.3827682133 0.0232653475 0.3806638103
0.5765637621 -0.1162531396 0.0000000000 0.0285758941 0.0415139736 -302.4024776553 0.0267748578 0.3938764134
0.5951764557 -0.0951149728 0.0000000000 -0.0216769892 0.0529480288 -301.6105937147 0.0266976630 0.3941005853
0.6129685637 -0.0731848746 0.0000000000 -0.0599875867 0.0631345002 -301.6016870380 0.0265949515 0.3944324764
0.6299271578 -0.0505768761 0.0000000000 -0.0863848777 0.0712920123 -302.8097322861 0.0264788226 0.3947882627
0.6460333683 -0.0273558336 0.0000000000 -0.1026411806 0.0774128631 -305.5368167822 0.0263542873 0.3951342095
0.6612689203 -0.0035694261 0.0000000000 -0.1118043935 0.0823012673 -309.9137995453 0.0262257706 0.3954546308
0.6756159268 0.0207418083 0.0000000000 -0.1173044327 0.0873130826 -315.9501640205 0.0260968737 0.3957418079
0.6890565790 0.0455404848 0.0000000000 -0.1220202019 0.0939153556 -323.6255568503 0.0259700337 0.3959919556
0.7015732077 0.0707905076 0.0000000000 -0.1277197594 0.1032851897 -332.9593194037 0.0258465566 0.3962033116
0.7131485482 0.0964561202 0.0000000000 -0.1349828237 0.1160865078 -344.0288409421 0.0257268561 0.3963751381
0.7237660456 0.1225014107 0.0000000000 -0.1434507822 0.1324358341 -356.9450803355 0.0256107340 0.3965071785
0.7334101105 0.1488900612 0.0000000000 -0.1521845643 0.1519892351 -371.8065254131 0.0254976127 0.3965993573
0.7420663034 0.1755852280 0.0000000000 -0.1599880092 0.1740746307 -388.6483184739 0.0253866989 0.3966516084
0.7497214624 0.2025494904 0.0000000000 -0.1656496664 0.1978224907 -407.3969273935 0.0252770925 0.3966637738
0.7563637969 0.2297448409 0.0000000000 -0.1681077213 0.2222771014 -427.8379143951 0.0251678627 0.3966355410
0.7619829646 0.2571327015 0.0000000000 -0.1665547251 0.2464858135 -449.6027724909 0.0250581096 0.3965664065
0.7665701399 0.2846739617 0.0000000000 -0.1604945841 0.2695674975 -472.1780378307 0.0249470201 0.3964556610
0.7701180771 0.3123290363 0.0000000000 -0.1497593943 0.2907608577 -494.9358655852 0.0248339196 0.3963023931
0.7726211659 0.3400579445 0.0000000000 -0.1344926330 0.3094528396 -517.1812134756 0.0247183180 0.3961055144
0.7740754756 0.3678204083 0.0000000000 -0.1151066894 0.3251883297 -538.2079709698 0.0245999470 0.3958638037
0.7744787867 0.3955759718 0.0000000000 -0.0922243430 0.3376640592 -557.3554896952 0.0244787867 0.3955759715
0.7738306103 0.4232841403 0.0000000000 -0.0666140489 0.3467110408 -574.0579897603 0.0243550817 0.3952407443
0.7721321958 0.4509045345 0.0000000000 -0.0391274383 0.3522702373 -587.8816421803 0.0242293480 0.3948569641
0.7693865308 0.4783970571 0.0000000000 -0.0106449261 0.3543653095 -598.5469189205 0.0241023735 0.3944236998
0.7655983329 0.5057220649 0.0000000000 0.0179673372 0.3530746734 -605.9363414811 0.0239752133 0.3939403650
0.7607740351 0.5328405387 0.0000000000 0.0458881268 0.3485036037 -610.0896554869 0.0238491803 0.3934068331
0.7549217614 0.5597142433 0.0000000000 0.0723601880 0.3407567381 -611.1895992271 0.0237258273 0.3928235426
0.7480512875 0.5863058702 0.0000000000 0.0967005044 0.3299126977 -609.5417925873 0.0236069178 0.3921915862
0.7401739813 0.6125791553 0.0000000000 0.1183074380 0.3160054006 -605.5517868882 0.0234943770 0.3915127743
0.7313027168 0.6384989651 0.0000000000 0.1366738351 0.2990195451 -599.7009842361 0.0233902191 0.3907896685
0.7214517548 0.6640313471 0.0000000000 0.1514195838 0.2789080466 -592.5213483249 0.0232964434 0.3900255786
0.7106365878 0.6891435355 0.0000000000 0.1623660668 0.2556349996 -584.5676976264 0.0232148960 0.3892245171
0.6988737475 0.7138039074 0.0000000000 0.1696925709 0.2292413113 -576.3873211587 0.0231470967 0.3883911029
0.6861805880 0.7379818784 0.0000000000 0.1742239874 0.1999282761 -568.4895930153 0.0230940429 0.3875304071
0.6725750796 0.7616477331 0.0000000000 0.1778394030 0.1681562078 -561.3199297309 0.0230560268 0.3866477330
0.6580756871 0.7847724021 0.0000000000 0.1838130086 0.1347405164 -555.2391189498 0.0230325377 0.3857483445
0.6427014366 0.8073272468 0.0000000000 0.1967112968 0.1008842148 -550.5033175242 0.0230223560 0.3848372031
0.6264722435 0.8292840064 0.0000000000 0.2215540314 0.0680620528 -547.2416063128 0.0230239087 0.3839188671
0.6094094358 0.8506152118 0.0000000000 0.2624209792 0.0377430158 -545.4406864570 0.0230358240 0.3829978603
0.5915362805 0.8712958183 0.0000000000 0.3211934949 0.0110758513 -544.9547619440 0.0230574882 0.3820802598
0.5728777580 0.8913080459 0.0000000000 0.3971378850 -0.0112737040 -545.5465379290 0.0230888542 0.3811784925
0.5313169842 0.9311258387 0.0000000000 0.5983836094 -0.0435494846 -549.1561859775 0.0233558056 0.3793329056
0.5083154325 0.9508052506 0.0000000000 0.7163663711 -0.0524738190 -551.5966745455 0.0235910042 0.3784921994
0.4844916906 0.9695995541 0.0000000000 0.8350638697 -0.0560650298 -554.0119117968 0.0238321562 0.3777441720
0.4598866592 0.9874599835 0.0000000000 0.9491776209 -0.0545084945 -556.1647985438 0.0240790477 0.3770734455
0.4345422985 1.0043477122 0.0000000000 1.0543766885 -0.0482041676 -557.8524077053 0.0243311800 0.3764728535
0.4085028344 1.0202294929 0.0000000000 1.1475078116 -0.0377590909 -558.9274193649 0.0245890477 0.3759390271
0.3818141577 1.0350766100 0.0000000000 1.2267336867 -0.0239200352 -559.3051463820 0.0248536130 0.3754712965
0.3545232495 1.0488643861 0.0000000000 1.2915051777 -0.0074682661 -558.9589489950 0.0251258080 0.3750711496
0.3266777666 1.0615714986 0.0000000000 1.3423602854 0.0108785319 -557.9030938279 0.0254061982 0.3747415036
0.2983258501 1.0731792658 0.0000000000 1.3806135262 0.0305319483 -556.1706205598 0.0256948723 0.3744859497
0.2695160838 1.0836710745 0.0000000000 1.4080173419 0.0510599514 -553.7927648962 0.0259914820 0.3743081432
0.2402974968 1.0930319819 0.0000000000 1.4264602885 0.0721810694 -550.7831790838 0.0262953287 0.3742113701
0.2107195465 1.1012484492 0.0000000000 1.4377389806 0.0937367570 -547.1279001778 0.0266054313 0.3741982497
0.1808320561 1.1083081657 0.0000000000 1.4434148987 0.1156538990 -542.7810065219 0.0269205496 0.3742705317
0.1506851104 1.1141999514 0.0000000000 1.4447482884 0.1379072276 -537.6653432301 0.0272391679 0.3744289739
0.1203289294 1.1189137369 0.0000000000 1.4426909126 0.1604878378 -531.6772359550 0.0275594561 0.3746733021
0.0898137414 1.1224406192 0.0000000000 1.4379165148 0.1833804243 -524.6938080476 0.0278792324 0.3750022494
0.0591896760 1.1247729778 0.0000000000 1.4308701886 0.2065492275 -516.5814854605 0.0281959455 0.3754136590
0.0285066907 1.1259046196 0.0000000000 1.4218227402 0.2299312051 -507.2045045284 0.0285066909 0.3759046196
-0.0021854687 1.1258309178 0.0000000000 1.4109213915 0.2534344525 -496.4326123957 0.0288082622 0.3764715990
-0.0328372770 1.1245489140 0.0000000000 1.3982325394 0.2769400121 -484.1475299601 0.0290972323 0.3771105442
-0.0633994195 1.1220573666 0.0000000000 1.3837753140 0.3003056112 -470.2480409674 0.0293700541 0.3778169318
-0.0938227736 1.1183567461 0.0000000000 1.3675464385 0.3233703094 -454.6537507791 0.0296231693 0.3785857686
-0.1240583904 1.1134491893 0.0000000000 1.3495377134 0.3459594132 -437.3076424728 0.0298531164 0.3794115554
-0.1540574825 1.1073384295 0.0000000000 1.3297476649 0.3678892808 -418.1775817643 0.0300566330 0.3802882301
-0.1837714165 1.1000297197 0.0000000000 1.3081887900 0.3889718104 -397.2569201986 0.0302307519 0.3812091079
-0.2131517116 1.0915297595 0.0000000000 1.2848916013 0.4090185110 -374.5643378464 0.0303728905 0.3821668283
-0.2421500433 1.0818466250 0.0000000000 1.2599064065 0.4278441110 -350.1430550964 0.0304809348 0.3831533091
-0.2707182540 1.0709896995 0.0000000000 1.2333035176 0.4452696984 -324.0595292340 0.0305533147 0.3841597046
-0.2988083764 1.0589695865 0.0000000000 1.2051723830 0.4611253993 -296.4017328053 0.0305890655 0.3851763501
-0.3263726780 1.0457979768 0.0000000000 1.1756199742 0.4752526210 -267.2770928963 0.0305878669 0.3861926635
-0.3533637452 1.0314874059 0.0000000000 1.1447686135 0.4875059017 -236.8101163313 0.0305500418 0.3871969402
-0.3797346354 1.0160507500 0.0000000000 1.1127533072 0.4977544809 -205.1397834583 0.0304764833 0.3881758914
-0.4054391714 0.9995000773 0.0000000000 1.0797182076 0.5058837558 -172.4160745519 0.0303684403 0.3891135395
-0.4304325597 0.9818437485 0.0000000000 1.0458118707 0.5117977513 -138.7973848937 0.0302269750 0.3899883666
-0.4546726116 0.9630780310 0.0000000000 1.0111747939 0.5154227057 -104.4352195083 0.0300518169 0.3907649800
-0.4781209677 0.9431590690 0.0000000000 0.9759239267 0.5167343021 -69.5009193261 0.0298402112 0.3913661361
-0.5224106096 0.9010308485 0.0000000000 0.9052090195 0.5112732662 1.0916075006 0.0293823236 0.3930696699
-0.5431573948 0.8789479780 0.0000000000 0.8702846596 0.5045578924 36.0857993667 0.0291556565 0.3942235498
-0.5629458558 0.8558715654 0.0000000000 0.8355857048 0.4954393699 70.8280187721 0.0289095264 0.3952120311
-0.5817374356 0.8318976957 0.0000000000 0.8013374301 0.4838698276 105.1044434353 0.0286491025 0.3960900843
-0.5994955519 0.8070886883 0.0000000000 0.7677442996 0.4698493687 138.7167778507 0.0283793070 0.3968775699
-0.6161871832 0.7814971049 0.0000000000 0.7350018047 0.4534017713 171.4716033176 0.0281032827 0.3975833183
-0.6317822886 0.7551726684 0.0000000000 0.7033019616 0.4345683520 203.1784180800 0.0278230249 0.3982121239
-0.6462534432 0.7281645252 0.0000000000 0.6728345301 0.4134065326 233.6493285652 0.0275397933 0.3987670838
-0.6595756919 0.7005220248 0.0000000000 0.6437870116 0.3899895255 262.6995404532 0.0272543032 0.3992504566
-0.6717264872 0.6722949560 0.0000000000 0.6163440001 0.3644064235 290.1482550832 0.0269668290 0.3996639783
-0.6826856529 0.6435335694 0.0000000000 0.5906861664 0.3367623745 315.8198160861 0.0266772785 0.4000089678
-0.6924353507 0.6142885175 0.0000000000 0.5669889605 0.3071787302 339.5450298717 0.0263852612 0.4002863496
-0.7009600386 0.5846107719 0.0000000000 0.5454210746 0.2757931234 361.1626126217 0.0260901610 0.4004966569
-0.7082464141 0.5545515459 0.0000000000 0.5261426975 0.2427594623 380.5207378421 0.0257912199 0.4006400395
-0.7142833406 0.5241622336 0.0000000000 0.5093035998 0.2082478244 397.4786787988 0.0254876370 0.4007162912
-0.7190617554 0.4934943737 0.0000000000 0.4950410981 0.1724442113 411.9085548563 0.0251786794 0.4007249006
-0.7225745662 0.4625996342 0.0000000000 0.4834779496 0.1355500902 423.6971903253 0.0248638036 0.4006651254
-0.7248165444 0.4315298196 0.0000000000 0.4747202055 0.0977816306 432.7480724885 0.0245427744 0.4005360893
-0.7257842306 0.4003368967 0.0000000000 0.4688550387 0.0593685679 438.9833579845 0.0242157694 0.4003368970
-0.7254758649 0.3690730368 0.0000000000 0.4659485786 0.0205526758 442.3458477219 0.0238834538 0.4000667678
-0.7238913565 0.3377906745 0.0000000000 0.4660438505 -0.0184141204 442.8008499016 0.0235470132 0.3997251839
-0.7210322958 0.3065425803 0.0000000000 0.4691589891 -0.0572719667 440.3378825514 0.0232081390 0.3993120540
-0.7169020092 0.2753819458 0.0000000000 0.4752858161 -0.0957556490 434.9721564994 0.0228689683 0.3988278888
-0.7115056473 0.2443624763 0.0000000000 0.4843888134 -0.1335975269 426.7457732234 0.0225319866 0.3982739833
-0.7048502943 0.2135384816 0.0000000000 0.4964044694 -0.1705308506 415.7285510739 0.0221999051 0.3976525973
-0.6969450894 0.1829649545 0.0000000000 0.5112409467 -0.2062934327 402.0183788987 0.0218755223 0.3969671230
-0.6878013537 0.1526976195 0.0000000000 0.5287780884 -0.2406315895 385.7410079741 0.0215615775 0.3962222217