 TITLE = "Tecplot data"
 VARIABLES = "X", "Y", "Z" "U", "V", "p", "dispX", "dispY"
 ZONE SOLUTIONTIME=54.900000, NODES=26114 , ELEMENTS=25916, DATAPACKING=POINT, ZONETYPE=FEQUADRILATERAL
0.3491857958 0.1994374357 0.0000000000 0.0000000000 0.0000000000 -545.2383284013 -0.0043675948 -0.1541159549
0.3491857961 -0.5076693452 0.0000000000 0.0000000000 0.0000000000 -311.6905766241 -0.0043675948 -0.1541159549
-0.3579209855 0.1994374356 0.0000000000 0.0000000000 0.0000000000 -221.5208232512 -0.0043675948 -0.1541159549
-0.3579209852 -0.5076693457 0.0000000000 0.0000000000 0.0000000000 -115.1779767795 -0.0043675948 -0.1541159549
0.5259211220 0.3763600376 0.0000000000 0.3706469785 -0.0273484165 -547.0257934533 -0.0044089638 -0.1539700483
0.5247055426 -0.6898298286 0.0000000000 0.2127412385 -0.0332624547 -284.6155016867 -0.0056245437 -0.1594997431
-0.5371549626 0.3718783903 0.0000000000 0.8743492670 0.4892607896 -0.7074201104 -0.0068248766 -0.1584516954
-0.5333276105 -0.6870268282 0.0000000000 0.8913063920 -0.5028442466 61.7147727303 -0.0029975249 -0.1566967420
1.0537724372 0.9045280510 0.0000000000 1.1132087356 -0.0916261574 -188.9974470729 -0.0068877345 -0.1561321208
1.0575248048 -1.2190256380 0.0000000000 1.3245128927 0.0727342133 -233.0929883261 -0.0031353677 -0.1583654670
-1.0719267701 0.8919398624 0.0000000000 0.9499457552 0.1571800811 51.5268796937 -0.0112665979 -0.1687203091
-1.0607645719 -1.2259737166 0.0000000000 0.9660357309 -0.1691880800 91.6593987519 -0.0001044007 -0.1653135442
4.1807457603 3.1630263364 0.0000000000 1.0147296966 -0.0360394079 13.8581704319 -0.0192542397 -0.1369736636
4.2108471804 -3.4365677458 0.0000000000 1.0256963560 -0.0129068803 31.6095328742 0.0108471804 -0.1365677458
20.0000000000 4.7000000000 0.0000000000 1.0486848530 0.0305055905 0.1687847423 0.0000000000 0.0000000000
20.0000000000 -4.7000000000 0.0000000000 1.0344355173 -0.0271549883 0.0483410815 0.0000000000 0.0000000000
-10.0000000000 15.0000000000 0.0000000000 1.0000000000 0.0000000000 26.7441325597 0.0000000000 0.0000000000
20.0000000000 15.0000000000 0.0000000000 1.0310425464 0.0000000000 0.0196648628 0.0000000000 0.0000000000
20.0000000000 -15.0000000000 0.0000000000 1.0290531928 0.0000000000 0.0261717268 0.0000000000 0.0000000000
-10.0000000000 -15.0000000000 0.0000000000 1.0000000000 0.0000000000 30.3303842194 0.0000000000 0.0000000000
0.3621583414 -0.4942023235 0.0000000000 0.0000000000 0.0000000000 -309.0955185996 -0.0043675948 -0.1541159549
0.3746182670 -0.4802596603 0.0000000000 0.0000000000 0.0000000000 -308.6096312617 -0.0043675948 -0.1541159549
0.3865481467 -0.4658608556 0.0000000000 0.0000000000 0.0000000000 -308.7129161579 -0.0043675948 -0.1541159549
0.3979312953 -0.4510260474 0.0000000000 0.0000000000 0.0000000000 -310.0981511886 -0.0043675948 -0.1541159549
0.4087517925 -0.4357759837 0.0000000000 0.0000000000 0.0000000000 -312.2479073247 -0.0043675948 -0.1541159549
0.4189945050 -0.4201319929 0.0000000000 0.0000000000 0.0000000000 -315.1383061605 -0.0043675948 -0.1541159549
0.4286451073 -0.4041159546 0.0000000000 0.0000000000 0.0000000000 -318.5171660957 -0.0043675948 -0.1541159549
0.4376901021 -0.3877502688 0.0000000000 0.0000000000 0.0000000000 -322.2752881844 -0.0043675948 -0.1541159549
0.4461168393 -0.3710578242 0.0000000000 0.0000000000 0.0000000000 -326.2908763243 -0.0043675948 -0.1541159549
0.4539135333 -0.3540619668 0.0000000000 0.0000000000 0.0000000000 -330.4980467130 -0.0043675948 -0.1541159549
0.4610692796 -0.3367864668 0.0000000000 0.0000000000 0.0000000000 -334.8399551428 -0.0043675948 -0.1541159549
0.4675740705 -0.3192554856 0.0000000000 0.0000000000 0.0000000000 -339.2757937335 -0.0043675948 -0.1541159549
0.4734188082 -0.3014935419 0.0000000000 0.0000000000 0.0000000000 -343.7686385833 -0.0043675948 -0.1541159549
0.4785953184 -0.2835254772 0.0000000000 0.0000000000 0.0000000000 -348.2910833584 -0.0043675948 -0.1541159549
0.4830963614 -0.2653764216 0.0000000000 0.0000000000 0.0000000000 -352.8295315321 -0.0043675948 -0.1541159549
0.4869156419 -0.2470717582 0.0000000000 0.0000000000 0.0000000000 -357.3927992370 -0.0043675948 -0.1541159549
0.4900478184 -0.2286370878 0.0000000000 0.0000000000 0.0000000000 -362.0182139827 -0.0043675948 -0.1541159549
0.4924885102 -0.2100981927 0.0000000000 0.0000000000 0.0000000000 -366.7749444869 -0.0043675948 -0.1541159549
0.4942343038 -0.1914810015 0.0000000000 0.0000000000 0.0000000000 -371.7621244863 -0.0043675948 -0.1541159549
0.4952827576 -0.1728115518 0.0000000000 0.0000000000 0.0000000000 -377.1017358352 -0.0043675948 -0.1541159549
0.4956324052 -0.1541159547 0.0000000000 0.0000000000 0.0000000000 -382.9264415889 -0.0043675948 -0.1541159549
0.4952827576 -0.1354203576 0.0000000000 0.0000000000 0.0000000000 -389.3639146912 -0.0043675948 -0.1541159549
0.4942343038 -0.1167509079 0.0000000000 0.0000000000 0.0000000000 -396.5195784576 -0.0043675948 -0.1541159549
0.4924885101 -0.0981337167 0.0000000000 0.0000000000 0.0000000000 -404.4603956889 -0.0043675948 -0.1541159549
0.4900478183 -0.0795948216 0.0000000000 0.0000000000 0.0000000000 -413.2017093116 -0.0043675948 -0.1541159549
0.4869156418 -0.0611601512 0.0000000000 0.0000000000 0.0000000000 -422.6996748643 -0.0043675948 -0.1541159549
0.4830963613 -0.0428554878 0.0000000000 0.0000000000 0.0000000000 -432.8492588349 -0.0043675948 -0.1541159549
0.4785953183 -0.0247064322 0.0000000000 0.0000000000 0.0000000000 -443.4902196890 -0.0043675948 -0.1541159549
0.4734188081 -0.0067383676 0.0000000000 0.0000000000 0.0000000000 -454.4164969463 -0.0043675948 -0.1541159549
0.4675740703 0.0110235762 0.0000000000 0.0000000000 0.0000000000 -465.3949099112 -0.0043675948 -0.1541159549
0.4610692795 0.0285545574 0.0000000000 0.0000000000 0.0000000000 -476.1781359072 -0.0043675948 -0.1541159549
0.4539135331 0.0458300574 0.0000000000 0.0000000000 0.0000000000 -486.5338398783 -0.0043675948 -0.1541159549
0.4461168391 0.0628259148 0.0000000000 0.0000000000 0.0000000000 -496.2446328090 -0.0043675948 -0.1541159549
0.4376901019 0.0795183593 0.0000000000 0.0000000000 0.0000000000 -505.1551197518 -0.0043675948 -0.1541159549
0.4286451071 0.0958840452 0.0000000000 0.0000000000 0.0000000000 -513.1249016571 -0.0043675948 -0.1541159549
0.4189945048 0.1119000834 0.0000000000 0.0000000000 0.0000000000 -520.1370095616 -0.0043675948 -0.1541159549
0.4087517923 0.1275440742 0.0000000000 0.0000000000 0.0000000000 -526.1172710176 -0.0043675948 -0.1541159549
0.3979312950 0.1427941380 0.0000000000 0.0000000000 0.0000000000 -531.2520079250 -0.0043675948 -0.1541159549
0.3865481464 0.1576289461 0.0000000000 0.0000000000 0.0000000000 -535.4231157261 -0.0043675948 -0.1541159549
0.3746182667 0.1720277508 0.0000000000 0.0000000000 0.0000000000 -539.1671030224 -0.0043675948 -0.1541159549
0.3621583411 0.1859704140 0.0000000000 0.0000000000 0.0000000000 -542.0283992986 -0.0043675948 -0.1541159549
0.3342731910 0.2137460005 0.0000000000 0.0000000000 0.0000000000 -547.9978476976 -0.0043675948 -0.1541159549
0.3187820241 0.2274260792 0.0000000000 0.0000000000 0.0000000000 -551.5669436454 -0.0043675948 -0.1541159549
0.3027387615 0.2404542998 0.0000000000 0.0000000000 0.0000000000 -555.3260874200 -0.0043675948 -0.1541159549
0.2861708129 0.2528084038 0.0000000000 0.0000000000 0.0000000000 -560.0281115644 -0.0043675948 -0.1541159549
0.2691064842 0.2644672843 0.0000000000 0.0000000000 0.0000000000 -565.5269417540 -0.0043675948 -0.1541159549
0.2515749297 0.2754110223 0.0000000000 0.0000000000 0.0000000000 -572.0894768649 -0.0043675948 -0.1541159549
0.2336061017 0.2856209207 0.0000000000 0.0000000000 0.0000000000 -579.6543897678 -0.0043675948 -0.1541159549
0.2152306996 0.2950795361 0.0000000000 0.0000000000 0.0000000000 -588.2867597581 -0.0043675948 -0.1541159549
0.1964801175 0.3037707085 0.0000000000 0.0000000000 0.0000000000 -597.9392836606 -0.0043675948 -0.1541159549
0.1773863904 0.3116795892 0.0000000000 0.0000000000 0.0000000000 -608.5967038139 -0.0043675948 -0.1541159549
0.1579821397 0.3187926660 0.0000000000 0.0000000000 0.0000000000 -620.1832879317 -0.0043675948 -0.1541159549
0.1383005173 0.3250977864 0.0000000000 0.0000000000 0.0000000000 -632.5960446834 -0.0043675948 -0.1541159549
0.1183751487 0.3305841781 0.0000000000 0.0000000000 0.0000000000 -645.6651322838 -0.0043675948 -0.1541159549
0.0982400762 0.3352424678 0.0000000000 0.0000000000 0.0000000000 -659.1612119024 -0.0043675948 -0.1541159549
0.0779297003 0.3390646968 0.0000000000 0.0000000000 0.0000000000 -672.7844481656 -0.0043675948 -0.1541159549
0.0574787208 0.3420443350 0.0000000000 0.0000000000 0.0000000000 -686.1723746875 -0.0043675948 -0.1541159549
0.0369220779 0.3441762916 0.0000000000 0.0000000000 0.0000000000 -698.9051424846 -0.0043675948 -0.1541159549
0.0162948922 0.3454569243 0.0000000000 0.0000000000 0.0000000000 -710.5192869333 -0.0043675948 -0.1541159549
-0.0043675949 0.3458840451 0.0000000000 0.0000000000 0.0000000000 -720.5226479118 -0.0043675948 -0.1541159549
-0.0250300820 0.3454569243 0.0000000000 0.0000000000 0.0000000000 -728.4128220294 -0.0043675948 -0.1541159549
-0.0456572676 0.3441762916 0.0000000000 0.0000000000 0.0000000000 -733.6958206034 -0.0043675948 -0.1541159549
-0.0662139105 0.3420443350 0.0000000000 0.0000000000 0.0000000000 -735.9045764648 -0.0043675948 -0.1541159549
-0.0866648900 0.3390646968 0.0000000000 0.0000000000 0.0000000000 -734.6155203959 -0.0043675948 -0.1541159549
-0.1069752660 0.3352424677 0.0000000000 0.0000000000 0.0000000000 -729.4625943915 -0.0043675948 -0.1541159549
-0.1271103385 0.3305841780 0.0000000000 0.0000000000 0.0000000000 -720.1479909134 -0.0043675948 -0.1541159549
-0.1470357070 0.3250977863 0.0000000000 0.0000000000 0.0000000000 -706.4494924573 -0.0043675948 -0.1541159549
-0.1667173295 0.3187926659 0.0000000000 0.0000000000 0.0000000000 -688.2244769209 -0.0043675948 -0.1541159549
-0.1861215802 0.3116795891 0.0000000000 0.0000000000 0.0000000000 -665.4109381700 -0.0043675948 -0.1541159549
-0.2052153072 0.3037707084 0.0000000000 0.0000000000 0.0000000000 -638.0259824427 -0.0043675948 -0.1541159549
-0.2239658893 0.2950795360 0.0000000000 0.0000000000 0.0000000000 -606.1623340641 -0.0043675948 -0.1541159549
-0.2423412914 0.2856209206 0.0000000000 0.0000000000 0.0000000000 -569.9833723121 -0.0043675948 -0.1541159549
-0.2603101195 0.2754110222 0.0000000000 0.0000000000 0.0000000000 -529.7171734102 -0.0043675948 -0.1541159549
-0.2778416740 0.2644672842 0.0000000000 0.0000000000 0.0000000000 -485.6499520670 -0.0043675948 -0.1541159549
-0.2949060026 0.2528084037 0.0000000000 0.0000000000 0.0000000000 -438.1192085014 -0.0043675948 -0.1541159549
-0.3114739512 0.2404542997 0.0000000000 0.0000000000 0.0000000000 -387.5067999408 -0.0043675948 -0.1541159549
-0.3275172138 0.2274260791 0.0000000000 0.0000000000 0.0000000000 -334.2320841744 -0.0043675948 -0.1541159549
-0.3430083807 0.2137460003 0.0000000000 0.0000000000 0.0000000000 -278.7452357932 -0.0043675948 -0.1541159549
-0.3722295502 0.1845248308 0.0000000000 0.0000000000 0.0000000000 -163.0517384814 -0.0043675948 -0.1541159549
-0.3859096290 0.1690336639 0.0000000000 0.0000000000 0.0000000000 -103.8435894976 -0.0043675948 -0.1541159549
-0.3989378496 0.1529904013 0.0000000000 0.0000000000 0.0000000000 -44.4096302902 -0.0043675948 -0.1541159549
-0.4112919535 0.1364224527 0.0000000000 0.0000000000 0.0000000000 14.7337959187 -0.0043675948 -0.1541159549
-0.4229508340 0.1193581240 0.0000000000 0.0000000000 0.0000000000 73.0714841357 -0.0043675948 -0.1541159549
-0.4338945721 0.1018265695 0.0000000000 0.0000000000 0.0000000000 130.0937658176 -0.0043675948 -0.1541159549
-0.4441044705 0.0838577415 0.0000000000 0.0000000000 0.0000000000 185.3017593099 -0.0043675948 -0.1541159549
-0.4535630858 0.0654823394 0.0000000000 0.0000000000 0.0000000000 238.2138963174 -0.0043675948 -0.1541159549
-0.4622542582 0.0467317573 0.0000000000 0.0000000000 0.0000000000 288.3730472064 -0.0043675948 -0.1541159549
-0.4701631389 0.0276380302 0.0000000000 0.0000000000 0.0000000000 335.3524457608 -0.0043675948 -0.1541159549
-0.4772762157 0.0082337795 0.0000000000 0.0000000000 0.0000000000 378.7587233189 -0.0043675948 -0.1541159549
-0.4835813361 -0.0114478430 0.0000000000 0.0000000000 0.0000000000 418.2324641168 -0.0043675948 -0.1541159549
-0.4890677278 -0.0313732115 0.0000000000 0.0000000000 0.0000000000 453.4478745478 -0.0043675948 -0.1541159549
-0.4937260175 -0.0515082840 0.0000000000 0.0000000000 0.0000000000 484.1136392589 -0.0043675948 -0.1541159549
-0.4975482465 -0.0718186600 0.0000000000 0.0000000000 0.0000000000 509.9745726074 -0.0043675948 -0.1541159549
-0.5005278847 -0.0922696395 0.0000000000 0.0000000000 0.0000000000 530.8150527092 -0.0043675948 -0.1541159549
-0.5026598413 -0.1128262824 0.0000000000 0.0000000000 0.0000000000 546.4605585878 -0.0043675948 -0.1541159549
-0.5039404740 -0.1334534680 0.0000000000 0.0000000000 0.0000000000 556.7824480038 -0.0043675948 -0.1541159549
-0.5043675948 -0.1541159551 0.0000000000 0.0000000000 0.0000000000 561.6954366959 -0.0043675948 -0.1541159549
-0.5039404740 -0.1747784422 0.0000000000 0.0000000000 0.0000000000 561.1670931857 -0.0043675948 -0.1541159549
-0.5026598413 -0.1954056278 0.0000000000 0.0000000000 0.0000000000 555.2036046719 -0.0043675948 -0.1541159549
-0.5005278846 -0.2159622707 0.0000000000 0.0000000000 0.0000000000 543.8777661127 -0.0043675948 -0.1541159549
-0.4975482465 -0.2364132503 0.0000000000 0.0000000000 0.0000000000 527.2787785748 -0.0043675948 -0.1541159549
-0.4937260174 -0.2567236262 0.0000000000 0.0000000000 0.0000000000 505.6017746874 -0.0043675948 -0.1541159549
-0.4890677277 -0.2768586987 0.0000000000 0.0000000000 0.0000000000 478.9908707812 -0.0043675948 -0.1541159549
-0.4835813360 -0.2967840672 0.0000000000 0.0000000000 0.0000000000 447.7969958499 -0.0043675948 -0.1541159549
-0.4772762156 -0.3164656897 0.0000000000 0.0000000000 0.0000000000 412.2008926876 -0.0043675948 -0.1541159549
-0.4701631387 -0.3358699404 0.0000000000 0.0000000000 0.0000000000 372.6294715007 -0.0043675948 -0.1541159549
-0.4622542580 -0.3549636674 0.0000000000 0.0000000000 0.0000000000 329.8043394469 -0.0043675948 -0.1541159549
-0.4535630856 -0.3737142495 0.0000000000 0.0000000000 0.0000000000 283.8765573571 -0.0043675948 -0.1541159549
-0.4441044703 -0.3920896516 0.0000000000 0.0000000000 0.0000000000 233.0819996498 -0.0043675948 -0.1541159549
-0.4338945719 -0.4100584797 0.0000000000 0.0000000000 0.0000000000 181.0009727715 -0.0043675948 -0.1541159549
-0.4229508338 -0.4275900342 0.0000000000 0.0000000000 0.0000000000 122.1164777144 -0.0043675948 -0.1541159549
-0.4112919533 -0.4446543628 0.0000000000 0.0000000000 0.0000000000 82.8140084067 -0.0043675948 -0.1541159549
-0.3989378493 -0.4612223114 0.0000000000 0.0000000000 0.0000000000 -11.8600612903 -0.0043675948 -0.1541159549
-0.3859096287 -0.4772655740 0.0000000000 0.0000000000 0.0000000000 1.3924008925 -0.0043675948 -0.1541159549
-0.3722295500 -0.4927567409 0.0000000000 0.0000000000 0.0000000000 -154.3108513210 -0.0043675948 -0.1541159549
-0.3430083804 -0.5219779104 0.0000000000 0.0000000000 0.0000000000 -179.3353345053 -0.0043675948 -0.1541159549
-0.3275172135 -0.5356579892 0.0000000000 0.0000000000 0.0000000000 -309.5792283469 -0.0043675948 -0.1541159549
-0.3114739509 -0.5486862098 0.0000000000 0.0000000000 0.0000000000 -276.6838190525 -0.0043675948 -0.1541159549
-0.2949060023 -0.5610403137 0.0000000000 0.0000000000 0.0000000000 -364.1792206595 -0.0043675948 -0.1541159549
-0.2778416736 -0.5726991942 0.0000000000 0.0000000000 0.0000000000 -379.5373239511 -0.0043675948 -0.1541159549
-0.2603101191 -0.5836429322 0.0000000000 0.0000000000 0.0000000000 -432.0912425084 -0.0043675948 -0.1541159549
-0.2423412911 -0.5938528306 0.0000000000 0.0000000000 0.0000000000 -457.0692482652 -0.0043675948 -0.1541159549
-0.2239658890 -0.6033114460 0.0000000000 0.0000000000 0.0000000000 -492.0052833039 -0.0043675948 -0.1541159549
-0.2052153069 -0.6120026183 0.0000000000 0.0000000000 0.0000000000 -514.0481807006 -0.0043675948 -0.1541159549
-0.1861215798 -0.6199114990 0.0000000000 0.0000000000 0.0000000000 -536.5801491923 -0.0043675948 -0.1541159549
-0.1667173291 -0.6270245758 0.0000000000 0.0000000000 0.0000000000 -551.3441087389 -0.0043675948 -0.1541159549
-0.1470357066 -0.6333296962 0.0000000000 0.0000000000 0.0000000000 -563.2669805946 -0.0043675948 -0.1541159549
-0.1271103381 -0.6388160879 0.0000000000 0.0000000000 0.0000000000 -569.4884932151 -0.0043675948 -0.1541159549
-0.1069752656 -0.6434743776 0.0000000000 0.0000000000 0.0000000000 -571.9810954811 -0.0043675948 -0.1541159549
-0.0866648896 -0.6472966067 0.0000000000 0.0000000000 0.0000000000 -569.9719280735 -0.0043675948 -0.1541159549
-0.0662139101 -0.6502762448 0.0000000000 0.0000000000 0.0000000000 -564.4645053349 -0.0043675948 -0.1541159549
-0.0456572672 -0.6524082014 0.0000000000 0.0000000000 0.0000000000 -555.5320580495 -0.0043675948 -0.1541159549
-0.0250300816 -0.6536888341 0.0000000000 0.0000000000 0.0000000000 -543.8969710013 -0.0043675948 -0.1541159549
-0.0043675945 -0.6541159549 0.0000000000 0.0000000000 0.0000000000 -529.9741177314 -0.0043675948 -0.1541159549
0.0162948926 -0.6536888341 0.0000000000 0.0000000000 0.0000000000 -514.3966989582 -0.0043675948 -0.1541159549
0.0369220783 -0.6524082014 0.0000000000 0.0000000000 0.0000000000 -497.6768594265 -0.0043675948 -0.1541159549
0.0574787212 -0.6502762447 0.0000000000 0.0000000000 0.0000000000 -480.3656537252 -0.0043675948 -0.1541159549
0.0779297007 -0.6472966066 0.0000000000 0.0000000000 0.0000000000 -462.9301639943 -0.0043675948 -0.1541159549
0.0982400766 -0.6434743775 0.0000000000 0.0000000000 0.0000000000 -445.7962675726 -0.0043675948 -0.1541159549
0.1183751491 -0.6388160878 0.0000000000 0.0000000000 0.0000000000 -429.3055789275 -0.0043675948 -0.1541159549
0.1383005176 -0.6333296960 0.0000000000 0.0000000000 0.0000000000 -413.7292401714 -0.0043675948 -0.1541159549
0.1579821401 -0.6270245756 0.0000000000 0.0000000000 0.0000000000 -399.2572253830 -0.0043675948 -0.1541159549
0.1773863908 -0.6199114988 0.0000000000 0.0000000000 0.0000000000 -386.0106046207 -0.0043675948 -0.1541159549
0.1964801178 -0.6120026181 0.0000000000 0.0000000000 0.0000000000 -374.0369807101 -0.0043675948 -0.1541159549
0.2152306999 -0.6033114457 0.0000000000 0.0000000000 0.0000000000 -363.3281772004 -0.0043675948 -0.1541159549
0.2336061020 -0.5938528303 0.0000000000 0.0000000000 0.0000000000 -353.7943410080 -0.0043675948 -0.1541159549
0.2515749300 -0.5836429319 0.0000000000 0.0000000000 0.0000000000 -345.3313631595 -0.0043675948 -0.1541159549
0.2691064846 -0.5726991938 0.0000000000 0.0000000000 0.0000000000 -337.7240158163 -0.0043675948 -0.1541159549
0.2861708132 -0.5610403133 0.0000000000 0.0000000000 0.0000000000 -330.9505634581 -0.0043675948 -0.1541159549
0.3027387618 -0.5486862094 0.0000000000 0.0000000000 0.0000000000 -324.6872299534 -0.0043675948 -0.1541159549
0.3187820244 -0.5356579888 0.0000000000 0.0000000000 0.0000000000 -319.5130883994 -0.0043675948 -0.1541159549
0.3342731913 -0.5219779100 0.0000000000 0.0000000000 0.0000000000 -314.4596969615 -0.0043675948 -0.1541159549
0.5441202726 -0.6695469728 0.0000000000 0.1325762878 -0.0398370206 -280.4717680162 -0.0056686316 -0.1594174199
0.5628346741 -0.6487218806 0.0000000000 0.0724509644 -0.0520343674 -277.2355131082 -0.0056441185 -0.1595063225
0.5807647298 -0.6272560762 0.0000000000 0.0341302208 -0.0714338700 -275.2929757504 -0.0056088824 -0.1596387252
0.5978798184 -0.6051459133 0.0000000000 0.0165220401 -0.0985292572 -274.9451427807 -0.0055685167 -0.1597807745
0.6141538066 -0.5824089543 0.0000000000 0.0151074035 -0.1322827385 -276.2618297553 -0.0055252744 -0.1599189111
0.6295621450 -0.5590709143 0.0000000000 0.0232957735 -0.1703425597 -279.1177219590 -0.0054810047 -0.1600468574
0.6440819032 -0.5351615402 0.0000000000 0.0346591052 -0.2098359250 -283.3134001846 -0.0054371498 -0.1601615406
0.6576919006 -0.5107129368 0.0000000000 0.0444754014 -0.2481349207 -288.6578641513 -0.0053946447 -0.1602614660
0.6703727031 -0.4857587498 0.0000000000 0.0500010823 -0.2832472713 -294.9678929499 -0.0053539480 -0.1603459459
0.6821065444 -0.4603337162 0.0000000000 0.0500034162 -0.3138875492 -302.0411762556 -0.0053151477 -0.1604146984
0.6928772318 -0.4344733972 0.0000000000 0.0442278967 -0.3394035495 -309.6557954152 -0.0052780798 -0.1604676293
0.7026700727 -0.4082140080 0.0000000000 0.0330353124 -0.3596409014 -317.5960830901 -0.0052424251 -0.1605047119
0.7114718271 -0.3815922988 0.0000000000 0.0171619193 -0.3747683568 -325.6832773599 -0.0052077773 -0.1605259184
0.7192706816 -0.3546454626 0.0000000000 -0.0024557356 -0.3850973050 -333.7973338427 -0.0051736882 -0.1605311791
0.7260562343 -0.3274110582 0.0000000000 -0.0248018858 -0.3909406527 -341.8868967197 -0.0051397000 -0.1605203581
0.7318194841 -0.2999269432 0.0000000000 -0.0488497390 -0.3925380524 -349.9693148497 -0.0051053709 -0.1604932382
0.7365528208 -0.2722312149 0.0000000000 -0.0735904082 -0.3900447759 -358.1236674691 -0.0050702989 -0.1604495156
0.7402500146 -0.2443621586 0.0000000000 -0.0980435599 -0.3835623565 -366.4790101780 -0.0050341429 -0.1603888018
0.7429062061 -0.2163582042 0.0000000000 -0.1212673794 -0.3731860990 -375.1987543428 -0.0049966418 -0.1603106343
0.7445178987 -0.1882578902 0.0000000000 -0.1423767540 -0.3590513492 -384.4612940041 -0.0049576300 -0.1602144948
0.7450829524 -0.1600998359 0.0000000000 -0.1605703119 -0.3413689538 -394.4371832426 -0.0049170476 -0.1600998362
0.7446005810 -0.1319227211 0.0000000000 -0.1751614752 -0.3204463560 -405.2641745639 -0.0048749476 -0.1599661171
0.7430713498 -0.1037652721 0.0000000000 -0.1856061041 -0.2966939569 -417.0226676642 -0.0048314981 -0.1598128425
0.7404971752 -0.0756662526 0.0000000000 -0.1915192993 -0.2706181428 -429.7149254069 -0.0047869822 -0.1596396100
0.7368813241 -0.0476644569 0.0000000000 -0.1926764978 -0.2428039596 -443.2513379086 -0.0047417955 -0.1594461568
0.7322284133 -0.0197987022 0.0000000000 -0.1889988627 -0.2138919190 -457.4460022207 -0.0046964415 -0.1592324078
0.7265444105 0.0078921827 0.0000000000 -0.1805287477 -0.1845540415 -472.0223328972 -0.0046515236 -0.1589985180
0.7198366382 0.0353693753 0.0000000000 -0.1674050765 -0.1554730753 -486.6280111699 -0.0046077315 -0.1587449087
0.7121137830 0.0625940875 0.0000000000 -0.1498480304 -0.1273259442 -500.8578681315 -0.0045658213 -0.1584722935
0.7033859131 0.0895276049 0.0000000000 -0.1281565295 -0.1007692535 -514.2832420732 -0.0045265846 -0.1581816917
0.6936645053 0.1161313417 0.0000000000 -0.1027128639 -0.0764231254 -526.4862538392 -0.0044908062 -0.1578744268
0.6829624837 0.1423669114 0.0000000000 -0.0739811831 -0.0548508827 -537.0965311137 -0.0044592081 -0.1575521070
0.6712942698 0.1681962188 0.0000000000 -0.0424844854 -0.0365352964 -545.8262225026 -0.0044323811 -0.1572165857
0.6586758373 0.1935815739 0.0000000000 -0.0087485577 -0.0218547875 -552.4978310258 -0.0044107077 -0.1568698975
0.6451247594 0.2184858320 0.0000000000 0.0267926327 -0.0110626574 -557.0598596417 -0.0043942933 -0.1565141681
0.6306602163 0.2428725530 0.0000000000 0.0639305698 -0.0042683508 -559.5877709678 -0.0043829331 -0.1561515045
0.6153029231 0.2667061544 0.0000000000 0.1028483671 -0.0014138947 -560.2710361151 -0.0043761575 -0.1557838893
0.5990749505 0.2899519955 0.0000000000 0.1442935478 -0.0022361348 -559.3892488855 -0.0043733843 -0.1554131437
0.5819994626 0.3125762710 0.0000000000 0.1896908674 -0.0062134852 -557.2805205080 -0.0043741491 -0.1550410805
0.5641004419 0.3345454073 0.0000000000 0.2410822587 -0.0125176266 -554.3050655693 -0.0043783503 -0.1546701512
0.5454026617 0.3558241678 0.0000000000 0.3007750255 -0.0200166927 -550.8036745145 -0.0043862421 -0.1543053856
0.5034772223 0.3982329449 0.0000000000 0.4610283947 -0.0336464542 -542.9654831871 -0.0044839564 -0.1535599882
0.4801517886 0.4190919666 0.0000000000 0.5634175400 -0.0364833610 -539.0434494196 -0.0045726397 -0.1532210846
0.4559966220 0.4389359899 0.0000000000 0.6740694249 -0.0350117271 -535.4118090984 -0.0046629124 -0.1529193922
0.4310529047 0.4577378614 0.0000000000 0.7874231761 -0.0290032987 -532.1123054149 -0.0047547068 -0.1526486766
0.4053631913 0.4754688147 0.0000000000 0.8974392630 -0.0187939316 -529.1055112750 -0.0048479272 -0.1524060441
0.3789708843 0.4921003048 0.0000000000 0.9987864917 -0.0050864419 -526.2921979507 -0.0049429024 -0.1521901611
0.3519203973 0.5076045168 0.0000000000 1.0876129987 0.0112452419 -523.5433558511 -0.0050401474 -0.1520007967
0.3242572857 0.5219546433 0.0000000000 1.1618430400 0.0293243286 -520.7314952880 -0.0051401558 -0.1518385932
0.2960283053 0.5351252289 0.0000000000 1.2210772724 0.0483977748 -517.7501527951 -0.0052432630 -0.1517047661
0.2672813759 0.5470925183 0.0000000000 1.2662295029 0.0679101590 -514.5180881470 -0.0053496019 -0.1516007978
0.2380654823 0.5578347393 0.0000000000 1.2990469417 0.0875222111 -510.9725606271 -0.0054591194 -0.1515281921
0.2084305569 0.5673323113 0.0000000000 1.3216426710 0.1070847059 -507.0577866960 -0.0055716112 -0.1514883005
0.1784273667 0.5755679960 0.0000000000 1.3361253735 0.1265867989 -502.7132421205 -0.0056867485 -0.1514822034
0.1481074190 0.5825270060 0.0000000000 1.3443602802 0.1460979810 -497.8647116789 -0.0058040875 -0.1515106280
0.1175228799 0.5881970788 0.0000000000 1.3478542683 0.1657172645 -492.4195183269 -0.0059230627 -0.1515738988
0.0867265011 0.5925685136 0.0000000000 1.3477351124 0.1855361044 -486.2661014985 -0.0060429722 -0.1516719213
0.0557715453 0.5956341732 0.0000000000 1.3447888796 0.2056158157 -479.2771581723 -0.0061629636 -0.1518041966
0.0247117020 0.5973894567 0.0000000000 1.3395243916 0.2259769407 -471.3150749333 -0.0062820285 -0.1519698621
-0.0063990114 0.5978322542 0.0000000000 1.3322431243 0.2465968946 -462.2383583751 -0.0063990112 -0.1521677458
-0.0375063620 0.5969629002 0.0000000000 1.3231023198 0.2674124977 -451.9080521103 -0.0065126312 -0.1523964186
-0.0685560273 0.5947841344 0.0000000000 1.3121662291 0.2883248685 -440.1935126258 -0.0066215181 -0.1526542353
-0.0994937280 0.5913010802 0.0000000000 1.2994448418 0.3092050940 -426.9772601996 -0.0067242544 -0.1529393545
-0.1302653640 0.5865212377 0.0000000000 1.2849216741 0.3298998334 -412.1588606141 -0.0068194211 -0.1532497398
-0.1608171497 0.5804544884 0.0000000000 1.2685729336 0.3502365075 -395.6579237667 -0.0069056429 -0.1535831455
-0.1910957464 0.5731131035 0.0000000000 1.2503803225 0.3700279994 -377.4163517509 -0.0069816308 -0.1539370959
-0.2210483906 0.5645117500 0.0000000000 1.2303393508 0.3890769242 -357.3999642328 -0.0070462222 -0.1543088618
-0.2506230193 0.5546674901 0.0000000000 1.2084645572 0.4071795591 -335.5996011665 -0.0070984172 -0.1546954411
-0.2797683915 0.5435997738 0.0000000000 1.1847926234 0.4241295200 -312.0317717061 -0.0071374134 -0.1550935421
-0.3084342047 0.5313304271 0.0000000000 1.1593840406 0.4397212461 -286.7388941774 -0.0071626360 -0.1554995678
-0.3365712048 0.5178836417 0.0000000000 1.1323237623 0.4537533237 -259.7891594178 -0.0071737630 -0.1559095947
-0.3641312858 0.5032859784 0.0000000000 1.1037211244 0.4660316595 -231.2760452225 -0.0071707409 -0.1563193349
-0.3910675727 0.4875664114 0.0000000000 1.0737092303 0.4763724895 -201.3175266601 -0.0071537857 -0.1567240543
-0.4173344772 0.4707564716 0.0000000000 1.0424439557 0.4846051741 -170.0550059580 -0.0071233585 -0.1571183870
-0.4428877015 0.4528906465 0.0000000000 1.0101028440 0.4905747152 -137.6522718499 -0.0070800898 -0.1574958913
-0.4676841301 0.4340074828 0.0000000000 0.9768841282 0.4941435676 -104.2939320413 -0.0070245954 -0.1578478991
-0.4916815426 0.4141529049 0.0000000000 0.9430085102 0.4951928643 -70.1886925179 -0.0069571140 -0.1581601461
-0.5148385758 0.3933915269 0.0000000000 0.9087224122 0.4936147048 -35.5575615238 -0.0068773969 -0.1584014059
-0.5584951281 0.3488755977 0.0000000000 0.8394642260 0.4826664898 34.4889399714 -0.0067021949 -0.1590855808
-0.5789274105 0.3251749027 0.0000000000 0.8049418100 0.4731557022 69.5488745607 -0.0066143592 -0.1595495255
-0.5983764347 0.3007127717 0.0000000000 0.7709552307 0.4608605376 104.2207680762 -0.0065210525 -0.1599467627
-0.6168100434 0.2755080506 0.0000000000 0.7377378531 0.4458327160 138.2703715236 -0.0064235054 -0.1602995608
-0.6341981963 0.2495951382 0.0000000000 0.7055270663 0.4281368436 171.4589539610 -0.0063233374 -0.1606159802
-0.6505120658 0.2230141600 0.0000000000 0.6745573927 0.4078580489 203.5512641295 -0.0062215999 -0.1608996266
-0.6657242459 0.1958080715 0.0000000000 0.6450550401 0.3851034385 234.3192468747 -0.0061189324 -0.1611524731
-0.6798089337 0.1680216403 0.0000000000 0.6172348059 0.3600012573 263.5449214909 -0.0060156972 -0.1613758011
-0.6927420400 0.1397010224 0.0000000000 0.5912976437 0.3326994604 291.0227619709 -0.0059120449 -0.1615705459
-0.7045012682 0.1108935540 0.0000000000 0.5674286999 0.3033639374 316.5617224675 -0.0058079521 -0.1617374236
-0.7150661820 0.0816476284 0.0000000000 0.5457956682 0.2721765488 339.9869614814 -0.0057032506 -0.1618769732
-0.7244182671 0.0520126015 0.0000000000 0.5265474241 0.2393330542 361.1412829853 -0.0055976552 -0.1619895664
-0.7325409937 0.0220387062 0.0000000000 0.5098129506 0.2050409939 379.8863062895 -0.0054907942 -0.1620754089
-0.7394198783 -0.0082230384 0.0000000000 0.4957006031 0.1695175652 396.1033816491 -0.0053822443 -0.1621345448
-0.7450425485 -0.0387209254 0.0000000000 0.4842977634 0.1329874986 409.6942770351 -0.0052715709 -0.1621668678
-0.7493988085 -0.0694026700 0.0000000000 0.4756708680 0.0956809132 420.5816578104 -0.0051583737 -0.1621721432
-0.7524807048 -0.1002155301 0.0000000000 0.4698656989 0.0578311372 428.7093582343 -0.0050423350 -0.1621500389
-0.7542825865 -0.1311064350 0.0000000000 0.4669077645 0.0196725325 434.0424169223 -0.0049232677 -0.1621001654
-0.7548011562 -0.1620221249 0.0000000000 0.4668026561 -0.0185615830 436.5668537113 -0.0048011562 -0.1620221246
-0.7540355047 -0.1929092956 0.0000000000 0.4695364055 -0.0566408367 436.2892222997 -0.0046761860 -0.1619155646
-0.7519871259 -0.2237147513 0.0000000000 0.4750758629 -0.0943394848 433.2359836390 -0.0045487561 -0.1617802419