 TITLE = "Tecplot data"
 VARIABLES = "X", "Y", "Z" "U", "V", "p", "dispX", "dispY"
 ZONE SOLUTIONTIME=14.900000, NODES=26114 , ELEMENTS=25916, DATAPACKING=POINT, ZONETYPE=FEQUADRILATERAL
0.3354039241 0.3470165415 0.0000000000 0.0000000000 0.0000000000 -210.3880433188 -0.0181494664 -0.0065368491
0.3354039244 -0.3600902394 0.0000000000 0.0000000000 0.0000000000 -274.1024163801 -0.0181494664 -0.0065368491
-0.3717028571 0.3470165414 0.0000000000 0.0000000000 0.0000000000 -65.9515566580 -0.0181494664 -0.0065368491
-0.3717028569 -0.3600902399 0.0000000000 0.0000000000 0.0000000000 -105.9199180447 -0.0181494664 -0.0065368491
0.5124851830 0.5237336745 0.0000000000 0.0447933782 0.0436399863 -198.9864843693 -0.0178449029 -0.0065964114
0.5116655375 -0.5372551849 0.0000000000 0.0855286370 -0.0607605813 -266.5089763615 -0.0186645488 -0.0069250994
-0.5490810888 0.5234280156 0.0000000000 0.8103569213 0.4775024803 98.6374063023 -0.0187510027 -0.0069020702
-0.5484067909 -0.5369924638 0.0000000000 0.8269519382 -0.4879419853 69.2083714467 -0.0180767052 -0.0066623776
1.0424183367 1.0539932403 0.0000000000 1.2494312947 0.2083132140 -246.1850434088 -0.0182418349 -0.0066669316
1.0424343819 -1.0676040451 0.0000000000 1.2575987380 -0.1387917743 -293.9426653191 -0.0182257906 -0.0069438741
-1.0801102290 1.0530837890 0.0000000000 0.9180175756 0.1829408983 100.9205843912 -0.0194500569 -0.0075763824
-1.0784375215 -1.0678644817 0.0000000000 0.9254345322 -0.1840027387 83.9646666716 -0.0177773503 -0.0072043094
4.1821729907 3.2940640609 0.0000000000 1.0489216972 -0.0639827733 -43.4818849357 -0.0178270093 -0.0059359391
4.1840344822 -3.3059424538 0.0000000000 1.0630219053 0.0566450553 -42.6287369019 -0.0159655178 -0.0059424538
20.0000000000 4.7000000000 0.0000000000 0.9994819616 -0.0020815942 0.0046937669 0.0000000000 0.0000000000
20.0000000000 -4.7000000000 0.0000000000 0.9994822443 0.0021293238 0.0053077277 0.0000000000 0.0000000000
-10.0000000000 15.0000000000 0.0000000000 1.0000000000 0.0000000000 7.0502803584 0.0000000000 0.0000000000
20.0000000000 15.0000000000 0.0000000000 1.0009797461 0.0000000000 -0.0008295347 0.0000000000 0.0000000000
20.0000000000 -15.0000000000 0.0000000000 1.0009642445 0.0000000000 -0.0005930290 0.0000000000 0.0000000000
-10.0000000000 -15.0000000000 0.0000000000 1.0000000000 0.0000000000 3.8901584961 0.0000000000 0.0000000000
0.3483764697 -0.3466232177 0.0000000000 0.0000000000 0.0000000000 -273.0166441401 -0.0181494664 -0.0065368491
0.3608363954 -0.3326805545 0.0000000000 0.0000000000 0.0000000000 -272.4895069593 -0.0181494664 -0.0065368491
0.3727662750 -0.3182817498 0.0000000000 0.0000000000 0.0000000000 -271.8099917071 -0.0181494664 -0.0065368491
0.3841494236 -0.3034469416 0.0000000000 0.0000000000 0.0000000000 -271.1745939522 -0.0181494664 -0.0065368491
0.3949699209 -0.2881968779 0.0000000000 0.0000000000 0.0000000000 -270.3619335496 -0.0181494664 -0.0065368491
0.4052126333 -0.2725528871 0.0000000000 0.0000000000 0.0000000000 -269.3607282190 -0.0181494664 -0.0065368491
0.4148632356 -0.2565368488 0.0000000000 0.0000000000 0.0000000000 -268.0778897858 -0.0181494664 -0.0065368491
0.4239082305 -0.2401711630 0.0000000000 0.0000000000 0.0000000000 -266.4746743842 -0.0181494664 -0.0065368491
0.4323349676 -0.2234787184 0.0000000000 0.0000000000 0.0000000000 -264.5049606134 -0.0181494664 -0.0065368491
0.4401316616 -0.2064828610 0.0000000000 0.0000000000 0.0000000000 -262.1465772355 -0.0181494664 -0.0065368491
0.4472874080 -0.1892073610 0.0000000000 0.0000000000 0.0000000000 -259.3903732749 -0.0181494664 -0.0065368491
0.4537921988 -0.1716763798 0.0000000000 0.0000000000 0.0000000000 -256.2491954449 -0.0181494664 -0.0065368491
0.4596369365 -0.1539144361 0.0000000000 0.0000000000 0.0000000000 -252.7567132008 -0.0181494664 -0.0065368491
0.4648134468 -0.1359463714 0.0000000000 0.0000000000 0.0000000000 -248.9692373118 -0.0181494664 -0.0065368491
0.4693144897 -0.1177973158 0.0000000000 0.0000000000 0.0000000000 -244.9635811817 -0.0181494664 -0.0065368491
0.4731337702 -0.0994926524 0.0000000000 0.0000000000 0.0000000000 -240.8338978908 -0.0181494664 -0.0065368491
0.4762659467 -0.0810579820 0.0000000000 0.0000000000 0.0000000000 -236.6861260221 -0.0181494664 -0.0065368491
0.4787066385 -0.0625190869 0.0000000000 0.0000000000 0.0000000000 -232.6311717868 -0.0181494664 -0.0065368491
0.4804524322 -0.0439018957 0.0000000000 0.0000000000 0.0000000000 -228.7771104440 -0.0181494664 -0.0065368491
0.4815008860 -0.0252324460 0.0000000000 0.0000000000 0.0000000000 -225.2213753103 -0.0181494664 -0.0065368491
0.4818505336 -0.0065368489 0.0000000000 0.0000000000 0.0000000000 -222.0436746851 -0.0181494664 -0.0065368491
0.4815008859 0.0121587482 0.0000000000 0.0000000000 0.0000000000 -219.3004668540 -0.0181494664 -0.0065368491
0.4804524321 0.0308281979 0.0000000000 0.0000000000 0.0000000000 -217.0215345828 -0.0181494664 -0.0065368491
0.4787066385 0.0494453891 0.0000000000 0.0000000000 0.0000000000 -215.2090730460 -0.0181494664 -0.0065368491
0.4762659466 0.0679842842 0.0000000000 0.0000000000 0.0000000000 -213.8392139614 -0.0181494664 -0.0065368491
0.4731337701 0.0864189546 0.0000000000 0.0000000000 0.0000000000 -212.8659367830 -0.0181494664 -0.0065368491
0.4693144896 0.1047236180 0.0000000000 0.0000000000 0.0000000000 -212.2264633697 -0.0181494664 -0.0065368491
0.4648134467 0.1228726736 0.0000000000 0.0000000000 0.0000000000 -211.8481322633 -0.0181494664 -0.0065368491
0.4596369364 0.1408407382 0.0000000000 0.0000000000 0.0000000000 -211.6547082484 -0.0181494664 -0.0065368491
0.4537921987 0.1586026820 0.0000000000 0.0000000000 0.0000000000 -211.5736825566 -0.0181494664 -0.0065368491
0.4472874078 0.1761336632 0.0000000000 0.0000000000 0.0000000000 -211.5398335582 -0.0181494664 -0.0065368491
0.4401316614 0.1934091632 0.0000000000 0.0000000000 0.0000000000 -211.5021379221 -0.0181494664 -0.0065368491
0.4323349675 0.2104050206 0.0000000000 0.0000000000 0.0000000000 -211.4206139926 -0.0181494664 -0.0065368491
0.4239082303 0.2270974651 0.0000000000 0.0000000000 0.0000000000 -211.2771842004 -0.0181494664 -0.0065368491
0.4148632354 0.2434631510 0.0000000000 0.0000000000 0.0000000000 -211.0584479114 -0.0181494664 -0.0065368491
0.4052126331 0.2594791892 0.0000000000 0.0000000000 0.0000000000 -210.7865622526 -0.0181494664 -0.0065368491
0.3949699207 0.2751231800 0.0000000000 0.0000000000 0.0000000000 -210.4643989017 -0.0181494664 -0.0065368491
0.3841494234 0.2903732437 0.0000000000 0.0000000000 0.0000000000 -210.1724899518 -0.0181494664 -0.0065368491
0.3727662747 0.3052080519 0.0000000000 0.0000000000 0.0000000000 -209.8981519797 -0.0181494664 -0.0065368491
0.3608363951 0.3196068566 0.0000000000 0.0000000000 0.0000000000 -209.8331786273 -0.0181494664 -0.0065368491
0.3483764694 0.3335495198 0.0000000000 0.0000000000 0.0000000000 -209.8461681884 -0.0181494664 -0.0065368491
0.3204913193 0.3613251063 0.0000000000 0.0000000000 0.0000000000 -211.0961065871 -0.0181494664 -0.0065368491
0.3050001524 0.3750051850 0.0000000000 0.0000000000 0.0000000000 -212.5967230026 -0.0181494664 -0.0065368491
0.2889568899 0.3880334056 0.0000000000 0.0000000000 0.0000000000 -214.5265796079 -0.0181494664 -0.0065368491
0.2723889412 0.4003875096 0.0000000000 0.0000000000 0.0000000000 -217.1380251837 -0.0181494664 -0.0065368491
0.2553246126 0.4120463901 0.0000000000 0.0000000000 0.0000000000 -220.2893205302 -0.0181494664 -0.0065368491
0.2377930580 0.4229901281 0.0000000000 0.0000000000 0.0000000000 -224.0561877874 -0.0181494664 -0.0065368491
0.2198242300 0.4332000265 0.0000000000 0.0000000000 0.0000000000 -228.4073527770 -0.0181494664 -0.0065368491
0.2014488279 0.4426586419 0.0000000000 0.0000000000 0.0000000000 -233.4101441698 -0.0181494664 -0.0065368491
0.1826982458 0.4513498143 0.0000000000 0.0000000000 0.0000000000 -239.1152998190 -0.0181494664 -0.0065368491
0.1636045188 0.4592586949 0.0000000000 0.0000000000 0.0000000000 -245.6074648941 -0.0181494664 -0.0065368491
0.1442002681 0.4663717718 0.0000000000 0.0000000000 0.0000000000 -252.9506779406 -0.0181494664 -0.0065368491
0.1245186456 0.4726768921 0.0000000000 0.0000000000 0.0000000000 -261.1917700692 -0.0181494664 -0.0065368491
0.1045932770 0.4781632839 0.0000000000 0.0000000000 0.0000000000 -270.3361852173 -0.0181494664 -0.0065368491
0.0844582046 0.4828215736 0.0000000000 0.0000000000 0.0000000000 -280.3456871815 -0.0181494664 -0.0065368491
0.0641478286 0.4866438026 0.0000000000 0.0000000000 0.0000000000 -291.1279678347 -0.0181494664 -0.0065368491
0.0436968491 0.4896234408 0.0000000000 0.0000000000 0.0000000000 -302.5327850803 -0.0181494664 -0.0065368491
0.0231402062 0.4917553974 0.0000000000 0.0000000000 0.0000000000 -314.3465978317 -0.0181494664 -0.0065368491
0.0025130206 0.4930360301 0.0000000000 0.0000000000 0.0000000000 -326.2918683449 -0.0181494664 -0.0065368491
-0.0181494665 0.4934631509 0.0000000000 0.0000000000 0.0000000000 -338.0295863181 -0.0181494664 -0.0065368491
-0.0388119537 0.4930360301 0.0000000000 0.0000000000 0.0000000000 -349.1669525539 -0.0181494664 -0.0065368491
-0.0594391393 0.4917553974 0.0000000000 0.0000000000 0.0000000000 -359.2692823655 -0.0181494664 -0.0065368491
-0.0799957822 0.4896234408 0.0000000000 0.0000000000 0.0000000000 -367.8757744960 -0.0181494664 -0.0065368491
-0.1004467617 0.4866438026 0.0000000000 0.0000000000 0.0000000000 -374.5177278405 -0.0181494664 -0.0065368491
-0.1207571377 0.4828215735 0.0000000000 0.0000000000 0.0000000000 -378.7378619466 -0.0181494664 -0.0065368491
-0.1408922101 0.4781632838 0.0000000000 0.0000000000 0.0000000000 -380.1091831804 -0.0181494664 -0.0065368491
-0.1608175787 0.4726768921 0.0000000000 0.0000000000 0.0000000000 -378.2520829303 -0.0181494664 -0.0065368491
-0.1804992012 0.4663717717 0.0000000000 0.0000000000 0.0000000000 -372.8486191469 -0.0181494664 -0.0065368491
-0.1999034518 0.4592586949 0.0000000000 0.0000000000 0.0000000000 -363.6533447867 -0.0181494664 -0.0065368491
-0.2189971789 0.4513498142 0.0000000000 0.0000000000 0.0000000000 -350.5004331358 -0.0181494664 -0.0065368491
-0.2377477610 0.4426586418 0.0000000000 0.0000000000 0.0000000000 -333.3072004840 -0.0181494664 -0.0065368491
-0.2561231631 0.4332000264 0.0000000000 0.0000000000 0.0000000000 -312.0743808025 -0.0181494664 -0.0065368491
-0.2740919911 0.4229901280 0.0000000000 0.0000000000 0.0000000000 -286.8836639094 -0.0181494664 -0.0065368491
-0.2916235456 0.4120463899 0.0000000000 0.0000000000 0.0000000000 -257.8930693386 -0.0181494664 -0.0065368491
-0.3086878743 0.4003875094 0.0000000000 0.0000000000 0.0000000000 -225.3307150012 -0.0181494664 -0.0065368491
-0.3252558229 0.3880334055 0.0000000000 0.0000000000 0.0000000000 -189.4874774641 -0.0181494664 -0.0065368491
-0.3412990855 0.3750051849 0.0000000000 0.0000000000 0.0000000000 -150.7089565062 -0.0181494664 -0.0065368491
-0.3567902524 0.3613251061 0.0000000000 0.0000000000 0.0000000000 -109.3870725213 -0.0181494664 -0.0065368491
-0.3860114219 0.3321039366 0.0000000000 0.0000000000 0.0000000000 -20.8615445177 -0.0181494664 -0.0065368491
-0.3996915006 0.3166127697 0.0000000000 0.0000000000 0.0000000000 25.4025507883 -0.0181494664 -0.0065368491
-0.4127197212 0.3005695071 0.0000000000 0.0000000000 0.0000000000 72.3467415452 -0.0181494664 -0.0065368491
-0.4250738252 0.2840015585 0.0000000000 0.0000000000 0.0000000000 119.4706413943 -0.0181494664 -0.0065368491
-0.4367327057 0.2669372298 0.0000000000 0.0000000000 0.0000000000 166.2740607006 -0.0181494664 -0.0065368491
-0.4476764437 0.2494056753 0.0000000000 0.0000000000 0.0000000000 212.2630148937 -0.0181494664 -0.0065368491
-0.4578863421 0.2314368473 0.0000000000 0.0000000000 0.0000000000 256.9551786502 -0.0181494664 -0.0065368491
-0.4673449575 0.2130614452 0.0000000000 0.0000000000 0.0000000000 299.8848374660 -0.0181494664 -0.0065368491
-0.4760361298 0.1943108631 0.0000000000 0.0000000000 0.0000000000 340.6073886477 -0.0181494664 -0.0065368491
-0.4839450105 0.1752171360 0.0000000000 0.0000000000 0.0000000000 378.7034360832 -0.0181494664 -0.0065368491
-0.4910580874 0.1558128853 0.0000000000 0.0000000000 0.0000000000 413.7825043537 -0.0181494664 -0.0065368491
-0.4973632077 0.1361312628 0.0000000000 0.0000000000 0.0000000000 445.4863921566 -0.0181494664 -0.0065368491
-0.5028495995 0.1162058943 0.0000000000 0.0000000000 0.0000000000 473.4921606022 -0.0181494664 -0.0065368491
-0.5075078891 0.0960708218 0.0000000000 0.0000000000 0.0000000000 497.5147753530 -0.0181494664 -0.0065368491
-0.5113301182 0.0757604458 0.0000000000 0.0000000000 0.0000000000 517.3093643368 -0.0181494664 -0.0065368491
-0.5143097563 0.0553094663 0.0000000000 0.0000000000 0.0000000000 532.6731598248 -0.0181494664 -0.0065368491
-0.5164417130 0.0347528234 0.0000000000 0.0000000000 0.0000000000 543.4469908970 -0.0181494664 -0.0065368491
-0.5177223456 0.0141256378 0.0000000000 0.0000000000 0.0000000000 549.5165834502 -0.0181494664 -0.0065368491
-0.5181494664 -0.0065368493 0.0000000000 0.0000000000 0.0000000000 550.8131839584 -0.0181494664 -0.0065368491
-0.5177223456 -0.0271993364 0.0000000000 0.0000000000 0.0000000000 547.3144330870 -0.0181494664 -0.0065368491
-0.5164417129 -0.0478265220 0.0000000000 0.0000000000 0.0000000000 539.0437439594 -0.0181494664 -0.0065368491
-0.5143097563 -0.0683831650 0.0000000000 0.0000000000 0.0000000000 526.0714894251 -0.0181494664 -0.0065368491
-0.5113301181 -0.0888341445 0.0000000000 0.0000000000 0.0000000000 508.5118186452 -0.0181494664 -0.0065368491
-0.5075078891 -0.1091445204 0.0000000000 0.0000000000 0.0000000000 486.5266592405 -0.0181494664 -0.0065368491
-0.5028495994 -0.1292795929 0.0000000000 0.0000000000 0.0000000000 460.3151239556 -0.0181494664 -0.0065368491
-0.4973632076 -0.1492049614 0.0000000000 0.0000000000 0.0000000000 430.1295298677 -0.0181494664 -0.0065368491
-0.4910580872 -0.1688865839 0.0000000000 0.0000000000 0.0000000000 396.2401541770 -0.0181494664 -0.0065368491
-0.4839450104 -0.1882908346 0.0000000000 0.0000000000 0.0000000000 358.9959967159 -0.0181494664 -0.0065368491
-0.4760361297 -0.2073845616 0.0000000000 0.0000000000 0.0000000000 318.7021895087 -0.0181494664 -0.0065368491
-0.4673449573 -0.2261351437 0.0000000000 0.0000000000 0.0000000000 275.8459996691 -0.0181494664 -0.0065368491
-0.4578863419 -0.2445105458 0.0000000000 0.0000000000 0.0000000000 230.6537728056 -0.0181494664 -0.0065368491
-0.4476764435 -0.2624793739 0.0000000000 0.0000000000 0.0000000000 183.9345361360 -0.0181494664 -0.0065368491
-0.4367327054 -0.2800109284 0.0000000000 0.0000000000 0.0000000000 135.4454232662 -0.0181494664 -0.0065368491
-0.4250738249 -0.2970752570 0.0000000000 0.0000000000 0.0000000000 86.9614888677 -0.0181494664 -0.0065368491
-0.4127197210 -0.3136432056 0.0000000000 0.0000000000 0.0000000000 36.8875404949 -0.0181494664 -0.0065368491
-0.3996915004 -0.3296864682 0.0000000000 0.0000000000 0.0000000000 -12.7436319263 -0.0181494664 -0.0065368491
-0.3860114216 -0.3451776351 0.0000000000 0.0000000000 0.0000000000 -55.9359463678 -0.0181494664 -0.0065368491
-0.3567902521 -0.3743988046 0.0000000000 0.0000000000 0.0000000000 -155.9252117953 -0.0181494664 -0.0065368491
-0.3412990852 -0.3880788834 0.0000000000 0.0000000000 0.0000000000 -197.4989672317 -0.0181494664 -0.0065368491
-0.3252558226 -0.4011071040 0.0000000000 0.0000000000 0.0000000000 -237.4363707278 -0.0181494664 -0.0065368491
-0.3086878739 -0.4134612079 0.0000000000 0.0000000000 0.0000000000 -276.3968387122 -0.0181494664 -0.0065368491
-0.2916235453 -0.4251200884 0.0000000000 0.0000000000 0.0000000000 -310.5086163911 -0.0181494664 -0.0065368491
-0.2740919908 -0.4360638264 0.0000000000 0.0000000000 0.0000000000 -342.0903877869 -0.0181494664 -0.0065368491
-0.2561231627 -0.4462737248 0.0000000000 0.0000000000 0.0000000000 -369.2155410122 -0.0181494664 -0.0065368491
-0.2377477606 -0.4557323402 0.0000000000 0.0000000000 0.0000000000 -392.7017129866 -0.0181494664 -0.0065368491
-0.2189971785 -0.4644235125 0.0000000000 0.0000000000 0.0000000000 -411.8471388773 -0.0181494664 -0.0065368491
-0.1999034515 -0.4723323932 0.0000000000 0.0000000000 0.0000000000 -426.9729463647 -0.0181494664 -0.0065368491
-0.1804992008 -0.4794454700 0.0000000000 0.0000000000 0.0000000000 -437.9297758649 -0.0181494664 -0.0065368491
-0.1608175783 -0.4857505904 0.0000000000 0.0000000000 0.0000000000 -444.9778775576 -0.0181494664 -0.0065368491
-0.1408922097 -0.4912369821 0.0000000000 0.0000000000 0.0000000000 -448.2686397154 -0.0181494664 -0.0065368491
-0.1207571373 -0.4958952718 0.0000000000 0.0000000000 0.0000000000 -448.1404253770 -0.0181494664 -0.0065368491
-0.1004467613 -0.4997175009 0.0000000000 0.0000000000 0.0000000000 -444.9332243893 -0.0181494664 -0.0065368491
-0.0799957818 -0.5026971390 0.0000000000 0.0000000000 0.0000000000 -439.0774924806 -0.0181494664 -0.0065368491
-0.0594391389 -0.5048290956 0.0000000000 0.0000000000 0.0000000000 -431.0192869190 -0.0181494664 -0.0065368491
-0.0388119533 -0.5061097283 0.0000000000 0.0000000000 0.0000000000 -421.2356189757 -0.0181494664 -0.0065368491
-0.0181494661 -0.5065368491 0.0000000000 0.0000000000 0.0000000000 -410.1960920127 -0.0181494664 -0.0065368491
0.0025130210 -0.5061097283 0.0000000000 0.0000000000 0.0000000000 -398.3549335078 -0.0181494664 -0.0065368491
0.0231402066 -0.5048290956 0.0000000000 0.0000000000 0.0000000000 -386.1281522004 -0.0181494664 -0.0065368491
0.0436968495 -0.5026971389 0.0000000000 0.0000000000 0.0000000000 -373.8833176390 -0.0181494664 -0.0065368491
0.0641478290 -0.4997175008 0.0000000000 0.0000000000 0.0000000000 -361.9282769001 -0.0181494664 -0.0065368491
0.0844582050 -0.4958952717 0.0000000000 0.0000000000 0.0000000000 -350.5073162024 -0.0181494664 -0.0065368491
0.1045932774 -0.4912369820 0.0000000000 0.0000000000 0.0000000000 -339.8000317929 -0.0181494664 -0.0065368491
0.1245186460 -0.4857505902 0.0000000000 0.0000000000 0.0000000000 -329.9250706222 -0.0181494664 -0.0065368491
0.1442002685 -0.4794454698 0.0000000000 0.0000000000 0.0000000000 -320.9457197710 -0.0181494664 -0.0065368491
0.1636045191 -0.4723323930 0.0000000000 0.0000000000 0.0000000000 -312.8791355006 -0.0181494664 -0.0065368491
0.1826982462 -0.4644235123 0.0000000000 0.0000000000 0.0000000000 -305.7049414049 -0.0181494664 -0.0065368491
0.2014488283 -0.4557323399 0.0000000000 0.0000000000 0.0000000000 -299.3814096698 -0.0181494664 -0.0065368491
0.2198242304 -0.4462737245 0.0000000000 0.0000000000 0.0000000000 -293.8522077292 -0.0181494664 -0.0065368491
0.2377930584 -0.4360638261 0.0000000000 0.0000000000 0.0000000000 -289.0749746859 -0.0181494664 -0.0065368491
0.2553246129 -0.4251200880 0.0000000000 0.0000000000 0.0000000000 -284.9954778863 -0.0181494664 -0.0065368491
0.2723889415 -0.4134612075 0.0000000000 0.0000000000 0.0000000000 -281.6159122445 -0.0181494664 -0.0065368491
0.2889568902 -0.4011071036 0.0000000000 0.0000000000 0.0000000000 -278.8363397941 -0.0181494664 -0.0065368491
0.3050001528 -0.3880788830 0.0000000000 0.0000000000 0.0000000000 -276.7555672968 -0.0181494664 -0.0065368491
0.3204913196 -0.3743988042 0.0000000000 0.0000000000 0.0000000000 -274.9983155654 -0.0181494664 -0.0065368491
0.5311581345 -0.5170612594 0.0000000000 0.0595001757 -0.0712458402 -267.0581735985 -0.0186307697 -0.0069317064
0.5498730313 -0.4961576349 0.0000000000 0.0421945008 -0.0836704087 -267.8130583197 -0.0186057614 -0.0069420768
0.5677919186 -0.4745720389 0.0000000000 0.0309119486 -0.0969565660 -268.7470137545 -0.0185816936 -0.0069546879
0.5848920031 -0.4523329453 0.0000000000 0.0230578789 -0.1100494948 -269.7682204108 -0.0185563321 -0.0069678065
0.6011501062 -0.4294705498 0.0000000000 0.0165108430 -0.1220386576 -270.7762709029 -0.0185289748 -0.0069805066
0.6165436540 -0.4060163200 0.0000000000 0.0097741075 -0.1322295877 -271.6674316339 -0.0184994957 -0.0069922630
0.6310510415 -0.3820027581 0.0000000000 0.0019572305 -0.1401559658 -272.3379199987 -0.0184680116 -0.0070027585
0.6446517993 -0.3574632673 0.0000000000 -0.0073403385 -0.1455519787 -272.6880447369 -0.0184347460 -0.0070117965
0.6573266830 -0.3324320596 0.0000000000 -0.0181712006 -0.1483079501 -272.6279640805 -0.0183999681 -0.0070192556
0.6690577280 -0.3069440821 0.0000000000 -0.0303637071 -0.1484251183 -272.0843207864 -0.0183639640 -0.0070250642
0.6798282870 -0.2810349516 0.0000000000 -0.0436127523 -0.1459777421 -271.0063426812 -0.0183270247 -0.0070291837
0.6896230578 -0.2547408955 0.0000000000 -0.0575400246 -0.1410855714 -269.3702850928 -0.0182894400 -0.0070315994
0.6984281086 -0.2280986943 0.0000000000 -0.0717319456 -0.1338967171 -267.1816790250 -0.0182514959 -0.0070323139
0.7062308989 -0.2011456275 0.0000000000 -0.0857635114 -0.1245791827 -264.4752965299 -0.0182134709 -0.0070313440
0.7130203005 -0.1739194183 0.0000000000 -0.0992143092 -0.1133184167 -261.3129622222 -0.0181756337 -0.0070287182
0.7187866144 -0.1464581792 0.0000000000 -0.1116808778 -0.1003181281 -257.7794229325 -0.0181382406 -0.0070244742
0.7235215858 -0.1188003577 0.0000000000 -0.1227878086 -0.0858020563 -253.9765481317 -0.0181015339 -0.0070186584
0.7272184167 -0.0909846804 0.0000000000 -0.1321986466 -0.0700150996 -250.0162298050 -0.0180657408 -0.0070113236
0.7298717751 -0.0630500981 0.0000000000 -0.1396266976 -0.0532229146 -246.0124832822 -0.0180310728 -0.0070025282
0.7314778024 -0.0350357302 0.0000000000 -0.1448452396 -0.0357096731 -242.0733855011 -0.0179977262 -0.0069923348
0.7320341179 -0.0069808090 0.0000000000 -0.1476963383 -0.0177740895 -238.2935753059 -0.0179658821 -0.0069808093
0.7315398219 0.0210753753 0.0000000000 -0.1480974336 0.0002758737 -234.7480377073 -0.0179357067 -0.0069680207
0.7299954956 0.0490935300 0.0000000000 -0.1460450636 0.0181290313 -231.4877794891 -0.0179073523 -0.0069540405
0.7274031990 0.0770344142 0.0000000000 -0.1416154267 0.0354770585 -228.5377946434 -0.0178809584 -0.0069389432
0.7237664654 0.1048588932 0.0000000000 -0.1349618644 0.0520199573 -225.8974516186 -0.0178566542 -0.0069228067
0.7190902943 0.1325279925 0.0000000000 -0.1263096947 0.0674703015 -223.5431633982 -0.0178345606 -0.0069057131
0.7133811404 0.1600029513 0.0000000000 -0.1159490712 0.0815557979 -221.4329721156 -0.0178147936 -0.0068877494
0.7066469017 0.1872452758 0.0000000000 -0.1042266518 0.0940199431 -219.5125234962 -0.0177974680 -0.0068690083
0.6988969051 0.2142167923 0.0000000000 -0.0915367779 0.1046209686 -217.7218322259 -0.0177826991 -0.0068495887
0.6901418921 0.2408796994 0.0000000000 -0.0783125095 0.1131299191 -216.0022326729 -0.0177706056 -0.0068295973
0.6803940030 0.2671966194 0.0000000000 -0.0650161013 0.1193296258 -214.3029368551 -0.0177613084 -0.0068091491
0.6696667637 0.2931306487 0.0000000000 -0.0521271499 0.1230174207 -212.5866472454 -0.0177549281 -0.0067883697
0.6579750736 0.3186454071 0.0000000000 -0.0401244163 0.1240154213 -210.8336859309 -0.0177515773 -0.0067673974
0.6453351975 0.3437050874 0.0000000000 -0.0294538684 0.1221927201 -209.0441633035 -0.0177513476 -0.0067463840
0.6317647630 0.3682745045 0.0000000000 -0.0204707117 0.1175034218 -207.2379875948 -0.0177542898 -0.0067254956
0.6172827608 0.3923191495 0.0000000000 -0.0133389133 0.1100425406 -205.4532047289 -0.0177603885 -0.0067049080
0.6019095440 0.4158052462 0.0000000000 -0.0078750342 0.1001165624 -203.7440416104 -0.0177695367 -0.0066847975
0.5856668182 0.4386998114 0.0000000000 -0.0033471824 0.0883139888 -202.1799314539 -0.0177815166 -0.0066653279
0.5685776279 0.4609707085 0.0000000000 0.0017080126 0.0755429480 -200.8442295728 -0.0177959839 -0.0066466430
0.5506663795 0.4825866806 0.0000000000 0.0095311359 0.0629888314 -199.8272922118 -0.0178124128 -0.0066288779
0.5319590617 0.5035173022 0.0000000000 0.0229290471 0.0519589135 -199.2049727531 -0.0178298421 -0.0066122512
0.4900903365 0.5452187306 0.0000000000 0.0818971636 0.0386551198 -199.3332909872 -0.0178708421 -0.0065742025
0.4668265698 0.5657584353 0.0000000000 0.1342887016 0.0384776428 -200.0766546009 -0.0178978585 -0.0065546159
0.4427316726 0.5853176688 0.0000000000 0.2022828500 0.0430281439 -201.1369069291 -0.0179278618 -0.0065377133
0.4178468298 0.6038632784 0.0000000000 0.2847919512 0.0519870657 -202.4285845417 -0.0179607817 -0.0065232596
0.3922148825 0.6213637530 0.0000000000 0.3795581424 0.0650562400 -203.9257795333 -0.0179962360 -0.0065111058
0.3658800043 0.6377893791 0.0000000000 0.4832501512 0.0819710627 -205.6518875342 -0.0180337824 -0.0065010867
0.3388875487 0.6531122641 0.0000000000 0.5915314696 0.1023281044 -207.6424662425 -0.0180729960 -0.0064930494
0.3112839573 0.6673063573 0.0000000000 0.6993656095 0.1254201991 -209.8983869139 -0.0181134843 -0.0064868792
0.2831166850 0.6803474897 0.0000000000 0.8016492309 0.1502265080 -212.3512108362 -0.0181548833 -0.0064825053
0.2544341239 0.6922134265 0.0000000000 0.8939889003 0.1755658695 -214.8606659958 -0.0181968539 -0.0064798896
0.2252855209 0.7028839208 0.0000000000 0.9733239210 0.2003210028 -217.2438259725 -0.0182390809 -0.0064790105
0.1957208914 0.7123407619 0.0000000000 1.0381954897 0.2236298521 -219.3147394483 -0.0182812766 -0.0064798500
0.1657909317 0.7205678160 0.0000000000 1.0886431094 0.2449855659 -220.9131707238 -0.0183231836 -0.0064823835
0.1355469309 0.7275510591 0.0000000000 1.1258422978 0.2642386365 -221.9150734328 -0.0183645757 -0.0064865749
0.1050406851 0.7332786029 0.0000000000 1.1516403725 0.2815275486 -222.2285590380 -0.0184052575 -0.0064923746
0.0743244125 0.7377407145 0.0000000000 1.1681220388 0.2971751605 -221.7823680970 -0.0184450608 -0.0064997203
0.0434506695 0.7409298289 0.0000000000 1.1772823853 0.3115838396 -220.5128337351 -0.0184838394 -0.0065085409
0.0124722674 0.7428405573 0.0000000000 1.1808309497 0.3251508487 -218.3533206371 -0.0185214632 -0.0065187615
-0.0185578116 0.7434696903 0.0000000000 1.1801121872 0.3382127477 -215.2281437097 -0.0185578114 -0.0065303097
-0.0495864978 0.7428161981 0.0000000000 1.1761090174 0.3510176926 -211.0512612703 -0.0185927670 -0.0065431207
-0.0805607200 0.7408812294 0.0000000000 1.1694936324 0.3637190879 -205.7288343457 -0.0186262107 -0.0065571403
-0.1114274902 0.7376681087 0.0000000000 1.1606967155 0.3763826431 -199.1641909748 -0.0186580165 -0.0065723261
-0.1421339904 0.7331823327 0.0000000000 1.1499763129 0.3889999923 -191.2637519760 -0.0186880475 -0.0065886449
-0.1726276592 0.7274315648 0.0000000000 1.1374767246 0.4015041339 -181.9428267496 -0.0187161524 -0.0066060692
-0.2028562785 0.7204256285 0.0000000000 1.1232742394 0.4137839957 -171.1306301240 -0.0187421630 -0.0066245710
-0.2327680614 0.7121764968 0.0000000000 1.1074102470 0.4256969585 -158.7742450509 -0.0187658930 -0.0066441150
-0.2623117390 0.7026982789 0.0000000000 1.0899138884 0.4370791076 -144.8415017316 -0.0187871369 -0.0066646523
-0.2914366491 0.6920072027 0.0000000000 1.0708167725 0.4477534435 -129.3228699894 -0.0188056710 -0.0066861132
-0.3200928226 0.6801215935 0.0000000000 1.0501620191 0.4575364434 -112.2325052794 -0.0188212540 -0.0067084014
-0.3482310706 0.6670618488 0.0000000000 1.0280094039 0.4662433627 -93.6085877517 -0.0188336288 -0.0067313875
-0.3758030669 0.6528504105 0.0000000000 1.0044378983 0.4736925911 -73.5130756423 -0.0188425220 -0.0067549028
-0.4027614260 0.6375117355 0.0000000000 0.9795464933 0.4797092996 -52.0309754682 -0.0188476390 -0.0067787302
-0.4290597656 0.6210722675 0.0000000000 0.9534539059 0.4841285353 -29.2692163119 -0.0188486469 -0.0068025911
-0.4546527386 0.6035604210 0.0000000000 0.9262975713 0.4867978776 -5.3552271619 -0.0188451269 -0.0068261168
-0.4794959801 0.5850065979 0.0000000000 0.8982321981 0.4875797407 19.5647149055 -0.0188364455 -0.0068487841
-0.5035458024 0.5654432938 0.0000000000 0.8694282378 0.4863535385 45.3268939660 -0.0188213739 -0.0068697572
-0.5267579992 0.5449053861 0.0000000000 0.8400703593 0.4830180688 71.7519090063 -0.0187968203 -0.0068875468
-0.5705461250 0.5010249840 0.0000000000 0.7804350173 0.4696938041 125.8553227933 -0.0187531919 -0.0069361946
-0.5910485316 0.4777571178 0.0000000000 0.7505702625 0.4595903860 153.1372202700 -0.0187354803 -0.0069673104
-0.6105643525 0.4536648474 0.0000000000 0.7209679905 0.4471649119 180.2789247074 -0.0187089703 -0.0069946869
-0.6290633191 0.4287883893 0.0000000000 0.6918413034 0.4324148729 207.0692500441 -0.0186767810 -0.0070192220
-0.6465151664 0.4031699307 0.0000000000 0.6634036575 0.4153609048 233.2952921399 -0.0186403076 -0.0070411877
-0.6628908475 0.3768531584 0.0000000000 0.6358666831 0.3960450383 258.7455597989 -0.0186003816 -0.0070606282
-0.6781629417 0.3498830310 0.0000000000 0.6094376985 0.3745301646 283.2125232776 -0.0185576282 -0.0070775136
-0.6923058245 0.3223056415 0.0000000000 0.5843176615 0.3508992859 306.4948308049 -0.0185125879 -0.0070917999
-0.7052957567 0.2941681158 0.0000000000 0.5606992577 0.3252546672 328.3993565785 -0.0184657616 -0.0071034524
-0.7171109426 0.2655185227 0.0000000000 0.5387651315 0.2977168413 348.7431035451 -0.0184176264 -0.0071124549
-0.7277315723 0.2364057896 0.0000000000 0.5186862409 0.2684234776 367.3549665815 -0.0183686409 -0.0071188120
-0.7371398566 0.2068796189 0.0000000000 0.5006203409 0.2375281234 384.0773515230 -0.0183192447 -0.0071225490
-0.7453200562 0.1769904047 0.0000000000 0.4847105986 0.2051988234 398.7676447465 -0.0182698567 -0.0071237104
-0.7522585074 0.1467891490 0.0000000000 0.4710843434 0.1716166185 411.2995286440 -0.0182208733 -0.0071223574
-0.7579436458 0.1163273763 0.0000000000 0.4598519383 0.1369739224 421.5641371170 -0.0181726682 -0.0071185661
-0.7623660278 0.0856570482 0.0000000000 0.4511057488 0.1014727829 429.4710403595 -0.0181255930 -0.0071124250
-0.7655183508 0.0548304760 0.0000000000 0.4449191898 0.0653230555 434.9490441134 -0.0180799810 -0.0071040328
-0.7673954705 0.0239002349 0.0000000000 0.4413458689 0.0287405339 437.9467942128 -0.0180361517 -0.0070934955
-0.7679944152 -0.0070809242 0.0000000000 0.4404188846 -0.0080549238 438.4331934513 -0.0179944152 -0.0070809239
-0.7673143962 -0.0380601610 0.0000000000 0.4421503614 -0.0448412609 436.3976542687 -0.0179550775 -0.0070664300
-0.7653568128 -0.0689846334 0.0000000000 0.4465312381 -0.0813960904 431.8501957584 -0.0179184431 -0.0070501240