 TITLE = "Tecplot data"
 VARIABLES = "X", "Y", "Z" "U", "V", "p", "dispX", "dispY"
 ZONE SOLUTIONTIME=99.900000, NODES=26114 , ELEMENTS=25916, DATAPACKING=POINT, ZONETYPE=FEQUADRILATERAL
0.3830831590 -0.1223344121 0.0000000000 0.0000000000 0.0000000000 -283.3771498756 0.0295297685 -0.4758878028
0.3830831593 -0.8294411931 0.0000000000 0.0000000000 0.0000000000 -643.1712711749 0.0295297685 -0.4758878028
-0.3240236222 -0.1223344123 0.0000000000 0.0000000000 0.0000000000 -112.0653989462 0.0295297685 -0.4758878028
-0.3240236219 -0.8294411935 0.0000000000 0.0000000000 0.0000000000 -239.7273172793 0.0295297685 -0.4758878028
0.5589986174 0.0550502658 0.0000000000 0.1099125768 0.0329960585 -256.5452872266 0.0286685316 -0.4752798201
0.5570843078 -1.0224593684 0.0000000000 0.5345200191 0.0537530297 -637.2432602305 0.0267542215 -0.4921292829
-0.5071972127 0.0414883231 0.0000000000 0.8539216390 0.4933812642 94.3449199487 0.0231328734 -0.4888417627
-0.4966048182 -1.0141485205 0.0000000000 0.9133939721 -0.5004004719 -34.0218580369 0.0337252674 -0.4838184344
1.0823733353 0.5786534570 0.0000000000 1.3361398734 -0.0385184789 -200.7532340661 0.0217131637 -0.4820067149
1.0943027940 -1.5491268131 0.0000000000 1.1007668565 0.1755948371 -219.1175471122 0.0336426215 -0.4884666421
-1.0500198948 0.5406821553 0.0000000000 0.9467059765 0.1671149209 109.3989761084 0.0106402773 -0.5199780161
-1.0184243346 -1.5706635304 0.0000000000 0.9717215875 -0.1560706653 31.3756868306 0.0422358366 -0.5100033581
4.1812778523 2.8773472670 0.0000000000 1.0134317218 0.0164852422 27.3589593102 -0.0187221477 -0.4226527330
4.2728265077 -3.7213424905 0.0000000000 1.0279580881 0.0360714512 13.8453246737 0.0728265077 -0.4213424905
20.0000000000 4.7000000000 0.0000000000 1.0393522026 0.0266755413 0.0118931119 0.0000000000 0.0000000000
20.0000000000 -4.7000000000 0.0000000000 1.0366038954 -0.0321646637 0.2437626028 0.0000000000 0.0000000000
-10.0000000000 15.0000000000 0.0000000000 1.0000000000 0.0000000000 34.2510199683 0.0000000000 0.0000000000
20.0000000000 15.0000000000 0.0000000000 1.0287522557 0.0000000000 0.0202979753 0.0000000000 0.0000000000
20.0000000000 -15.0000000000 0.0000000000 1.0278123744 0.0000000000 0.0211321125 0.0000000000 0.0000000000
-10.0000000000 -15.0000000000 0.0000000000 1.0000000000 0.0000000000 20.9371687775 0.0000000000 0.0000000000
0.3960557046 -0.8159741714 0.0000000000 0.0000000000 0.0000000000 -643.1276686846 0.0295297685 -0.4758878028
0.4085156303 -0.8020315081 0.0000000000 0.0000000000 0.0000000000 -641.4036995342 0.0295297685 -0.4758878028
0.4204455099 -0.7876327034 0.0000000000 0.0000000000 0.0000000000 -640.9407404827 0.0295297685 -0.4758878028
0.4318286585 -0.7727978953 0.0000000000 0.0000000000 0.0000000000 -639.7470415944 0.0295297685 -0.4758878028
0.4426491558 -0.7575478315 0.0000000000 0.0000000000 0.0000000000 -638.4209102557 0.0295297685 -0.4758878028
0.4528918682 -0.7419038407 0.0000000000 0.0000000000 0.0000000000 -636.2999998798 0.0295297685 -0.4758878028
0.4625424705 -0.7258878025 0.0000000000 0.0000000000 0.0000000000 -633.3132123771 0.0295297685 -0.4758878028
0.4715874654 -0.7095221166 0.0000000000 0.0000000000 0.0000000000 -629.1214860109 0.0295297685 -0.4758878028
0.4800142025 -0.6928296721 0.0000000000 0.0000000000 0.0000000000 -623.5343613148 0.0295297685 -0.4758878028
0.4878108965 -0.6758338147 0.0000000000 0.0000000000 0.0000000000 -616.3358541931 0.0295297685 -0.4758878028
0.4949666429 -0.6585583147 0.0000000000 0.0000000000 0.0000000000 -607.3933156862 0.0295297685 -0.4758878028
0.5014714337 -0.6410273335 0.0000000000 0.0000000000 0.0000000000 -596.6327064257 0.0295297685 -0.4758878028
0.5073161714 -0.6232653897 0.0000000000 0.0000000000 0.0000000000 -584.0739219919 0.0295297685 -0.4758878028
0.5124926817 -0.6052973251 0.0000000000 0.0000000000 0.0000000000 -569.8289498451 0.0295297685 -0.4758878028
0.5169937246 -0.5871482695 0.0000000000 0.0000000000 0.0000000000 -554.1061644115 0.0295297685 -0.4758878028
0.5208130051 -0.5688436061 0.0000000000 0.0000000000 0.0000000000 -537.1975569717 0.0295297685 -0.4758878028
0.5239451816 -0.5504089356 0.0000000000 0.0000000000 0.0000000000 -519.4600547643 0.0295297685 -0.4758878028
0.5263858734 -0.5318700406 0.0000000000 0.0000000000 0.0000000000 -501.2874605978 0.0295297685 -0.4758878028
0.5281316671 -0.5132528493 0.0000000000 0.0000000000 0.0000000000 -483.0788006720 0.0295297685 -0.4758878028
0.5291801209 -0.4945833997 0.0000000000 0.0000000000 0.0000000000 -465.2057725746 0.0295297685 -0.4758878028
0.5295297685 -0.4758878026 0.0000000000 0.0000000000 0.0000000000 -447.9845869310 0.0295297685 -0.4758878028
0.5291801209 -0.4571922054 0.0000000000 0.0000000000 0.0000000000 -431.6577780772 0.0295297685 -0.4758878028
0.5281316670 -0.4385227558 0.0000000000 0.0000000000 0.0000000000 -416.3924701885 0.0295297685 -0.4758878028
0.5263858734 -0.4199055645 0.0000000000 0.0000000000 0.0000000000 -402.2876599894 0.0295297685 -0.4758878028
0.5239451816 -0.4013666695 0.0000000000 0.0000000000 0.0000000000 -389.3687618089 0.0295297685 -0.4758878028
0.5208130051 -0.3829319990 0.0000000000 0.0000000000 0.0000000000 -377.5813406307 0.0295297685 -0.4758878028
0.5169937245 -0.3646273356 0.0000000000 0.0000000000 0.0000000000 -366.8221988987 0.0295297685 -0.4758878028
0.5124926816 -0.3464782801 0.0000000000 0.0000000000 0.0000000000 -356.9687018101 0.0295297685 -0.4758878028
0.5073161713 -0.3285102154 0.0000000000 0.0000000000 0.0000000000 -347.9027047982 0.0295297685 -0.4758878028
0.5014714336 -0.3107482716 0.0000000000 0.0000000000 0.0000000000 -339.5083777873 0.0295297685 -0.4758878028
0.4949666427 -0.2932172905 0.0000000000 0.0000000000 0.0000000000 -331.6992094277 0.0295297685 -0.4758878028
0.4878108964 -0.2759417905 0.0000000000 0.0000000000 0.0000000000 -324.3831712410 0.0295297685 -0.4758878028
0.4800142024 -0.2589459331 0.0000000000 0.0000000000 0.0000000000 -317.5361047673 0.0295297685 -0.4758878028
0.4715874652 -0.2422534885 0.0000000000 0.0000000000 0.0000000000 -311.0819812494 0.0295297685 -0.4758878028
0.4625424703 -0.2258878027 0.0000000000 0.0000000000 0.0000000000 -305.1226187758 0.0295297685 -0.4758878028
0.4528918680 -0.2098717644 0.0000000000 0.0000000000 0.0000000000 -299.5526601605 0.0295297685 -0.4758878028
0.4426491556 -0.1942277737 0.0000000000 0.0000000000 0.0000000000 -294.7497214378 0.0295297685 -0.4758878028
0.4318286583 -0.1789777099 0.0000000000 0.0000000000 0.0000000000 -290.3758129744 0.0295297685 -0.4758878028
0.4204455097 -0.1641429018 0.0000000000 0.0000000000 0.0000000000 -287.3995272336 0.0295297685 -0.4758878028
0.4085156300 -0.1497440971 0.0000000000 0.0000000000 0.0000000000 -284.6276450080 0.0295297685 -0.4758878028
0.3960557043 -0.1358014338 0.0000000000 0.0000000000 0.0000000000 -284.2660042296 0.0295297685 -0.4758878028
0.3681705542 -0.1080258474 0.0000000000 0.0000000000 0.0000000000 -285.4736977622 0.0295297685 -0.4758878028
0.3526793874 -0.0943457686 0.0000000000 0.0000000000 0.0000000000 -287.4264584893 0.0295297685 -0.4758878028
0.3366361248 -0.0813175480 0.0000000000 0.0000000000 0.0000000000 -291.1793145667 0.0295297685 -0.4758878028
0.3200681761 -0.0689634441 0.0000000000 0.0000000000 0.0000000000 -295.2447740437 0.0295297685 -0.4758878028
0.3030038475 -0.0573045636 0.0000000000 0.0000000000 0.0000000000 -300.3033666989 0.0295297685 -0.4758878028
0.2854722930 -0.0463608255 0.0000000000 0.0000000000 0.0000000000 -305.9215823876 0.0295297685 -0.4758878028
0.2675034649 -0.0361509271 0.0000000000 0.0000000000 0.0000000000 -312.4557329692 0.0295297685 -0.4758878028
0.2491280628 -0.0266923118 0.0000000000 0.0000000000 0.0000000000 -319.8733246394 0.0295297685 -0.4758878028
0.2303774807 -0.0180011394 0.0000000000 0.0000000000 0.0000000000 -328.3889920451 0.0295297685 -0.4758878028
0.2112837537 -0.0100922587 0.0000000000 0.0000000000 0.0000000000 -338.0329236637 0.0295297685 -0.4758878028
0.1918795030 -0.0029791819 0.0000000000 0.0000000000 0.0000000000 -348.8787578939 0.0295297685 -0.4758878028
0.1721978805 0.0033259385 0.0000000000 0.0000000000 0.0000000000 -360.8940008958 0.0295297685 -0.4758878028
0.1522725120 0.0088123302 0.0000000000 0.0000000000 0.0000000000 -374.0211766094 0.0295297685 -0.4758878028
0.1321374395 0.0134706199 0.0000000000 0.0000000000 0.0000000000 -388.1203839376 0.0295297685 -0.4758878028
0.1118270635 0.0172928490 0.0000000000 0.0000000000 0.0000000000 -402.9928745705 0.0295297685 -0.4758878028
0.0913760840 0.0202724871 0.0000000000 0.0000000000 0.0000000000 -418.3589062074 0.0295297685 -0.4758878028
0.0708194411 0.0224044438 0.0000000000 0.0000000000 0.0000000000 -433.8684043550 0.0295297685 -0.4758878028
0.0501922555 0.0236850764 0.0000000000 0.0000000000 0.0000000000 -449.1005141238 0.0295297685 -0.4758878028
0.0295297684 0.0241121972 0.0000000000 0.0000000000 0.0000000000 -463.5782968948 0.0295297685 -0.4758878028
0.0088672812 0.0236850764 0.0000000000 0.0000000000 0.0000000000 -476.7827217915 0.0295297685 -0.4758878028
-0.0117599044 0.0224044437 0.0000000000 0.0000000000 0.0000000000 -488.1734707042 0.0295297685 -0.4758878028
-0.0323165473 0.0202724871 0.0000000000 0.0000000000 0.0000000000 -497.2099986607 0.0295297685 -0.4758878028
-0.0527675268 0.0172928489 0.0000000000 0.0000000000 0.0000000000 -503.3738841219 0.0295297685 -0.4758878028
-0.0730779027 0.0134706199 0.0000000000 0.0000000000 0.0000000000 -506.1892371814 0.0295297685 -0.4758878028
-0.0932129752 0.0088123302 0.0000000000 0.0000000000 0.0000000000 -505.2406360622 0.0295297685 -0.4758878028
-0.1131383438 0.0033259384 0.0000000000 0.0000000000 0.0000000000 -500.1871833825 0.0295297685 -0.4758878028
-0.1328199663 -0.0029791819 0.0000000000 0.0000000000 0.0000000000 -490.7724564966 0.0295297685 -0.4758878028
-0.1522242169 -0.0100922588 0.0000000000 0.0000000000 0.0000000000 -476.8301978669 0.0295297685 -0.4758878028
-0.1713179440 -0.0180011395 0.0000000000 0.0000000000 0.0000000000 -458.2861267620 0.0295297685 -0.4758878028
-0.1900685261 -0.0266923119 0.0000000000 0.0000000000 0.0000000000 -435.1564002173 0.0295297685 -0.4758878028
-0.2084439282 -0.0361509272 0.0000000000 0.0000000000 0.0000000000 -407.5433852847 0.0295297685 -0.4758878028
-0.2264127562 -0.0463608256 0.0000000000 0.0000000000 0.0000000000 -375.6294550908 0.0295297685 -0.4758878028
-0.2439443107 -0.0573045637 0.0000000000 0.0000000000 0.0000000000 -339.6693521471 0.0295297685 -0.4758878028
-0.2610086394 -0.0689634442 0.0000000000 0.0000000000 0.0000000000 -299.9818325703 0.0295297685 -0.4758878028
-0.2775765880 -0.0813175481 0.0000000000 0.0000000000 0.0000000000 -256.9405144704 0.0295297685 -0.4758878028
-0.2936198506 -0.0943457688 0.0000000000 0.0000000000 0.0000000000 -210.9653880433 0.0295297685 -0.4758878028
-0.3091110175 -0.1080258475 0.0000000000 0.0000000000 0.0000000000 -162.5117263739 0.0295297685 -0.4758878028
-0.3383321870 -0.1372470171 0.0000000000 0.0000000000 0.0000000000 -60.1186615427 0.0295297685 -0.4758878028
-0.3520122657 -0.1527381839 0.0000000000 0.0000000000 0.0000000000 -7.1877620001 0.0295297685 -0.4758878028
-0.3650404863 -0.1687814465 0.0000000000 0.0000000000 0.0000000000 46.2576631968 0.0295297685 -0.4758878028
-0.3773945903 -0.1853493952 0.0000000000 0.0000000000 0.0000000000 99.9693695241 0.0295297685 -0.4758878028
-0.3890534708 -0.2024137238 0.0000000000 0.0000000000 0.0000000000 152.4478209236 0.0295297685 -0.4758878028
-0.3999972088 -0.2199452784 0.0000000000 0.0000000000 0.0000000000 210.7999324120 0.0295297685 -0.4758878028
-0.4102071072 -0.2379141064 0.0000000000 0.0000000000 0.0000000000 238.6813223818 0.0295297685 -0.4758878028
-0.4196657226 -0.2562895085 0.0000000000 0.0000000000 0.0000000000 315.8341798706 0.0295297685 -0.4758878028
-0.4283568949 -0.2750400906 0.0000000000 0.0000000000 0.0000000000 338.6604344572 0.0295297685 -0.4758878028
-0.4362657756 -0.2941338176 0.0000000000 0.0000000000 0.0000000000 389.6723212136 0.0295297685 -0.4758878028
-0.4433788524 -0.3135380683 0.0000000000 0.0000000000 0.0000000000 424.7871580272 0.0295297685 -0.4758878028
-0.4496839728 -0.3332196908 0.0000000000 0.0000000000 0.0000000000 459.3856017416 0.0295297685 -0.4758878028
-0.4551703645 -0.3531450594 0.0000000000 0.0000000000 0.0000000000 487.2424990857 0.0295297685 -0.4758878028
-0.4598286542 -0.3732801318 0.0000000000 0.0000000000 0.0000000000 512.3617442208 0.0295297685 -0.4758878028
-0.4636508833 -0.3935905078 0.0000000000 0.0000000000 0.0000000000 532.3972566099 0.0295297685 -0.4758878028
-0.4666305214 -0.4140414873 0.0000000000 0.0000000000 0.0000000000 547.6600051307 0.0295297685 -0.4758878028
-0.4687624781 -0.4345981302 0.0000000000 0.0000000000 0.0000000000 557.7516799283 0.0295297685 -0.4758878028
-0.4700431107 -0.4552253158 0.0000000000 0.0000000000 0.0000000000 562.5886383470 0.0295297685 -0.4758878028
-0.4704702315 -0.4758878030 0.0000000000 0.0000000000 0.0000000000 562.0548522336 0.0295297685 -0.4758878028
-0.4700431107 -0.4965502901 0.0000000000 0.0000000000 0.0000000000 556.1374236676 0.0295297685 -0.4758878028
-0.4687624780 -0.5171774757 0.0000000000 0.0000000000 0.0000000000 544.8132836542 0.0295297685 -0.4758878028
-0.4666305214 -0.5377341186 0.0000000000 0.0000000000 0.0000000000 528.2045958434 0.0295297685 -0.4758878028
-0.4636508832 -0.5581850981 0.0000000000 0.0000000000 0.0000000000 506.3213332115 0.0295297685 -0.4758878028
-0.4598286542 -0.5784954741 0.0000000000 0.0000000000 0.0000000000 479.4761122024 0.0295297685 -0.4758878028
-0.4551703644 -0.5986305465 0.0000000000 0.0000000000 0.0000000000 447.6858703430 0.0295297685 -0.4758878028
-0.4496839727 -0.6185559151 0.0000000000 0.0000000000 0.0000000000 411.3151487613 0.0295297685 -0.4758878028
-0.4433788523 -0.6382375376 0.0000000000 0.0000000000 0.0000000000 371.2080033742 0.0295297685 -0.4758878028
-0.4362657755 -0.6576417883 0.0000000000 0.0000000000 0.0000000000 326.5798283949 0.0295297685 -0.4758878028
-0.4283568948 -0.6767355153 0.0000000000 0.0000000000 0.0000000000 280.2053368280 0.0295297685 -0.4758878028
-0.4196657224 -0.6954860974 0.0000000000 0.0000000000 0.0000000000 223.9666991606 0.0295297685 -0.4758878028
-0.4102071070 -0.7138614995 0.0000000000 0.0000000000 0.0000000000 166.0640536975 0.0295297685 -0.4758878028
-0.3999972086 -0.7318303275 0.0000000000 0.0000000000 0.0000000000 125.3452338408 0.0295297685 -0.4758878028
-0.3890534705 -0.7493618820 0.0000000000 0.0000000000 0.0000000000 32.0142840174 0.0295297685 -0.4758878028
-0.3773945900 -0.7664262107 0.0000000000 0.0000000000 0.0000000000 53.7186066069 0.0295297685 -0.4758878028
-0.3650404861 -0.7829941593 0.0000000000 0.0000000000 0.0000000000 -162.8216946345 0.0295297685 -0.4758878028
-0.3520122655 -0.7990374219 0.0000000000 0.0000000000 0.0000000000 -3.3544750618 0.0295297685 -0.4758878028
-0.3383321867 -0.8145285888 0.0000000000 0.0000000000 0.0000000000 -390.2199840968 0.0295297685 -0.4758878028
-0.3091110172 -0.8437497583 0.0000000000 0.0000000000 0.0000000000 -94.2398047974 0.0295297685 -0.4758878028
-0.2936198503 -0.8574298370 0.0000000000 0.0000000000 0.0000000000 -622.9780967063 0.0295297685 -0.4758878028
-0.2775765877 -0.8704580576 0.0000000000 0.0000000000 0.0000000000 -361.2348243474 0.0295297685 -0.4758878028
-0.2610086390 -0.8828121615 0.0000000000 0.0000000000 0.0000000000 -546.8229318823 0.0295297685 -0.4758878028
-0.2439443104 -0.8944710420 0.0000000000 0.0000000000 0.0000000000 -508.0769982123 0.0295297685 -0.4758878028
-0.2264127558 -0.9054147801 0.0000000000 0.0000000000 0.0000000000 -603.4504799731 0.0295297685 -0.4758878028
-0.2084439278 -0.9156246785 0.0000000000 0.0000000000 0.0000000000 -616.1847327648 0.0295297685 -0.4758878028
-0.1900685257 -0.9250832938 0.0000000000 0.0000000000 0.0000000000 -673.8905931497 0.0295297685 -0.4758878028
-0.1713179436 -0.9337744662 0.0000000000 0.0000000000 0.0000000000 -697.5207162323 0.0295297685 -0.4758878028
-0.1522242166 -0.9416833469 0.0000000000 0.0000000000 0.0000000000 -735.4730228030 0.0295297685 -0.4758878028
-0.1328199659 -0.9487964237 0.0000000000 0.0000000000 0.0000000000 -757.1478673563 0.0295297685 -0.4758878028
-0.1131383434 -0.9551015441 0.0000000000 0.0000000000 0.0000000000 -781.4965230370 0.0295297685 -0.4758878028
-0.0932129748 -0.9605879358 0.0000000000 0.0000000000 0.0000000000 -796.6185741258 0.0295297685 -0.4758878028
-0.0730779023 -0.9652462255 0.0000000000 0.0000000000 0.0000000000 -810.0682400639 0.0295297685 -0.4758878028
-0.0527675264 -0.9690684545 0.0000000000 0.0000000000 0.0000000000 -817.3994650666 0.0295297685 -0.4758878028
-0.0323165469 -0.9720480927 0.0000000000 0.0000000000 0.0000000000 -821.7710099187 0.0295297685 -0.4758878028
-0.0117599040 -0.9741800493 0.0000000000 0.0000000000 0.0000000000 -821.7527663529 0.0295297685 -0.4758878028
0.0088672816 -0.9754606820 0.0000000000 0.0000000000 0.0000000000 -818.8502333956 0.0295297685 -0.4758878028
0.0295297688 -0.9758878028 0.0000000000 0.0000000000 0.0000000000 -812.8552201468 0.0295297685 -0.4758878028
0.0501922559 -0.9754606819 0.0000000000 0.0000000000 0.0000000000 -804.6610129850 0.0295297685 -0.4758878028
0.0708194415 -0.9741800492 0.0000000000 0.0000000000 0.0000000000 -794.5265237830 0.0295297685 -0.4758878028
0.0913760844 -0.9720480926 0.0000000000 0.0000000000 0.0000000000 -783.0902120777 0.0295297685 -0.4758878028
0.1118270639 -0.9690684544 0.0000000000 0.0000000000 0.0000000000 -770.7370692319 0.0295297685 -0.4758878028
0.1321374399 -0.9652462254 0.0000000000 0.0000000000 0.0000000000 -757.9452788696 0.0295297685 -0.4758878028
0.1522725123 -0.9605879356 0.0000000000 0.0000000000 0.0000000000 -745.0629016014 0.0295297685 -0.4758878028
0.1721978809 -0.9551015439 0.0000000000 0.0000000000 0.0000000000 -732.4198873101 0.0295297685 -0.4758878028
0.1918795034 -0.9487964235 0.0000000000 0.0000000000 0.0000000000 -720.2568775668 0.0295297685 -0.4758878028
0.2112837541 -0.9416833467 0.0000000000 0.0000000000 0.0000000000 -708.7594447854 0.0295297685 -0.4758878028
0.2303774811 -0.9337744660 0.0000000000 0.0000000000 0.0000000000 -698.0506471051 0.0295297685 -0.4758878028
0.2491280632 -0.9250832936 0.0000000000 0.0000000000 0.0000000000 -688.1945414892 0.0295297685 -0.4758878028
0.2675034653 -0.9156246782 0.0000000000 0.0000000000 0.0000000000 -679.2445764976 0.0295297685 -0.4758878028
0.2854722933 -0.9054147798 0.0000000000 0.0000000000 0.0000000000 -671.1887042193 0.0295297685 -0.4758878028
0.3030038478 -0.8944710417 0.0000000000 0.0000000000 0.0000000000 -664.1312913168 0.0295297685 -0.4758878028
0.3200681765 -0.8828121612 0.0000000000 0.0000000000 0.0000000000 -657.9542869015 0.0295297685 -0.4758878028
0.3366361251 -0.8704580572 0.0000000000 0.0000000000 0.0000000000 -653.0422299367 0.0295297685 -0.4758878028
0.3526793877 -0.8574298366 0.0000000000 0.0000000000 0.0000000000 -648.6865049176 0.0295297685 -0.4758878028
0.3681705545 -0.8437497579 0.0000000000 0.0000000000 0.0000000000 -646.4578984200 0.0295297685 -0.4758878028
0.5763216251 -1.0019804515 0.0000000000 0.4478705814 0.0398945754 -641.7595085086 0.0265327209 -0.4918508985
0.5950298124 -0.9813251721 0.0000000000 0.3776681122 0.0230598439 -646.7713305936 0.0265510197 -0.4921096140
0.6129793831 -0.9601190552 0.0000000000 0.3218439984 0.0042747587 -652.3150255867 0.0266057709 -0.4925017042
0.6301221197 -0.9382884846 0.0000000000 0.2779621980 -0.0150062472 -658.2968373637 0.0266737846 -0.4929233458
0.6464252749 -0.9158235538 0.0000000000 0.2426510725 -0.0333846169 -664.4990148318 0.0267461939 -0.4933335107
0.6618599491 -0.8927374907 0.0000000000 0.2123221575 -0.0497335808 -670.5868051521 0.0268167994 -0.4937134337
0.6764003337 -0.8690540744 0.0000000000 0.1839095622 -0.0632810177 -676.1295758090 0.0268812806 -0.4940540748
0.6900237365 -0.8448026079 0.0000000000 0.1552404053 -0.0735634163 -680.6277902748 0.0269371912 -0.4943511371
0.7027103638 -0.8200155215 0.0000000000 0.1250465466 -0.0803249922 -683.5423548908 0.0269837127 -0.4946027176
0.7144429415 -0.7947271072 0.0000000000 0.0927924590 -0.0834282862 -684.3267067155 0.0270212494 -0.4948080893
0.7252063329 -0.7689728118 0.0000000000 0.0584779171 -0.0828038091 -682.4627962444 0.0270510213 -0.4949670439
0.7349872385 -0.7427888277 0.0000000000 0.0224869247 -0.0784347723 -677.5007638010 0.0270747406 -0.4950795316
0.7437739922 -0.7162118373 0.0000000000 -0.0145126822 -0.0703616841 -669.1001340557 0.0270943878 -0.4951454569
0.7515564292 -0.6892788415 0.0000000000 -0.0516391424 -0.0586936181 -657.0686136305 0.0271120594 -0.4951645580
0.7583257933 -0.6620270332 0.0000000000 -0.0878552767 -0.0436188500 -641.3935488961 0.0271298590 -0.4951363331
0.7640746642 -0.6344937037 0.0000000000 -0.1220268322 -0.0254124013 -622.2609798047 0.0271498092 -0.4950599986
0.7687968921 -0.6067161743 0.0000000000 -0.1529859716 -0.0044404256 -600.0579467927 0.0271737724 -0.4949344750
0.7724875379 -0.5787317535 0.0000000000 -0.1796021026 0.0188385119 -575.3551158061 0.0272033804 -0.4947583968
0.7751428207 -0.5505777186 0.0000000000 -0.2008598410 0.0438764174 -548.8688977492 0.0272399728 -0.4945301488
0.7767600766 -0.5222913235 0.0000000000 -0.2159403712 0.0700454089 -521.4052099993 0.0272845480 -0.4942479281
0.7773377299 -0.4939098317 0.0000000000 -0.2242980074 0.0966559116 -493.7906875885 0.0273377299 -0.4939098320
0.7768752764 -0.4654705724 0.0000000000 -0.2257204750 0.1229836747 -466.8005741579 0.0273997478 -0.4935139684
0.7753732782 -0.4370110173 0.0000000000 -0.2203617356 0.1483028259 -441.0942615426 0.0274704303 -0.4930585878
0.7728333662 -0.4085688702 0.0000000000 -0.2087408012 0.1719195109 -417.1684188042 0.0275492088 -0.4925422275
0.7692582500 -0.3801821639 0.0000000000 -0.1917073604 0.1931992727 -395.3339528252 0.0276351304 -0.4919638637
0.7646517337 -0.3518893542 0.0000000000 -0.1703823561 0.2115814640 -375.7179964765 0.0277268788 -0.4913230598
0.7590187423 -0.3237294011 0.0000000000 -0.1460864105 0.2265756330 -358.2875111467 0.0278228082 -0.4906201018
0.7523653619 -0.2957418276 0.0000000000 -0.1202696235 0.2377386427 -342.8881541806 0.0279209923 -0.4898561116
0.7446989010 -0.2679667471 0.0000000000 -0.0944517719 0.2446387756 -329.2909454838 0.0280192968 -0.4890331281
0.7360279782 -0.2404448507 0.0000000000 -0.0701718975 0.2468246322 -317.2393367885 0.0281154806 -0.4881541474
0.7263626419 -0.2132173460 0.0000000000 -0.0489327623 0.2438278775 -306.4899974471 0.0282073305 -0.4872231145
0.7157145238 -0.1863258397 0.0000000000 -0.0321153475 0.2352294860 -296.8420111295 0.0282928320 -0.4862448581
0.7040970218 -0.1598121546 0.0000000000 -0.0208388721 0.2208000297 -288.1513962125 0.0283703709 -0.4852249591
0.6915254913 -0.1337180707 0.0000000000 -0.0157470414 0.2006918207 -280.3312844717 0.0284389463 -0.4841695421
0.6780173967 -0.1080849896 0.0000000000 -0.0166879717 0.1756378562 -273.3449321188 0.0284983439 -0.4830849898
0.6635923297 -0.0829535433 0.0000000000 -0.0222375226 0.1471099198 -267.2091019500 0.0285491804 -0.4819776009
0.6482717769 -0.0583632335 0.0000000000 -0.0291310403 0.1173663787 -262.0222445720 0.0285926962 -0.4808532772
0.6320785625 -0.0343522952 0.0000000000 -0.0320264857 0.0892475269 -257.9903901163 0.0286302277 -0.4797174345
0.6150360429 -0.0109581588 0.0000000000 -0.0242660764 0.0655753634 -255.3776106029 0.0286624311 -0.4785755103
0.5971671639 0.0117805584 0.0000000000 0.0002374197 0.0482823165 -254.3558716991 0.0286883716 -0.4774350001
0.5784938405 0.0338181308 0.0000000000 0.0449643460 0.0377669167 -254.8517789081 0.0287049367 -0.4763114226
0.5364526403 0.0777677867 0.0000000000 0.2034302877 0.0326126839 -259.4090581311 0.0284914616 -0.4740251464
0.5129977335 0.0993219099 0.0000000000 0.3138763485 0.0357309902 -262.7320511611 0.0282733051 -0.4729911413
0.4887167666 0.1197859907 0.0000000000 0.4370173326 0.0416656717 -266.2394106135 0.0280572321 -0.4720693914
0.4636509013 0.1391459622 0.0000000000 0.5680947893 0.0505986773 -269.8004809094 0.0278432898 -0.4712405758
0.4378419863 0.1573790374 0.0000000000 0.7014401561 0.0628502555 -273.3420896612 0.0276308678 -0.4704958213
0.4113316455 0.1744591951 0.0000000000 0.8305598292 0.0783092941 -276.7739674419 0.0274178588 -0.4698312707
0.3841621474 0.1903587596 0.0000000000 0.9491216670 0.0963136244 -279.9602015256 0.0272016027 -0.4692465539
0.3563770265 0.2050492429 0.0000000000 1.0521739192 0.1158534297 -282.7447217447 0.0269795849 -0.4687439935
0.3280214334 0.2185023590 0.0000000000 1.1369263299 0.1358745122 -284.9977181226 0.0267498650 -0.4683276360
0.2991421839 0.2306910151 0.0000000000 1.2028560087 0.1555223036 -286.6437172650 0.0265112061 -0.4680023010
0.2697876253 0.2415900957 0.0000000000 1.2512770354 0.1742662066 -287.6604130150 0.0262630236 -0.4677728356
0.2400074480 0.2511770172 0.0000000000 1.2846542701 0.1919100434 -288.0593375604 0.0260052800 -0.4676435947
0.2098525223 0.2594321176 0.0000000000 1.3059137972 0.2085250103 -287.8618942359 0.0257384071 -0.4676180819
0.1793747858 0.2663389310 0.0000000000 1.3179064511 0.2243487058 -287.0787172615 0.0254632793 -0.4676987030
0.1486271746 0.2718843650 0.0000000000 1.3230805188 0.2396862564 -285.6957008028 0.0251812320 -0.4678866126
0.1176635745 0.2760587770 0.0000000000 1.3233460755 0.2548347202 -283.6674441412 0.0248941012 -0.4681816578
0.0865387647 0.2788559516 0.0000000000 1.3200762417 0.2700370717 -280.9172815671 0.0246042557 -0.4685824182
0.0553083302 0.2802729972 0.0000000000 1.3141846000 0.2854619807 -277.3420933356 0.0243145997 -0.4690863216
0.0240285303 0.2803101972 0.0000000000 1.3062302952 0.3012013142 -272.8197751884 0.0240285304 -0.4696898028
-0.0072438793 0.2789708586 0.0000000000 1.2965204383 0.3172773045 -267.2175149495 0.0237498516 -0.4703884602
-0.0384518611 0.2762611943 0.0000000000 1.2851953905 0.3336534043 -260.3996262259 0.0234826482 -0.4711771754
-0.0695383340 0.2721902572 0.0000000000 1.2722932396 0.3502452954 -252.2343271058 0.0232311396 -0.4720501776
-0.1004464192 0.2667699271 0.0000000000 1.2577954602 0.3669304530 -242.5993367518 0.0229995236 -0.4730010505
-0.1311196822 0.2600149357 0.0000000000 1.2416578545 0.3835558885 -231.3864367701 0.0227918246 -0.4740226983
-0.1615023645 0.2519429080 0.0000000000 1.2238309704 0.3999443037 -218.5052381175 0.0226117510 -0.4751072914
-0.1915396036 0.2425744019 0.0000000000 1.2042734410 0.4158991109 -203.8863733991 0.0224625647 -0.4762462099
-0.2211776395 0.2319329347 0.0000000000 1.1829607417 0.4312087749 -187.4842618338 0.0223469626 -0.4774299965
-0.2503640101 0.2200449971 0.0000000000 1.1598910264 0.4456508441 -169.2795149953 0.0222669680 -0.4786483189
-0.2790477318 0.2069400596 0.0000000000 1.1350890792 0.4589959241 -149.2809894730 0.0222238369 -0.4798899353
-0.3071794614 0.1926505942 0.0000000000 1.1086089969 0.4710117441 -127.5274572604 0.0222179804 -0.4811426421
-0.3347116305 0.1772121456 0.0000000000 1.0805359543 0.4814673745 -104.0888457900 0.0222489145 -0.4823931677
-0.3615985426 0.1606635336 0.0000000000 1.0509872863 0.4901375788 -79.0670376765 0.0223152444 -0.4836269320
-0.3877964156 0.1430473696 0.0000000000 1.0201130844 0.4968071563 -52.5961395049 0.0224147032 -0.4848274890
-0.4132633353 0.1244113625 0.0000000000 0.9880969170 0.5012750637 -24.8429128599 0.0225442765 -0.4859751754
-0.4379590513 0.1048117836 0.0000000000 0.9551572760 0.5033569646 3.9945613408 0.0227004833 -0.4870435983
-0.4618448086 0.0843237866 0.0000000000 0.9215575249 0.5028862567 33.6751854796 0.0228796200 -0.4879892644
-0.4848861021 0.0630767877 0.0000000000 0.8876216036 0.4996868611 63.9499658508 0.0230750767 -0.4887161452
-0.5282635341 0.0171794015 0.0000000000 0.8186578237 0.4857360659 125.5064274546 0.0235293990 -0.4907817771
-0.5485459185 -0.0074625553 0.0000000000 0.7839955489 0.4747387768 156.5541637831 0.0237671328 -0.4921869835
-0.5678541348 -0.0327288511 0.0000000000 0.7500015173 0.4607718886 187.1596333037 0.0240012474 -0.4933883854
-0.5861512507 -0.0586472451 0.0000000000 0.7169230568 0.4439357351 217.0550164560 0.0242352874 -0.4944548565
-0.6034074314 -0.0852003348 0.0000000000 0.6850238345 0.4243271326 245.9608699143 0.0244674274 -0.4954114531
-0.6195941597 -0.1123557831 0.0000000000 0.6545664857 0.4020647708 273.6051130146 0.0246963062 -0.4962695697
-0.6346839327 -0.1400750259 0.0000000000 0.6258005455 0.3772938365 299.7295038838 0.0249213809 -0.4970355705
-0.6486504465 -0.1683162067 0.0000000000 0.5989568306 0.3501846294 324.0942893517 0.0251427901 -0.4977136481
-0.6614687424 -0.1970353004 0.0000000000 0.5742437208 0.3209297195 346.4815633481 0.0253612527 -0.4983068686
-0.6731153299 -0.2261865773 0.0000000000 0.5518447270 0.2897404157 366.6977048157 0.0255779862 -0.4988175550
-0.6835683063 -0.2557228134 0.0000000000 0.5319169179 0.2568429869 384.5750498236 0.0257946250 -0.4992474150
-0.6928074806 -0.2855954056 0.0000000000 0.5145900498 0.2224748317 399.9728803852 0.0260131313 -0.4995975735
-0.7008145058 -0.3157544655 0.0000000000 0.4999663203 0.1868807375 412.7777914021 0.0262356938 -0.4998685806
-0.7075730222 -0.3461489231 0.0000000000 0.4881207146 0.1503093220 422.9034945366 0.0264646118 -0.5000604295
-0.7130688116 -0.3767266572 0.0000000000 0.4791019199 0.1130097136 430.2901259744 0.0267021660 -0.5001725996
-0.7172899593 -0.4074346572 0.0000000000 0.4729337350 0.0752284997 434.9031256849 0.0269504755 -0.5002041303
-0.7202270183 -0.4382192171 0.0000000000 0.4696168264 0.0372069721 436.7317477794 0.0272113515 -0.5001537259
-0.7218731633 -0.4690261601 0.0000000000 0.4691306507 -0.0008212686 435.7872575720 0.0274861555 -0.5000198905
-0.7222243197 -0.4998010893 0.0000000000 0.4714353992 -0.0386322588 432.1008773310 0.0277756803 -0.4998010890
-0.7212792522 -0.5304896619 0.0000000000 0.4764739696 -0.0760131185 425.7216002792 0.0280800666 -0.4994959309
-0.7190395987 -0.5610378846 0.0000000000 0.4841739457 -0.1127630139 416.7139809680 0.0283987710 -0.4991033752
-0.7155098440 -0.5913924253 0.0000000000 0.4944495599 -0.1486936851 405.1559830710 0.0287305908 -0.4986229516
-0.7106972313 -0.6215009374 0.0000000000 0.5072037050 -0.1836296185 391.1369593412 0.0290737462 -0.4980549944