 TITLE = "Tecplot data"
 VARIABLES = "X", "Y", "Z" "U", "V", "p", "dispX", "dispY"
 ZONE SOLUTIONTIME=44.900000, NODES=26114 , ELEMENTS=25916, DATAPACKING=POINT, ZONETYPE=FEQUADRILATERAL
0.3466962762 0.3101276638 0.0000000000 0.0000000000 0.0000000000 -599.3418136103 -0.0068571143 -0.0434257268
0.3466962765 -0.3969791172 0.0000000000 0.0000000000 0.0000000000 -280.9485474325 -0.0068571143 -0.0434257268
-0.3604105050 0.3101276636 0.0000000000 0.0000000000 0.0000000000 -260.3996616424 -0.0068571143 -0.0434257268
-0.3604105047 -0.3969791176 0.0000000000 0.0000000000 0.0000000000 -112.9056159202 -0.0068571143 -0.0434257268
0.5235572546 0.4869248783 0.0000000000 0.4373917919 -0.0316951470 -593.6581807179 -0.0067728312 -0.0434052077
0.5229741703 -0.5753228989 0.0000000000 0.1462548609 -0.0260792821 -254.8485638008 -0.0073559160 -0.0449928134
-0.5380353553 0.4856258740 0.0000000000 0.8967832477 0.5013006064 -27.4862730110 -0.0077052692 -0.0447042118
-0.5367965629 -0.5744880406 0.0000000000 0.8718617630 -0.4904647184 81.1409731960 -0.0064664772 -0.0441579545
1.0530974986 1.0166523854 0.0000000000 1.1129325623 -0.1526249387 -222.9076231376 -0.0075626730 -0.0440077865
1.0541099921 -1.1053543245 0.0000000000 1.3233524515 0.0233706424 -204.4498163787 -0.0065501804 -0.0446941535
-1.0697769383 1.0129877581 0.0000000000 0.9605947995 0.1595636088 36.9732388759 -0.0091167662 -0.0476724133
-1.0662561190 -1.1073013740 0.0000000000 0.9564571264 -0.1662924635 99.8233285006 -0.0055959477 -0.0466412017
4.1892469867 3.2613649886 0.0000000000 1.0229936481 -0.0340524132 9.8471918992 -0.0107530133 -0.0386350114
4.1979118974 -3.3385280676 0.0000000000 1.0158350468 -0.0132652040 27.8774120038 -0.0020881026 -0.0385280676
20.0000000000 4.7000000000 0.0000000000 1.0424828450 0.0352061389 0.0955513859 0.0000000000 0.0000000000
20.0000000000 -4.7000000000 0.0000000000 1.0267407841 -0.1049541718 0.4793208766 0.0000000000 0.0000000000
-10.0000000000 15.0000000000 0.0000000000 1.0000000000 0.0000000000 20.7505809911 0.0000000000 0.0000000000
20.0000000000 15.0000000000 0.0000000000 1.0348742187 0.0000000000 0.0213099562 0.0000000000 0.0000000000
20.0000000000 -15.0000000000 0.0000000000 1.0399168587 0.0000000000 0.0128112698 0.0000000000 0.0000000000
-10.0000000000 -15.0000000000 0.0000000000 1.0000000000 0.0000000000 30.3463835015 0.0000000000 0.0000000000
0.3596688218 -0.3835120955 0.0000000000 0.0000000000 0.0000000000 -279.5270323526 -0.0068571143 -0.0434257268
0.3721287475 -0.3695694322 0.0000000000 0.0000000000 0.0000000000 -279.4940093691 -0.0068571143 -0.0434257268
0.3840586271 -0.3551706275 0.0000000000 0.0000000000 0.0000000000 -280.4748596483 -0.0068571143 -0.0434257268
0.3954417758 -0.3403358194 0.0000000000 0.0000000000 0.0000000000 -282.6058481512 -0.0068571143 -0.0434257268
0.4062622730 -0.3250857556 0.0000000000 0.0000000000 0.0000000000 -285.6677607777 -0.0068571143 -0.0434257268
0.4165049855 -0.3094417648 0.0000000000 0.0000000000 0.0000000000 -289.5348424131 -0.0068571143 -0.0434257268
0.4261555877 -0.2934257266 0.0000000000 0.0000000000 0.0000000000 -294.0332004760 -0.0068571143 -0.0434257268
0.4352005826 -0.2770600407 0.0000000000 0.0000000000 0.0000000000 -299.0454036493 -0.0068571143 -0.0434257268
0.4436273198 -0.2603675961 0.0000000000 0.0000000000 0.0000000000 -304.4865592760 -0.0068571143 -0.0434257268
0.4514240137 -0.2433717387 0.0000000000 0.0000000000 0.0000000000 -310.3193286599 -0.0068571143 -0.0434257268
0.4585797601 -0.2260962388 0.0000000000 0.0000000000 0.0000000000 -316.5393519057 -0.0068571143 -0.0434257268
0.4650845509 -0.2085652576 0.0000000000 0.0000000000 0.0000000000 -323.1703737627 -0.0068571143 -0.0434257268
0.4709292887 -0.1908033138 0.0000000000 0.0000000000 0.0000000000 -330.2564420682 -0.0068571143 -0.0434257268
0.4761057989 -0.1728352491 0.0000000000 0.0000000000 0.0000000000 -337.8589240482 -0.0068571143 -0.0434257268
0.4806068418 -0.1546861936 0.0000000000 0.0000000000 0.0000000000 -346.0534526572 -0.0068571143 -0.0434257268
0.4844261223 -0.1363815302 0.0000000000 0.0000000000 0.0000000000 -354.9263462104 -0.0068571143 -0.0434257268
0.4875582988 -0.1179468597 0.0000000000 0.0000000000 0.0000000000 -364.5679611545 -0.0068571143 -0.0434257268
0.4899989907 -0.0994079647 0.0000000000 0.0000000000 0.0000000000 -375.0625784461 -0.0068571143 -0.0434257268
0.4917447843 -0.0807907734 0.0000000000 0.0000000000 0.0000000000 -386.4750393550 -0.0068571143 -0.0434257268
0.4927932381 -0.0621213238 0.0000000000 0.0000000000 0.0000000000 -398.8357345756 -0.0068571143 -0.0434257268
0.4931428857 -0.0434257266 0.0000000000 0.0000000000 0.0000000000 -412.1261716243 -0.0068571143 -0.0434257268
0.4927932381 -0.0247301295 0.0000000000 0.0000000000 0.0000000000 -426.2677643869 -0.0068571143 -0.0434257268
0.4917447843 -0.0060606799 0.0000000000 0.0000000000 0.0000000000 -441.1161449162 -0.0068571143 -0.0434257268
0.4899989906 0.0125565114 0.0000000000 0.0000000000 0.0000000000 -456.4627362252 -0.0068571143 -0.0434257268
0.4875582988 0.0310954064 0.0000000000 0.0000000000 0.0000000000 -472.0439445019 -0.0068571143 -0.0434257268
0.4844261223 0.0495300769 0.0000000000 0.0000000000 0.0000000000 -487.5576314783 -0.0068571143 -0.0434257268
0.4806068417 0.0678347403 0.0000000000 0.0000000000 0.0000000000 -502.6844047425 -0.0068571143 -0.0434257268
0.4761057988 0.0859837959 0.0000000000 0.0000000000 0.0000000000 -517.1122718923 -0.0068571143 -0.0434257268
0.4709292885 0.1039518605 0.0000000000 0.0000000000 0.0000000000 -530.5594620318 -0.0068571143 -0.0434257268
0.4650845508 0.1217138043 0.0000000000 0.0000000000 0.0000000000 -542.7965701694 -0.0068571143 -0.0434257268
0.4585797600 0.1392447855 0.0000000000 0.0000000000 0.0000000000 -553.6584047794 -0.0068571143 -0.0434257268
0.4514240136 0.1565202854 0.0000000000 0.0000000000 0.0000000000 -563.0576029991 -0.0068571143 -0.0434257268
0.4436273196 0.1735161428 0.0000000000 0.0000000000 0.0000000000 -570.9754384592 -0.0068571143 -0.0434257268
0.4352005824 0.1902085874 0.0000000000 0.0000000000 0.0000000000 -577.4746048136 -0.0068571143 -0.0434257268
0.4261555875 0.2065742732 0.0000000000 0.0000000000 0.0000000000 -582.6564236782 -0.0068571143 -0.0434257268
0.4165049852 0.2225903115 0.0000000000 0.0000000000 0.0000000000 -586.7069040153 -0.0068571143 -0.0434257268
0.4062622728 0.2382343023 0.0000000000 0.0000000000 0.0000000000 -589.7798915965 -0.0068571143 -0.0434257268
0.3954417755 0.2534843660 0.0000000000 0.0000000000 0.0000000000 -592.1718121804 -0.0068571143 -0.0434257268
0.3840586269 0.2683191741 0.0000000000 0.0000000000 0.0000000000 -593.9871069458 -0.0068571143 -0.0434257268
0.3721287472 0.2827179788 0.0000000000 0.0000000000 0.0000000000 -595.7060195802 -0.0068571143 -0.0434257268
0.3596688216 0.2966606421 0.0000000000 0.0000000000 0.0000000000 -597.1816917230 -0.0068571143 -0.0434257268
0.3317836715 0.3244362285 0.0000000000 0.0000000000 0.0000000000 -601.7274434322 -0.0068571143 -0.0434257268
0.3162925046 0.3381163073 0.0000000000 0.0000000000 0.0000000000 -605.4038166096 -0.0068571143 -0.0434257268
0.3002492420 0.3511445279 0.0000000000 0.0000000000 0.0000000000 -609.8258122304 -0.0068571143 -0.0434257268
0.2836812933 0.3634986318 0.0000000000 0.0000000000 0.0000000000 -615.4900871293 -0.0068571143 -0.0434257268
0.2666169647 0.3751575123 0.0000000000 0.0000000000 0.0000000000 -622.1801392042 -0.0068571143 -0.0434257268
0.2490854102 0.3861012504 0.0000000000 0.0000000000 0.0000000000 -630.0139750282 -0.0068571143 -0.0434257268
0.2311165821 0.3963111488 0.0000000000 0.0000000000 0.0000000000 -638.8879719586 -0.0068571143 -0.0434257268
0.2127411800 0.4057697641 0.0000000000 0.0000000000 0.0000000000 -648.8245586867 -0.0068571143 -0.0434257268
0.1939905979 0.4144609365 0.0000000000 0.0000000000 0.0000000000 -659.7769946537 -0.0068571143 -0.0434257268
0.1748968709 0.4223698172 0.0000000000 0.0000000000 0.0000000000 -671.7207022566 -0.0068571143 -0.0434257268
0.1554926202 0.4294828940 0.0000000000 0.0000000000 0.0000000000 -684.5717641466 -0.0068571143 -0.0434257268
0.1358109977 0.4357880144 0.0000000000 0.0000000000 0.0000000000 -698.2046594553 -0.0068571143 -0.0434257268
0.1158856292 0.4412744061 0.0000000000 0.0000000000 0.0000000000 -712.4223953482 -0.0068571143 -0.0434257268
0.0957505567 0.4459326958 0.0000000000 0.0000000000 0.0000000000 -726.9628786573 -0.0068571143 -0.0434257268
0.0754401807 0.4497549249 0.0000000000 0.0000000000 0.0000000000 -741.4937667321 -0.0068571143 -0.0434257268
0.0549892012 0.4527345630 0.0000000000 0.0000000000 0.0000000000 -755.6212543496 -0.0068571143 -0.0434257268
0.0344325583 0.4548665197 0.0000000000 0.0000000000 0.0000000000 -768.8981479371 -0.0068571143 -0.0434257268
0.0138053727 0.4561471524 0.0000000000 0.0000000000 0.0000000000 -780.8385792328 -0.0068571143 -0.0434257268
-0.0068571144 0.4565742732 0.0000000000 0.0000000000 0.0000000000 -790.9342189712 -0.0068571143 -0.0434257268
-0.0275196015 0.4561471523 0.0000000000 0.0000000000 0.0000000000 -798.6730432996 -0.0068571143 -0.0434257268
-0.0481467872 0.4548665197 0.0000000000 0.0000000000 0.0000000000 -803.5580558984 -0.0068571143 -0.0434257268
-0.0687034301 0.4527345630 0.0000000000 0.0000000000 0.0000000000 -805.1252739674 -0.0068571143 -0.0434257268
-0.0891544096 0.4497549248 0.0000000000 0.0000000000 0.0000000000 -802.9595362621 -0.0068571143 -0.0434257268
-0.1094647855 0.4459326958 0.0000000000 0.0000000000 0.0000000000 -796.7075128700 -0.0068571143 -0.0434257268
-0.1295998580 0.4412744061 0.0000000000 0.0000000000 0.0000000000 -786.0873982682 -0.0068571143 -0.0434257268
-0.1495252266 0.4357880144 0.0000000000 0.0000000000 0.0000000000 -770.8952334715 -0.0068571143 -0.0434257268
-0.1692068490 0.4294828940 0.0000000000 0.0000000000 0.0000000000 -751.0080149734 -0.0068571143 -0.0434257268
-0.1886110997 0.4223698171 0.0000000000 0.0000000000 0.0000000000 -726.3839737810 -0.0068571143 -0.0434257268
-0.2077048268 0.4144609364 0.0000000000 0.0000000000 0.0000000000 -697.0605045909 -0.0068571143 -0.0434257268
-0.2264554089 0.4057697640 0.0000000000 0.0000000000 0.0000000000 -663.1502701131 -0.0068571143 -0.0434257268
-0.2448308110 0.3963111487 0.0000000000 0.0000000000 0.0000000000 -624.8359826610 -0.0068571143 -0.0434257268
-0.2627996390 0.3861012503 0.0000000000 0.0000000000 0.0000000000 -582.3643069297 -0.0068571143 -0.0434257268
-0.2803311935 0.3751575122 0.0000000000 0.0000000000 0.0000000000 -536.0392441656 -0.0068571143 -0.0434257268
-0.2973955221 0.3634986317 0.0000000000 0.0000000000 0.0000000000 -486.2152667225 -0.0068571143 -0.0434257268
-0.3139634708 0.3511445278 0.0000000000 0.0000000000 0.0000000000 -433.2903850567 -0.0068571143 -0.0434257268
-0.3300067334 0.3381163072 0.0000000000 0.0000000000 0.0000000000 -377.6992590352 -0.0068571143 -0.0434257268
-0.3454979002 0.3244362284 0.0000000000 0.0000000000 0.0000000000 -319.9064208158 -0.0068571143 -0.0434257268
-0.3747190698 0.2952150589 0.0000000000 0.0000000000 0.0000000000 -199.6836399212 -0.0068571143 -0.0434257268
-0.3883991485 0.2797238920 0.0000000000 0.0000000000 0.0000000000 -138.2737790372 -0.0068571143 -0.0434257268
-0.4014273691 0.2636806294 0.0000000000 0.0000000000 0.0000000000 -76.6905131839 -0.0068571143 -0.0434257268
-0.4137814731 0.2471126807 0.0000000000 0.0000000000 0.0000000000 -15.4539161713 -0.0068571143 -0.0434257268
-0.4254403535 0.2300483521 0.0000000000 0.0000000000 0.0000000000 44.9212802915 -0.0068571143 -0.0434257268
-0.4363840916 0.2125167976 0.0000000000 0.0000000000 0.0000000000 103.9303088499 -0.0068571143 -0.0434257268
-0.4465939900 0.1945479695 0.0000000000 0.0000000000 0.0000000000 161.0826651791 -0.0068571143 -0.0434257268
-0.4560526053 0.1761725674 0.0000000000 0.0000000000 0.0000000000 215.9061235070 -0.0068571143 -0.0434257268
-0.4647437777 0.1574219853 0.0000000000 0.0000000000 0.0000000000 267.9505003519 -0.0068571143 -0.0434257268
-0.4726526584 0.1383282583 0.0000000000 0.0000000000 0.0000000000 316.7911819466 -0.0068571143 -0.0434257268
-0.4797657352 0.1189240076 0.0000000000 0.0000000000 0.0000000000 362.0324225310 -0.0068571143 -0.0434257268
-0.4860708556 0.0992423851 0.0000000000 0.0000000000 0.0000000000 403.3104158477 -0.0068571143 -0.0434257268
-0.4915572473 0.0793170165 0.0000000000 0.0000000000 0.0000000000 440.2961317153 -0.0068571143 -0.0434257268
-0.4962155370 0.0591819441 0.0000000000 0.0000000000 0.0000000000 472.6979215093 -0.0068571143 -0.0434257268
-0.5000377661 0.0388715681 0.0000000000 0.0000000000 0.0000000000 500.2638604754 -0.0068571143 -0.0434257268
-0.5030174042 0.0184205886 0.0000000000 0.0000000000 0.0000000000 522.7838533838 -0.0068571143 -0.0434257268
-0.5051493608 -0.0021360543 0.0000000000 0.0000000000 0.0000000000 540.0913993046 -0.0068571143 -0.0434257268
-0.5064299935 -0.0227632399 0.0000000000 0.0000000000 0.0000000000 552.0651604295 -0.0068571143 -0.0434257268
-0.5068571143 -0.0434257270 0.0000000000 0.0000000000 0.0000000000 558.6299871375 -0.0068571143 -0.0434257268
-0.5064299935 -0.0640882142 0.0000000000 0.0000000000 0.0000000000 559.7580258767 -0.0068571143 -0.0434257268
-0.5051493608 -0.0847153998 0.0000000000 0.0000000000 0.0000000000 555.4686306974 -0.0068571143 -0.0434257268
-0.5030174042 -0.1052720427 0.0000000000 0.0000000000 0.0000000000 545.8295484655 -0.0068571143 -0.0434257268
-0.5000377660 -0.1257230222 0.0000000000 0.0000000000 0.0000000000 530.9544975903 -0.0068571143 -0.0434257268
-0.4962155369 -0.1460333982 0.0000000000 0.0000000000 0.0000000000 511.0066945050 -0.0068571143 -0.0434257268
-0.4915572472 -0.1661684706 0.0000000000 0.0000000000 0.0000000000 486.1895128982 -0.0068571143 -0.0434257268
-0.4860708555 -0.1860938392 0.0000000000 0.0000000000 0.0000000000 456.7613431610 -0.0068571143 -0.0434257268
-0.4797657351 -0.2057754617 0.0000000000 0.0000000000 0.0000000000 423.0012075941 -0.0068571143 -0.0434257268
-0.4726526583 -0.2251797123 0.0000000000 0.0000000000 0.0000000000 385.2720104122 -0.0068571143 -0.0434257268
-0.4647437776 -0.2442734394 0.0000000000 0.0000000000 0.0000000000 343.8843014496 -0.0068571143 -0.0434257268
-0.4560526052 -0.2630240215 0.0000000000 0.0000000000 0.0000000000 299.3699829727 -0.0068571143 -0.0434257268
-0.4465939898 -0.2813994236 0.0000000000 0.0000000000 0.0000000000 251.8943052066 -0.0068571143 -0.0434257268
-0.4363840914 -0.2993682516 0.0000000000 0.0000000000 0.0000000000 202.5198044397 -0.0068571143 -0.0434257268
-0.4254403533 -0.3168998061 0.0000000000 0.0000000000 0.0000000000 150.3860324647 -0.0068571143 -0.0434257268
-0.4137814728 -0.3339641347 0.0000000000 0.0000000000 0.0000000000 98.9671879082 -0.0068571143 -0.0434257268
-0.4014273689 -0.3505320834 0.0000000000 0.0000000000 0.0000000000 42.5389076178 -0.0068571143 -0.0434257268
-0.3883991483 -0.3665753460 0.0000000000 0.0000000000 0.0000000000 -27.1043582433 -0.0068571143 -0.0434257268
-0.3747190695 -0.3820665128 0.0000000000 0.0000000000 0.0000000000 -65.3249537934 -0.0068571143 -0.0434257268
-0.3454978999 -0.4112876824 0.0000000000 0.0000000000 0.0000000000 -169.0737705317 -0.0068571143 -0.0434257268
-0.3300067331 -0.4249677611 0.0000000000 0.0000000000 0.0000000000 -226.7783086144 -0.0068571143 -0.0434257268
-0.3139634705 -0.4379959817 0.0000000000 0.0000000000 0.0000000000 -257.9938755418 -0.0068571143 -0.0434257268
-0.2973955218 -0.4503500856 0.0000000000 0.0000000000 0.0000000000 -310.4489642543 -0.0068571143 -0.0434257268
-0.2803311932 -0.4620089661 0.0000000000 0.0000000000 0.0000000000 -344.2474531467 -0.0068571143 -0.0434257268
-0.2627996386 -0.4729527042 0.0000000000 0.0000000000 0.0000000000 -384.0221806889 -0.0068571143 -0.0434257268
-0.2448308106 -0.4831626026 0.0000000000 0.0000000000 0.0000000000 -414.3039162871 -0.0068571143 -0.0434257268
-0.2264554085 -0.4926212179 0.0000000000 0.0000000000 0.0000000000 -443.7566674888 -0.0068571143 -0.0434257268
-0.2077048264 -0.5013123903 0.0000000000 0.0000000000 0.0000000000 -466.8513133524 -0.0068571143 -0.0434257268
-0.1886110993 -0.5092212710 0.0000000000 0.0000000000 0.0000000000 -486.5926772915 -0.0068571143 -0.0434257268
-0.1692068487 -0.5163343478 0.0000000000 0.0000000000 0.0000000000 -501.0613864047 -0.0068571143 -0.0434257268
-0.1495252262 -0.5226394682 0.0000000000 0.0000000000 0.0000000000 -511.3980537390 -0.0068571143 -0.0434257268
-0.1295998576 -0.5281258599 0.0000000000 0.0000000000 0.0000000000 -517.0798699785 -0.0068571143 -0.0434257268
-0.1094647851 -0.5327841496 0.0000000000 0.0000000000 0.0000000000 -518.7114976323 -0.0068571143 -0.0434257268
-0.0891544092 -0.5366063786 0.0000000000 0.0000000000 0.0000000000 -516.3768472044 -0.0068571143 -0.0434257268
-0.0687034297 -0.5395860167 0.0000000000 0.0000000000 0.0000000000 -510.5941986536 -0.0068571143 -0.0434257268
-0.0481467868 -0.5417179734 0.0000000000 0.0000000000 0.0000000000 -501.7420219329 -0.0068571143 -0.0434257268
-0.0275196011 -0.5429986060 0.0000000000 0.0000000000 0.0000000000 -490.3680832288 -0.0068571143 -0.0434257268
-0.0068571140 -0.5434257268 0.0000000000 0.0000000000 0.0000000000 -476.9827639730 -0.0068571143 -0.0434257268
0.0138053731 -0.5429986060 0.0000000000 0.0000000000 0.0000000000 -462.1444714155 -0.0068571143 -0.0434257268
0.0344325587 -0.5417179733 0.0000000000 0.0000000000 0.0000000000 -446.3772315360 -0.0068571143 -0.0434257268
0.0549892016 -0.5395860167 0.0000000000 0.0000000000 0.0000000000 -430.1839343917 -0.0068571143 -0.0434257268
0.0754401811 -0.5366063785 0.0000000000 0.0000000000 0.0000000000 -414.0097283357 -0.0068571143 -0.0434257268
0.0957505571 -0.5327841494 0.0000000000 0.0000000000 0.0000000000 -398.2389917991 -0.0068571143 -0.0434257268
0.1158856296 -0.5281258597 0.0000000000 0.0000000000 0.0000000000 -383.1814917870 -0.0068571143 -0.0434257268
0.1358109981 -0.5226394680 0.0000000000 0.0000000000 0.0000000000 -369.0730537384 -0.0068571143 -0.0434257268
0.1554926206 -0.5163343476 0.0000000000 0.0000000000 0.0000000000 -356.0758420977 -0.0068571143 -0.0434257268
0.1748968713 -0.5092212707 0.0000000000 0.0000000000 0.0000000000 -344.2851485018 -0.0068571143 -0.0434257268
0.1939905983 -0.5013123900 0.0000000000 0.0000000000 0.0000000000 -333.7318733568 -0.0068571143 -0.0434257268
0.2127411804 -0.4926212176 0.0000000000 0.0000000000 0.0000000000 -324.3886020919 -0.0068571143 -0.0434257268
0.2311165825 -0.4831626023 0.0000000000 0.0000000000 0.0000000000 -316.1629804219 -0.0068571143 -0.0434257268
0.2490854105 -0.4729527039 0.0000000000 0.0000000000 0.0000000000 -308.9234926005 -0.0068571143 -0.0434257268
0.2666169650 -0.4620089658 0.0000000000 0.0000000000 0.0000000000 -302.4903911896 -0.0068571143 -0.0434257268
0.2836812937 -0.4503500853 0.0000000000 0.0000000000 0.0000000000 -296.7577671802 -0.0068571143 -0.0434257268
0.3002492423 -0.4379959813 0.0000000000 0.0000000000 0.0000000000 -291.5849636511 -0.0068571143 -0.0434257268
0.3162925049 -0.4249677607 0.0000000000 0.0000000000 0.0000000000 -287.1792275247 -0.0068571143 -0.0434257268
0.3317836718 -0.4112876819 0.0000000000 0.0000000000 0.0000000000 -283.3598625985 -0.0068571143 -0.0434257268
0.5424317309 -0.5551023328 0.0000000000 0.0761736858 -0.0287026712 -251.7180717480 -0.0073571734 -0.0449727799
0.5611360335 -0.5342154553 0.0000000000 0.0247118214 -0.0365340888 -249.4979633444 -0.0073427592 -0.0449998972
0.5790478516 -0.5126567466 0.0000000000 -0.0070061962 -0.0509835859 -248.5785164794 -0.0073257606 -0.0450393956
0.5961413555 -0.4904467818 0.0000000000 -0.0208377330 -0.0722754054 -249.1939576414 -0.0073069796 -0.0450816430
0.6123922799 -0.4676127520 0.0000000000 -0.0215956148 -0.0991034991 -251.3344589607 -0.0072868011 -0.0451227089
0.6277774674 -0.4441848001 0.0000000000 -0.0155324582 -0.1289976906 -254.8186446234 -0.0072656823 -0.0451607431
0.6422750062 -0.4201948211 0.0000000000 -0.0083621812 -0.1591444371 -259.4314538347 -0.0072440468 -0.0451948215
0.6558643295 -0.3956759518 0.0000000000 -0.0040456591 -0.1871111504 -265.0116948517 -0.0072222158 -0.0452244810
0.6685262544 -0.3706623031 0.0000000000 -0.0046622189 -0.2111856268 -271.4604363393 -0.0072003967 -0.0452494991
0.6802429894 -0.3451887955 0.0000000000 -0.0108748524 -0.2303919229 -278.7216654870 -0.0071787027 -0.0452697776
0.6909981308 -0.3192910471 0.0000000000 -0.0224499281 -0.2443519713 -286.7758390436 -0.0071571809 -0.0452852792
0.7007766615 -0.2930052881 0.0000000000 -0.0386295068 -0.2530998365 -295.6465998199 -0.0071358364 -0.0452959921
0.7095649548 -0.2663682900 0.0000000000 -0.0583697681 -0.2568984797 -305.4068729406 -0.0071146496 -0.0453019095
0.7173507823 -0.2394173017 0.0000000000 -0.0804910633 -0.2560934384 -316.1764627844 -0.0070935875 -0.0453030182
0.7241233229 -0.2121899906 0.0000000000 -0.1037668869 -0.2510259012 -328.1098299044 -0.0070726114 -0.0452992905
0.7298731722 -0.1847243849 0.0000000000 -0.1269731701 -0.2420057782 -341.3754352413 -0.0070516828 -0.0452906799
0.7345923500 -0.1570588186 0.0000000000 -0.1489195622 -0.2293265948 -356.1289924280 -0.0070307697 -0.0452771193
0.7382743057 -0.1292318778 0.0000000000 -0.1684796182 -0.2132983782 -372.4834145684 -0.0070098517 -0.0452585211
0.7409139229 -0.1012823491 0.0000000000 -0.1846278287 -0.1942798512 -390.4785707741 -0.0069889250 -0.0452347793
0.7425075221 -0.0732491697 0.0000000000 -0.1964829497 -0.1726998125 -410.0544009530 -0.0069680065 -0.0452057743
0.7430528630 -0.0451713797 0.0000000000 -0.2033517908 -0.1490644706 -431.0313573660 -0.0069471370 -0.0451713800
0.7425491460 -0.0170880765 0.0000000000 -0.2047657310 -0.1239515653 -453.1020758090 -0.0069263826 -0.0451314725
0.7409970117 0.0109616291 0.0000000000 -0.2005031502 -0.0979941809 -475.8371709306 -0.0069058362 -0.0450859414
0.7383985398 0.0389386554 0.0000000000 -0.1905939302 -0.0718581281 -498.7060492920 -0.0068856175 -0.0450347019
0.7347572463 0.0668039919 0.0000000000 -0.1753061443 -0.0462169093 -521.1111108185 -0.0068658733 -0.0449777080
0.7300780784 0.0945187406 0.0000000000 -0.1551184881 -0.0217275429 -542.4314338748 -0.0068467765 -0.0449149651
0.7243674086 0.1220441586 0.0000000000 -0.1306834588 0.0009908702 -562.0706636433 -0.0068285255 -0.0448465421
0.7176330283 0.1493417030 0.0000000000 -0.1027852854 0.0213753549 -579.5035397413 -0.0068113413 -0.0447725811
0.7098841410 0.1763730763 0.0000000000 -0.0722941423 0.0389342159 -594.3160292858 -0.0067954633 -0.0446933048
0.7011313567 0.2031002765 0.0000000000 -0.0401160353 0.0532589919 -606.2349739149 -0.0067811410 -0.0446090201
0.6913866885 0.2294856499 0.0000000000 -0.0071369939 0.0640322901 -615.1443651159 -0.0067686229 -0.0445201186
0.6806635509 0.2554919471 0.0000000000 0.0258399713 0.0710303624 -621.0869467084 -0.0067581409 -0.0444270713
0.6689767622 0.2810823855 0.0000000000 0.0581686651 0.0741205550 -624.2518207090 -0.0067498887 -0.0443304190
0.6563425474 0.3062207156 0.0000000000 0.0894533865 0.0732570754 -624.9507324724 -0.0067439977 -0.0442307558
0.6427785406 0.3308712959 0.0000000000 0.1196784625 0.0684837718 -623.5870953193 -0.0067405121 -0.0441287042
0.6283037772 0.3549991724 0.0000000000 0.1493864235 0.0599578126 -620.6219758219 -0.0067393721 -0.0440248851
0.6129386624 0.3785701577 0.0000000000 0.1798844725 0.0480071428 -616.5398583703 -0.0067404182 -0.0439198860
0.5967049090 0.4015508922 0.0000000000 0.2133854585 0.0332178579 -611.8145340650 -0.0067434258 -0.0438142471
0.5796254494 0.4239088513 0.0000000000 0.2529120565 0.0165129138 -606.8740399500 -0.0067481623 -0.0437085002
0.5617243564 0.4456122127 0.0000000000 0.3018064372 -0.0008472357 -602.0664792610 -0.0067544359 -0.0436033459
0.5430268902 0.4666293504 0.0000000000 0.3628659620 -0.0173971449 -597.6315160851 -0.0067620137 -0.0435002030
0.5011600885 0.5085047777 0.0000000000 0.5345587467 -0.0435521921 -590.0092358615 -0.0068010901 -0.0432881553
0.4778910661 0.5291220222 0.0000000000 0.6433720456 -0.0502239506 -586.9051704670 -0.0068333622 -0.0431910290
0.4537925379 0.5487506480 0.0000000000 0.7579836600 -0.0515000936 -584.2683387255 -0.0068669965 -0.0431047341
0.4289056586 0.5673590148 0.0000000000 0.8719840758 -0.0475830857 -581.9571889880 -0.0069019528 -0.0430275232
0.4032730326 0.5849162863 0.0000000000 0.9795409288 -0.0390297988 -579.7959513964 -0.0069380859 -0.0429585725
0.3769384415 0.6013929934 0.0000000000 1.0761542503 -0.0266154475 -577.6081127387 -0.0069753452 -0.0428974724
0.3499468085 0.6167612005 0.0000000000 1.1589987608 -0.0112150109 -575.2435187575 -0.0070137362 -0.0428441129
0.3223441732 0.6309946058 0.0000000000 1.2269314750 0.0063154391 -572.5939689072 -0.0070532684 -0.0427986306
0.2941776506 0.6440686654 0.0000000000 1.2802441176 0.0252388104 -569.5925434382 -0.0070939178 -0.0427613297
0.2654953640 0.6559607200 0.0000000000 1.3202596223 0.0449974688 -566.2011354450 -0.0071356139 -0.0427325961
0.2363463581 0.6666501043 0.0000000000 1.3488838482 0.0652273837 -562.3935371052 -0.0071782437 -0.0427128270
0.2067805058 0.6761182324 0.0000000000 1.3682065476 0.0857347540 -558.1395580123 -0.0072216623 -0.0427023795
0.1768484146 0.6843486635 0.0000000000 1.3802069418 0.1064514405 -553.3930742468 -0.0072657007 -0.0427015360
0.1466013376 0.6913271536 0.0000000000 1.3865782944 0.1273851256 -548.0851774240 -0.0073101690 -0.0427104804
0.1160910885 0.6970416932 0.0000000000 1.3886562605 0.1485753346 -542.1224461914 -0.0073548541 -0.0427292844
0.0853699584 0.7014825318 0.0000000000 1.3874215144 0.1700607011 -535.3895154745 -0.0073995150 -0.0427579030
0.0544906321 0.7046421898 0.0000000000 1.3835455666 0.1918582699 -527.7546095433 -0.0074438768 -0.0427961800
0.0235061023 0.7065154584 0.0000000000 1.3774545398 0.2139529416 -519.0765989291 -0.0074876283 -0.0428438604
-0.0075304213 0.7070993931 0.0000000000 1.3693940842 0.2362941879 -509.2123618105 -0.0075304212 -0.0429006069
-0.0385656058 0.7063933034 0.0000000000 1.3594863515 0.2587972960 -498.0236127364 -0.0075718750 -0.0429660153
-0.0695460938 0.7043987426 0.0000000000 1.3477755951 0.2813470344 -485.3827494244 -0.0076115846 -0.0430396272
-0.1004186034 0.7011195002 0.0000000000 1.3342623694 0.3038023477 -471.1775693364 -0.0076491298 -0.0431209346
-0.1311300296 0.6965615969 0.0000000000 1.3189279388 0.3260012818 -455.3148949821 -0.0076840867 -0.0432093806
-0.1616275456 0.6907332804 0.0000000000 1.3017510071 0.3477657465 -437.7232359539 -0.0077160388 -0.0433043536
-0.1918587028 0.6836450194 0.0000000000 1.2827187668 0.3689059662 -418.3546381899 -0.0077445873 -0.0434051800
-0.2217715300 0.6753094957 0.0000000000 1.2618339103 0.3892245931 -397.1858575793 -0.0077693616 -0.0435111161
-0.2513146312 0.6657415906 0.0000000000 1.2391188365 0.4085205066 -374.2189682344 -0.0077900291 -0.0436213406
-0.2804372821 0.6549583682 0.0000000000 1.2146179328 0.4265923324 -349.4814890757 -0.0078063040 -0.0437349478
-0.3090895253 0.6429790532 0.0000000000 1.1883985316 0.4432417100 -323.0260921001 -0.0078179566 -0.0438509417
-0.3372222617 0.6298250078 0.0000000000 1.1605509456 0.4582763222 -294.9299436193 -0.0078248199 -0.0439682286
-0.3647873388 0.6155197092 0.0000000000 1.1311878490 0.4715126938 -265.2937239266 -0.0078267939 -0.0440856041
-0.3917376313 0.6000887362 0.0000000000 1.1004431877 0.4827787551 -234.2403747903 -0.0078238443 -0.0442017295
-0.4180271094 0.5835597820 0.0000000000 1.0684707516 0.4919161557 -201.9136169646 -0.0078159906 -0.0443150766
-0.4436108827 0.5659627374 0.0000000000 1.0354425492 0.4987823157 -168.4763764519 -0.0078032710 -0.0444238005
-0.4684451870 0.5473299719 0.0000000000 1.0015470975 0.5032520969 -134.1089849407 -0.0077856523 -0.0445254100
-0.4924872425 0.5276972374 0.0000000000 0.9669884536 0.5052192105 -99.0089543927 -0.0077628139 -0.0446158136
-0.5156948994 0.5071067720 0.0000000000 0.9319855252 0.5045951749 -63.3863333905 -0.0077337205 -0.0446861608
-0.5594659494 0.4630760880 0.0000000000 0.8614121746 0.4954422615 8.5914821410 -0.0076730162 -0.0448850906
-0.5799569373 0.4397050282 0.0000000000 0.8263035371 0.4868184979 44.5325851099 -0.0076438860 -0.0450194000
-0.5994659135 0.4155249063 0.0000000000 0.7916672318 0.4754690894 80.1062640792 -0.0076105313 -0.0451346280
-0.6179607973 0.3905705766 0.0000000000 0.7577328337 0.4614259530 115.0843675717 -0.0075742592 -0.0452370347
-0.6354108005 0.3648822490 0.0000000000 0.7247296458 0.4447401475 149.2382007143 -0.0075359417 -0.0453288694
-0.6517865873 0.3385026726 0.0000000000 0.6928833145 0.4254834139 182.3424231167 -0.0074961214 -0.0454111140
-0.6670604793 0.3114762556 0.0000000000 0.6624127109 0.4037482580 214.1776351318 -0.0074551658 -0.0454842890
-0.6812065782 0.2838487169 0.0000000000 0.6335276847 0.3796471632 244.5326013330 -0.0074133416 -0.0455487245
-0.6942008411 0.2556669074 0.0000000000 0.6064270775 0.3533115347 273.2062514323 -0.0073708460 -0.0456046609
-0.7060211384 0.2269786925 0.0000000000 0.5812969530 0.3248904409 300.0094969844 -0.0073278222 -0.0456522852
-0.7166473000 0.1978328579 0.0000000000 0.5583090017 0.2945492171 324.7668757425 -0.0072843687 -0.0456917437
-0.7260611584 0.1682790238 0.0000000000 0.5376191270 0.2624679661 347.3180246783 -0.0072405465 -0.0457231442
-0.7342465866 0.1383675595 0.0000000000 0.5193662444 0.2288399801 367.5189849719 -0.0071963871 -0.0457465556
-0.7411895350 0.1081494972 0.0000000000 0.5036713281 0.1938700900 385.2433482507 -0.0071519009 -0.0457620092
-0.7468780660 0.0776764423 0.0000000000 0.4906367094 0.1577729250 400.3832549273 -0.0071070884 -0.0457695001
-0.7513023870 0.0470004801 0.0000000000 0.4803455708 0.1207710607 412.8502433492 -0.0070619521 -0.0457689931
-0.7544548811 0.0161740790 0.0000000000 0.4728615320 0.0830930658 422.5759260311 -0.0070165113 -0.0457604298
-0.7563301344 -0.0147500087 0.0000000000 0.4682282390 0.0449715048 429.5124579137 -0.0069708156 -0.0457437391
-0.7569249581 -0.0457188489 0.0000000000 0.4664689642 0.0066409804 433.6327828745 -0.0069249581 -0.0457188486
-0.7562384031 -0.0766794299 0.0000000000 0.4675863151 -0.0316637349 434.9306881718 -0.0068790843 -0.0456856989
-0.7542717666 -0.1075787686 0.0000000000 0.4715621080 -0.0697094635 433.4206943084 -0.0068333969 -0.0456442592