 TITLE = "Tecplot data"
 VARIABLES = "X", "Y", "Z" "U", "V", "p", "dispX", "dispY"
 ZONE SOLUTIONTIME=19.900000, NODES=26114 , ELEMENTS=25916, DATAPACKING=POINT, ZONETYPE=FEQUADRILATERAL
0.3366189527 0.3714089595 0.0000000000 0.0000000000 0.0000000000 -324.1268030312 -0.0169344378 0.0178555688
0.3366189530 -0.3356978215 0.0000000000 0.0000000000 0.0000000000 -232.0480781570 -0.0169344378 0.0178555688
-0.3704878285 0.3714089593 0.0000000000 0.0000000000 0.0000000000 -149.6804847712 -0.0169344378 0.0178555688
-0.3704878282 -0.3356978219 0.0000000000 0.0000000000 0.0000000000 -54.9316014031 -0.0169344378 0.0178555688
0.5136978283 0.5481049164 0.0000000000 0.1078029759 0.0651755014 -312.7846185059 -0.0166322575 0.0177748304
0.5130929705 -0.5120059960 0.0000000000 0.0581145885 0.0120863758 -226.0833814207 -0.0172371158 0.0183240895
-0.5474626391 0.5485119513 0.0000000000 0.8439336942 0.4993056696 41.5735497974 -0.0171325530 0.0181818656
-0.5474090346 -0.5121911081 0.0000000000 0.8014940683 -0.4654316969 99.8665695176 -0.0170789490 0.0181389780
1.0440318124 1.0787060625 0.0000000000 1.2843342600 0.0700331085 -333.6889718935 -0.0166283593 0.0180458906
1.0434581311 -1.0425324315 0.0000000000 1.1352056884 -0.1983806443 -127.9834820562 -0.0172020414 0.0181277395
-1.0777738856 1.0797999320 0.0000000000 0.9328642336 0.1858813868 69.6136031525 -0.0171137135 0.0191397605
-1.0779028193 -1.0416941732 0.0000000000 0.9110951365 -0.1771958168 102.3018454589 -0.0172426481 0.0189659991
4.1857163648 3.3157469933 0.0000000000 1.1007301669 -0.0173789868 -38.3794555501 -0.0142836352 0.0157469933
4.1827965614 -3.2843230754 0.0000000000 1.0679617657 0.0713847088 -52.1028071132 -0.0172034386 0.0156769246
20.0000000000 4.7000000000 0.0000000000 0.9993510234 -0.0037216726 0.0048046064 0.0000000000 0.0000000000
20.0000000000 -4.7000000000 0.0000000000 0.9998792174 0.0036842082 0.0041864647 0.0000000000 0.0000000000
-10.0000000000 15.0000000000 0.0000000000 1.0000000000 0.0000000000 3.8653763212 0.0000000000 0.0000000000
20.0000000000 15.0000000000 0.0000000000 1.0012006631 0.0000000000 -0.0030149696 0.0000000000 0.0000000000
20.0000000000 -15.0000000000 0.0000000000 1.0015699217 0.0000000000 -0.0028788062 0.0000000000 0.0000000000
-10.0000000000 -15.0000000000 0.0000000000 1.0000000000 0.0000000000 10.1173447390 0.0000000000 0.0000000000
0.3495914983 -0.3222307998 0.0000000000 0.0000000000 0.0000000000 -230.5715474975 -0.0169344378 0.0178555688
0.3620514240 -0.3082881365 0.0000000000 0.0000000000 0.0000000000 -229.3135120156 -0.0169344378 0.0178555688
0.3739813036 -0.2938893318 0.0000000000 0.0000000000 0.0000000000 -228.5228002741 -0.0169344378 0.0178555688
0.3853644523 -0.2790545237 0.0000000000 0.0000000000 0.0000000000 -228.1237426508 -0.0169344378 0.0178555688
0.3961849495 -0.2638044599 0.0000000000 0.0000000000 0.0000000000 -228.1904752332 -0.0169344378 0.0178555688
0.4064276620 -0.2481604692 0.0000000000 0.0000000000 0.0000000000 -228.7056119855 -0.0169344378 0.0178555688
0.4160782642 -0.2321444309 0.0000000000 0.0000000000 0.0000000000 -229.6811066937 -0.0169344378 0.0178555688
0.4251232591 -0.2157787450 0.0000000000 0.0000000000 0.0000000000 -231.1050198906 -0.0169344378 0.0178555688
0.4335499963 -0.1990863005 0.0000000000 0.0000000000 0.0000000000 -232.9706259701 -0.0169344378 0.0178555688
0.4413466902 -0.1820904431 0.0000000000 0.0000000000 0.0000000000 -235.2657411741 -0.0169344378 0.0178555688
0.4485024366 -0.1648149431 0.0000000000 0.0000000000 0.0000000000 -237.9792691825 -0.0169344378 0.0178555688
0.4550072274 -0.1472839619 0.0000000000 0.0000000000 0.0000000000 -241.0980621707 -0.0169344378 0.0178555688
0.4608519651 -0.1295220181 0.0000000000 0.0000000000 0.0000000000 -244.6070114153 -0.0169344378 0.0178555688
0.4660284754 -0.1115539535 0.0000000000 0.0000000000 0.0000000000 -248.4866383056 -0.0169344378 0.0178555688
0.4705295183 -0.0934048979 0.0000000000 0.0000000000 0.0000000000 -252.7114164602 -0.0169344378 0.0178555688
0.4743487988 -0.0751002345 0.0000000000 0.0000000000 0.0000000000 -257.2477796860 -0.0169344378 0.0178555688
0.4774809753 -0.0566655640 0.0000000000 0.0000000000 0.0000000000 -262.0528020675 -0.0169344378 0.0178555688
0.4799216671 -0.0381266690 0.0000000000 0.0000000000 0.0000000000 -267.0734734520 -0.0169344378 0.0178555688
0.4816674608 -0.0195094777 0.0000000000 0.0000000000 0.0000000000 -272.2469064641 -0.0169344378 0.0178555688
0.4827159146 -0.0008400281 0.0000000000 0.0000000000 0.0000000000 -277.5014792629 -0.0169344378 0.0178555688
0.4830655622 0.0178555690 0.0000000000 0.0000000000 0.0000000000 -282.7589200672 -0.0169344378 0.0178555688
0.4827159146 0.0365511662 0.0000000000 0.0000000000 0.0000000000 -287.9372074795 -0.0169344378 0.0178555688
0.4816674608 0.0552206158 0.0000000000 0.0000000000 0.0000000000 -292.9540347597 -0.0169344378 0.0178555688
0.4799216671 0.0738378071 0.0000000000 0.0000000000 0.0000000000 -297.7306235113 -0.0169344378 0.0178555688
0.4774809753 0.0923767021 0.0000000000 0.0000000000 0.0000000000 -302.1954107343 -0.0169344378 0.0178555688
0.4743487988 0.1108113726 0.0000000000 0.0000000000 0.0000000000 -306.2875592856 -0.0169344378 0.0178555688
0.4705295182 0.1291160360 0.0000000000 0.0000000000 0.0000000000 -309.9594804081 -0.0169344378 0.0178555688
0.4660284753 0.1472650915 0.0000000000 0.0000000000 0.0000000000 -313.1790993446 -0.0169344378 0.0178555688
0.4608519650 0.1652331562 0.0000000000 0.0000000000 0.0000000000 -315.9299878965 -0.0169344378 0.0178555688
0.4550072273 0.1829950999 0.0000000000 0.0000000000 0.0000000000 -318.2125283165 -0.0169344378 0.0178555688
0.4485024365 0.2005260811 0.0000000000 0.0000000000 0.0000000000 -320.0404253572 -0.0169344378 0.0178555688
0.4413466901 0.2178015811 0.0000000000 0.0000000000 0.0000000000 -321.4432075213 -0.0169344378 0.0178555688
0.4335499961 0.2347974385 0.0000000000 0.0000000000 0.0000000000 -322.4562205132 -0.0169344378 0.0178555688
0.4251232589 0.2514898831 0.0000000000 0.0000000000 0.0000000000 -323.1322206519 -0.0169344378 0.0178555688
0.4160782640 0.2678555689 0.0000000000 0.0000000000 0.0000000000 -323.5146588335 -0.0169344378 0.0178555688
0.4064276617 0.2838716072 0.0000000000 0.0000000000 0.0000000000 -323.6806920150 -0.0169344378 0.0178555688
0.3961849493 0.2995155979 0.0000000000 0.0000000000 0.0000000000 -323.6627822195 -0.0169344378 0.0178555688
0.3853644520 0.3147656617 0.0000000000 0.0000000000 0.0000000000 -323.5885350663 -0.0169344378 0.0178555688
0.3739813034 0.3296004698 0.0000000000 0.0000000000 0.0000000000 -323.4373844854 -0.0169344378 0.0178555688
0.3620514237 0.3439992745 0.0000000000 0.0000000000 0.0000000000 -323.4737031173 -0.0169344378 0.0178555688
0.3495914981 0.3579419378 0.0000000000 0.0000000000 0.0000000000 -323.4889269206 -0.0169344378 0.0178555688
0.3217063479 0.3857175242 0.0000000000 0.0000000000 0.0000000000 -324.8075924677 -0.0169344378 0.0178555688
0.3062151811 0.3993976030 0.0000000000 0.0000000000 0.0000000000 -326.4572726615 -0.0169344378 0.0178555688
0.2901719185 0.4124258236 0.0000000000 0.0000000000 0.0000000000 -328.5801463627 -0.0169344378 0.0178555688
0.2736039698 0.4247799275 0.0000000000 0.0000000000 0.0000000000 -331.5806775338 -0.0169344378 0.0178555688
0.2565396412 0.4364388080 0.0000000000 0.0000000000 0.0000000000 -335.2849258468 -0.0169344378 0.0178555688
0.2390080867 0.4473825461 0.0000000000 0.0000000000 0.0000000000 -339.8162672224 -0.0169344378 0.0178555688
0.2210392586 0.4575924445 0.0000000000 0.0000000000 0.0000000000 -345.1165175748 -0.0169344378 0.0178555688
0.2026638565 0.4670510598 0.0000000000 0.0000000000 0.0000000000 -351.2454069896 -0.0169344378 0.0178555688
0.1839132744 0.4757422322 0.0000000000 0.0000000000 0.0000000000 -358.2208769898 -0.0169344378 0.0178555688
0.1648195474 0.4836511129 0.0000000000 0.0000000000 0.0000000000 -366.1024662681 -0.0169344378 0.0178555688
0.1454152967 0.4907641897 0.0000000000 0.0000000000 0.0000000000 -374.9228364883 -0.0169344378 0.0178555688
0.1257336742 0.4970693101 0.0000000000 0.0000000000 0.0000000000 -384.6996417187 -0.0169344378 0.0178555688
0.1058083057 0.5025557018 0.0000000000 0.0000000000 0.0000000000 -395.4042514508 -0.0169344378 0.0178555688
0.0856732332 0.5072139915 0.0000000000 0.0000000000 0.0000000000 -406.9596601419 -0.0169344378 0.0178555688
0.0653628572 0.5110362206 0.0000000000 0.0000000000 0.0000000000 -419.2272582522 -0.0169344378 0.0178555688
0.0449118777 0.5140158587 0.0000000000 0.0000000000 0.0000000000 -432.0043460928 -0.0169344378 0.0178555688
0.0243552348 0.5161478153 0.0000000000 0.0000000000 0.0000000000 -445.0205889287 -0.0169344378 0.0178555688
0.0037280492 0.5174284480 0.0000000000 0.0000000000 0.0000000000 -457.9408174350 -0.0169344378 0.0178555688
-0.0169344379 0.5178555688 0.0000000000 0.0000000000 0.0000000000 -470.3710649991 -0.0169344378 0.0178555688
-0.0375969251 0.5174284480 0.0000000000 0.0000000000 0.0000000000 -481.8698267016 -0.0169344378 0.0178555688
-0.0582241107 0.5161478153 0.0000000000 0.0000000000 0.0000000000 -491.9629208127 -0.0169344378 0.0178555688
-0.0787807536 0.5140158587 0.0000000000 0.0000000000 0.0000000000 -500.1614355783 -0.0169344378 0.0178555688
-0.0992317331 0.5110362205 0.0000000000 0.0000000000 0.0000000000 -505.9810801752 -0.0169344378 0.0178555688
-0.1195421090 0.5072139915 0.0000000000 0.0000000000 0.0000000000 -508.9615952408 -0.0169344378 0.0178555688
-0.1396771815 0.5025557018 0.0000000000 0.0000000000 0.0000000000 -508.6847523278 -0.0169344378 0.0178555688
-0.1596025501 0.4970693100 0.0000000000 0.0000000000 0.0000000000 -504.7898513700 -0.0169344378 0.0178555688
-0.1792841725 0.4907641896 0.0000000000 0.0000000000 0.0000000000 -496.9859315859 -0.0169344378 0.0178555688
-0.1986884232 0.4836511128 0.0000000000 0.0000000000 0.0000000000 -485.0603334311 -0.0169344378 0.0178555688
-0.2177821503 0.4757422321 0.0000000000 0.0000000000 0.0000000000 -468.8835962281 -0.0169344378 0.0178555688
-0.2365327324 0.4670510597 0.0000000000 0.0000000000 0.0000000000 -448.4109683425 -0.0169344378 0.0178555688
-0.2549081345 0.4575924444 0.0000000000 0.0000000000 0.0000000000 -423.6809935189 -0.0169344378 0.0178555688
-0.2728769625 0.4473825459 0.0000000000 0.0000000000 0.0000000000 -394.8117326208 -0.0169344378 0.0178555688
-0.2904085170 0.4364388079 0.0000000000 0.0000000000 0.0000000000 -361.9951918832 -0.0169344378 0.0178555688
-0.3074728456 0.4247799274 0.0000000000 0.0000000000 0.0000000000 -325.4904823979 -0.0169344378 0.0178555688
-0.3240407943 0.4124258234 0.0000000000 0.0000000000 0.0000000000 -285.6161547210 -0.0169344378 0.0178555688
-0.3400840569 0.3993976028 0.0000000000 0.0000000000 0.0000000000 -242.7420617871 -0.0169344378 0.0178555688
-0.3555752237 0.3857175241 0.0000000000 0.0000000000 0.0000000000 -197.2810210848 -0.0169344378 0.0178555688
-0.3847963933 0.3564963545 0.0000000000 0.0000000000 0.0000000000 -100.4143868434 -0.0169344378 0.0178555688
-0.3984764720 0.3410051876 0.0000000000 0.0000000000 0.0000000000 -49.9753092417 -0.0169344378 0.0178555688
-0.4115046926 0.3249619251 0.0000000000 0.0000000000 0.0000000000 1.1329129326 -0.0169344378 0.0178555688
-0.4238587966 0.3083939764 0.0000000000 0.0000000000 0.0000000000 52.4020615748 -0.0169344378 0.0178555688
-0.4355176770 0.2913296478 0.0000000000 0.0000000000 0.0000000000 103.3258401861 -0.0169344378 0.0178555688
-0.4464614151 0.2737980932 0.0000000000 0.0000000000 0.0000000000 153.4056134067 -0.0169344378 0.0178555688
-0.4566713135 0.2558292652 0.0000000000 0.0000000000 0.0000000000 202.1556180096 -0.0169344378 0.0178555688
-0.4661299288 0.2374538631 0.0000000000 0.0000000000 0.0000000000 249.1076991878 -0.0169344378 0.0178555688
-0.4748211012 0.2187032810 0.0000000000 0.0000000000 0.0000000000 293.8156206967 -0.0169344378 0.0178555688
-0.4827299819 0.1996095539 0.0000000000 0.0000000000 0.0000000000 335.8589931495 -0.0169344378 0.0178555688
-0.4898430587 0.1802053033 0.0000000000 0.0000000000 0.0000000000 374.8468396559 -0.0169344378 0.0178555688
-0.4961481791 0.1605236808 0.0000000000 0.0000000000 0.0000000000 410.4208203625 -0.0169344378 0.0178555688
-0.5016345708 0.1405983122 0.0000000000 0.0000000000 0.0000000000 442.2581010279 -0.0169344378 0.0178555688
-0.5062928605 0.1204632397 0.0000000000 0.0000000000 0.0000000000 470.0738985111 -0.0169344378 0.0178555688
-0.5101150896 0.1001528638 0.0000000000 0.0000000000 0.0000000000 493.6236366277 -0.0169344378 0.0178555688
-0.5130947277 0.0797018843 0.0000000000 0.0000000000 0.0000000000 512.7048353435 -0.0169344378 0.0178555688
-0.5152266843 0.0591452414 0.0000000000 0.0000000000 0.0000000000 527.1585006048 -0.0169344378 0.0178555688
-0.5165073170 0.0385180558 0.0000000000 0.0000000000 0.0000000000 536.8704601851 -0.0169344378 0.0178555688
-0.5169344378 0.0178555686 0.0000000000 0.0000000000 0.0000000000 541.7718135202 -0.0169344378 0.0178555688
-0.5165073170 -0.0028069185 0.0000000000 0.0000000000 0.0000000000 541.8400642830 -0.0169344378 0.0178555688
-0.5152266843 -0.0234341041 0.0000000000 0.0000000000 0.0000000000 537.0979934498 -0.0169344378 0.0178555688
-0.5130947277 -0.0439907470 0.0000000000 0.0000000000 0.0000000000 527.6157595187 -0.0169344378 0.0178555688
-0.5101150895 -0.0644417265 0.0000000000 0.0000000000 0.0000000000 513.5059526840 -0.0169344378 0.0178555688
-0.5062928604 -0.0847521025 0.0000000000 0.0000000000 0.0000000000 494.9308111263 -0.0169344378 0.0178555688
-0.5016345707 -0.1048871749 0.0000000000 0.0000000000 0.0000000000 472.0856051852 -0.0169344378 0.0178555688
-0.4961481790 -0.1248125435 0.0000000000 0.0000000000 0.0000000000 445.2254172259 -0.0169344378 0.0178555688
-0.4898430586 -0.1444941660 0.0000000000 0.0000000000 0.0000000000 414.6099630908 -0.0169344378 0.0178555688
-0.4827299818 -0.1638984167 0.0000000000 0.0000000000 0.0000000000 380.6004145679 -0.0169344378 0.0178555688
-0.4748211011 -0.1829921437 0.0000000000 0.0000000000 0.0000000000 343.4710134605 -0.0169344378 0.0178555688
-0.4661299287 -0.2017427258 0.0000000000 0.0000000000 0.0000000000 303.7539168899 -0.0169344378 0.0178555688
-0.4566713133 -0.2201181279 0.0000000000 0.0000000000 0.0000000000 261.5826122632 -0.0169344378 0.0178555688
-0.4464614149 -0.2380869559 0.0000000000 0.0000000000 0.0000000000 217.9164526501 -0.0169344378 0.0178555688
-0.4355176768 -0.2556185104 0.0000000000 0.0000000000 0.0000000000 172.2227694305 -0.0169344378 0.0178555688
-0.4238587963 -0.2726828391 0.0000000000 0.0000000000 0.0000000000 126.8306753229 -0.0169344378 0.0178555688
-0.4115046924 -0.2892507877 0.0000000000 0.0000000000 0.0000000000 78.7409204346 -0.0169344378 0.0178555688
-0.3984764718 -0.3052940503 0.0000000000 0.0000000000 0.0000000000 34.8018304588 -0.0169344378 0.0178555688
-0.3847963930 -0.3207852172 0.0000000000 0.0000000000 0.0000000000 -15.7917272752 -0.0169344378 0.0178555688
-0.3555752234 -0.3500063867 0.0000000000 0.0000000000 0.0000000000 -105.4935584463 -0.0169344378 0.0178555688
-0.3400840566 -0.3636864654 0.0000000000 0.0000000000 0.0000000000 -140.3250772730 -0.0169344378 0.0178555688
-0.3240407940 -0.3767146860 0.0000000000 0.0000000000 0.0000000000 -183.2844770846 -0.0169344378 0.0178555688
-0.3074728453 -0.3890687900 0.0000000000 0.0000000000 0.0000000000 -217.0564308220 -0.0169344378 0.0178555688
-0.2904085167 -0.4007276704 0.0000000000 0.0000000000 0.0000000000 -251.7417008398 -0.0169344378 0.0178555688
-0.2728769621 -0.4116714085 0.0000000000 0.0000000000 0.0000000000 -280.7383280777 -0.0169344378 0.0178555688
-0.2549081341 -0.4218813069 0.0000000000 0.0000000000 0.0000000000 -307.5155420986 -0.0169344378 0.0178555688
-0.2365327320 -0.4313399222 0.0000000000 0.0000000000 0.0000000000 -329.7093776527 -0.0169344378 0.0178555688
-0.2177821499 -0.4400310946 0.0000000000 0.0000000000 0.0000000000 -348.5052045101 -0.0169344378 0.0178555688
-0.1986884228 -0.4479399753 0.0000000000 0.0000000000 0.0000000000 -363.1251674507 -0.0169344378 0.0178555688
-0.1792841722 -0.4550530521 0.0000000000 0.0000000000 0.0000000000 -374.0702601790 -0.0169344378 0.0178555688
-0.1596025497 -0.4613581725 0.0000000000 0.0000000000 0.0000000000 -381.2198202764 -0.0169344378 0.0178555688
-0.1396771811 -0.4668445642 0.0000000000 0.0000000000 0.0000000000 -384.9399237451 -0.0169344378 0.0178555688
-0.1195421086 -0.4715028539 0.0000000000 0.0000000000 0.0000000000 -385.4289714410 -0.0169344378 0.0178555688
-0.0992317327 -0.4753250829 0.0000000000 0.0000000000 0.0000000000 -383.0841029579 -0.0169344378 0.0178555688
-0.0787807532 -0.4783047211 0.0000000000 0.0000000000 0.0000000000 -378.2710737548 -0.0169344378 0.0178555688
-0.0582241103 -0.4804366777 0.0000000000 0.0000000000 0.0000000000 -371.4333734727 -0.0169344378 0.0178555688
-0.0375969246 -0.4817173104 0.0000000000 0.0000000000 0.0000000000 -363.0037729336 -0.0169344378 0.0178555688
-0.0169344375 -0.4821444312 0.0000000000 0.0000000000 0.0000000000 -353.4266007561 -0.0169344378 0.0178555688
0.0037280496 -0.4817173103 0.0000000000 0.0000000000 0.0000000000 -343.1178660377 -0.0169344378 0.0178555688
0.0243552352 -0.4804366776 0.0000000000 0.0000000000 0.0000000000 -332.4626125874 -0.0169344378 0.0178555688
0.0449118781 -0.4783047210 0.0000000000 0.0000000000 0.0000000000 -321.7959167789 -0.0169344378 0.0178555688
0.0653628576 -0.4753250828 0.0000000000 0.0000000000 0.0000000000 -311.3986539424 -0.0169344378 0.0178555688
0.0856732336 -0.4715028538 0.0000000000 0.0000000000 0.0000000000 -301.4917697046 -0.0169344378 0.0178555688
0.1058083061 -0.4668445641 0.0000000000 0.0000000000 0.0000000000 -292.2379566612 -0.0169344378 0.0178555688
0.1257336746 -0.4613581723 0.0000000000 0.0000000000 0.0000000000 -283.7448430202 -0.0169344378 0.0178555688
0.1454152971 -0.4550530519 0.0000000000 0.0000000000 0.0000000000 -276.0709993763 -0.0169344378 0.0178555688
0.1648195478 -0.4479399751 0.0000000000 0.0000000000 0.0000000000 -269.2309020293 -0.0169344378 0.0178555688
0.1839132748 -0.4400310944 0.0000000000 0.0000000000 0.0000000000 -263.2000245904 -0.0169344378 0.0178555688
0.2026638569 -0.4313399220 0.0000000000 0.0000000000 0.0000000000 -257.9177327407 -0.0169344378 0.0178555688
0.2210392590 -0.4218813066 0.0000000000 0.0000000000 0.0000000000 -253.2966463390 -0.0169344378 0.0178555688
0.2390080870 -0.4116714082 0.0000000000 0.0000000000 0.0000000000 -249.2278604618 -0.0169344378 0.0178555688
0.2565396415 -0.4007276701 0.0000000000 0.0000000000 0.0000000000 -245.6086520122 -0.0169344378 0.0178555688
0.2736039702 -0.3890687896 0.0000000000 0.0000000000 0.0000000000 -242.3341777295 -0.0169344378 0.0178555688
0.2901719188 -0.3767146856 0.0000000000 0.0000000000 0.0000000000 -239.3661209973 -0.0169344378 0.0178555688
0.3062151814 -0.3636864650 0.0000000000 0.0000000000 0.0000000000 -236.6294841511 -0.0169344378 0.0178555688
0.3217063483 -0.3500063863 0.0000000000 0.0000000000 0.0000000000 -234.2363547759 -0.0169344378 0.0178555688
0.5325915060 -0.4918248056 0.0000000000 0.0220872906 0.0194020704 -225.2035553441 -0.0171973982 0.0183047473
0.5513018242 -0.4709069178 0.0000000000 -0.0056272608 0.0259454494 -224.3875834195 -0.0171769685 0.0183086403
0.5692144765 -0.4493001620 0.0000000000 -0.0258358078 0.0316597216 -223.8134059293 -0.0171591357 0.0183171890
0.5863074826 -0.4270383790 0.0000000000 -0.0397120495 0.0365956752 -223.6016600577 -0.0171408525 0.0183267598
0.6025579976 -0.4041539207 0.0000000000 -0.0486682375 0.0409556960 -223.8383745446 -0.0171210834 0.0183361224
0.6179437339 -0.3806792560 0.0000000000 -0.0541783092 0.0450658530 -224.5721224699 -0.0170994158 0.0183448010
0.6324433167 -0.3566473786 0.0000000000 -0.0575870440 0.0493106354 -225.8214791191 -0.0170757364 0.0183526210
0.6460364298 -0.3320919324 0.0000000000 -0.0599661689 0.0540588075 -227.5871510529 -0.0170501156 0.0183595384
0.6587039086 -0.3070472408 0.0000000000 -0.0620500901 0.0596046394 -229.8625584476 -0.0170227425 0.0183655632
0.6704278109 -0.2815482972 0.0000000000 -0.0642472980 0.0661362272 -232.6399357168 -0.0169938812 0.0183707206
0.6811914718 -0.2556307346 0.0000000000 -0.0667005499 0.0737301298 -235.9118705095 -0.0169638399 0.0183750333
0.6909795478 -0.2293307847 0.0000000000 -0.0693649622 0.0823642016 -239.6696578568 -0.0169329501 0.0183785114
0.6997780512 -0.2026852325 0.0000000000 -0.0720816791 0.0919389807 -243.9000373503 -0.0169015532 0.0183811479
0.7075743797 -0.1757313678 0.0000000000 -0.0746364359 0.1023001932 -248.5815146140 -0.0168699901 0.0183829156
0.7143573408 -0.1485069345 0.0000000000 -0.0768011832 0.1132582647 -253.6810524887 -0.0168385934 0.0183837656
0.7201171735 -0.1210500780 0.0000000000 -0.0783614306 0.1246035062 -259.1516216000 -0.0168076815 0.0183836270
0.7248455671 -0.0933992921 0.0000000000 -0.0791331460 0.1361172694 -264.9309076922 -0.0167775526 0.0183824072
0.7285356766 -0.0655933629 0.0000000000 -0.0789725293 0.1475799843 -270.9413295621 -0.0167484808 0.0183799939
0.7311821353 -0.0376713122 0.0000000000 -0.0777809839 0.1587769914 -277.0913931210 -0.0167207126 0.0183762577
0.7327810640 -0.0096723389 0.0000000000 -0.0755067360 0.1695028204 -283.2782859075 -0.0166944646 0.0183710565
0.7333300781 0.0183642407 0.0000000000 -0.0721439910 0.1795642831 -289.3915084337 -0.0166699219 0.0183642404
0.7328282911 0.0463990533 0.0000000000 -0.0677302240 0.1887825304 -295.3172547371 -0.0166472375 0.0183556573
0.7312763150 0.0743927307 0.0000000000 -0.0623420794 0.1969941047 -300.9432035713 -0.0166265329 0.0183451602
0.7286762582 0.1023059709 0.0000000000 -0.0560903131 0.2040509859 -306.1633690061 -0.0166078992 0.0183326136
0.7250317201 0.1300996003 0.0000000000 -0.0491141755 0.2098196656 -310.8826835959 -0.0165913995 0.0183179004
0.7203477827 0.1577346348 0.0000000000 -0.0415755680 0.2141793832 -315.0210427581 -0.0165770722 0.0183009292
0.7146309987 0.1851723406 0.0000000000 -0.0336531861 0.2170198071 -318.5166137721 -0.0165649354 0.0182816399
0.7078893779 0.2123742928 0.0000000000 -0.0255366821 0.2182386352 -321.3282908893 -0.0165549918 0.0182600087
0.7001323693 0.2393024326 0.0000000000 -0.0174206488 0.2177397929 -323.4372428473 -0.0165472350 0.0182360515
0.6913708420 0.2659191217 0.0000000000 -0.0094979466 0.2154330875 -324.8475382232 -0.0165416557 0.0182098251
0.6816170634 0.2921871937 0.0000000000 -0.0019515381 0.2112362624 -325.5858441347 -0.0165382481 0.0181814253
0.6708846760 0.3180700012 0.0000000000 0.0050565475 0.2050803424 -325.7001852158 -0.0165370158 0.0181509828
0.6591886754 0.3435314591 0.0000000000 0.0114015077 0.1969189929 -325.2577515136 -0.0165379755 0.0181186546
0.6465453890 0.3685360839 0.0000000000 0.0170216638 0.1867425166 -324.3418113119 -0.0165411560 0.0180846126
0.6329724627 0.3930490296 0.0000000000 0.0219616107 0.1745974409 -323.0479970857 -0.0165465901 0.0180490294
0.6184888544 0.4170361229 0.0000000000 0.0264439820 0.1606135630 -321.4806350090 -0.0165542950 0.0180120654
0.6031148402 0.4404639042 0.0000000000 0.0309807177 0.1450408615 -319.7501962722 -0.0165642404 0.0179738606
0.5868720282 0.4632996812 0.0000000000 0.0365206767 0.1282957589 -317.9727298089 -0.0165763065 0.0179345419
0.5697833798 0.4855116060 0.0000000000 0.0445947271 0.1110059123 -316.2704439915 -0.0165902320 0.0178942545
0.5518732701 0.5070688108 0.0000000000 0.0573716882 0.0940261623 -314.7696861460 -0.0166055222 0.0178532522
0.5331676998 0.5279416661 0.0000000000 0.0775171980 0.0783894393 -313.5875661154 -0.0166212040 0.0178121127
0.4913155147 0.5695249305 0.0000000000 0.1560420591 0.0546032077 -312.5494172862 -0.0166456639 0.0177319975
0.4680664623 0.5900108439 0.0000000000 0.2213181829 0.0490452708 -312.8467903381 -0.0166579661 0.0176977927
0.4439866159 0.6095222079 0.0000000000 0.3033603131 0.0488557620 -313.6639722725 -0.0166729185 0.0176668258
0.4191171479 0.6280248839 0.0000000000 0.3999425148 0.0539618474 -314.9326598571 -0.0166904636 0.0176383459
0.3935008733 0.6454869019 0.0000000000 0.5071922445 0.0640120708 -316.5941157700 -0.0167102452 0.0176120432
0.3671820044 0.6618783344 0.0000000000 0.6200798443 0.0784442209 -318.5933734327 -0.0167317823 0.0175878686
0.3402059631 0.6771712479 0.0000000000 0.7330075795 0.0964799199 -320.8506259696 -0.0167545816 0.0175659345
0.3126192571 0.6913396893 0.0000000000 0.8405024196 0.1171327338 -323.2357683064 -0.0167781844 0.0175464529
0.2844693835 0.7043596785 0.0000000000 0.9379289044 0.1392935534 -325.5702160419 -0.0168021849 0.0175296835
0.2558047452 0.7162092123 0.0000000000 1.0220447463 0.1618819656 -327.6563360150 -0.0168262327 0.0175158962
0.2266745715 0.7268682792 0.0000000000 1.0912453170 0.1840023932 -329.3134172610 -0.0168500303 0.0175053478
0.1971288376 0.7363188803 0.0000000000 1.1454654145 0.2050470956 -330.4000993051 -0.0168733305 0.0174982685
0.1672181804 0.7445450508 0.0000000000 1.1858278767 0.2247226464 -330.8179924596 -0.0168959348 0.0174948513
0.1369938129 0.7515328798 0.0000000000 1.2141821047 0.2430099608 -330.5020178259 -0.0169176936 0.0174952458
0.1065074367 0.7572705286 0.0000000000 1.2326617496 0.2600849687 -329.4051356298 -0.0169385059 0.0174995510
0.0758111548 0.7617482474 0.0000000000 1.2433425342 0.2762286692 -327.4832473060 -0.0169583185 0.0175078126
0.0449573854 0.7649583910 0.0000000000 1.2480289494 0.2917480143 -324.6837610092 -0.0169771235 0.0175200213
0.0139987777 0.7668954330 0.0000000000 1.2481595009 0.3069187795 -320.9393883803 -0.0169949528 0.0175361142
-0.0170118709 0.7675559776 0.0000000000 1.2447996330 0.3219524326 -316.1671699057 -0.0170118707 0.0175559776
-0.0480216955 0.7669387689 0.0000000000 1.2386869915 0.3369831385 -310.2716297430 -0.0170279647 0.0175794501
-0.0789778434 0.7650446956 0.0000000000 1.2302993043 0.3520686694 -303.1504691755 -0.0170433341 0.0176063258
-0.1098275529 0.7618767918 0.0000000000 1.2199246887 0.3671991668 -294.7012597941 -0.0170580793 0.0176363570
-0.1405182329 0.7574402333 0.0000000000 1.2077233796 0.3823091488 -284.8279754258 -0.0170722900 0.0176692558
-0.1709975423 0.7517423303 0.0000000000 1.1937766821 0.3972898633 -273.4466691738 -0.0170860355 0.0177046964
-0.2012134704 0.7447925166 0.0000000000 1.1781230741 0.4120005020 -260.4899992711 -0.0170993549 0.0177423172
-0.2311144182 0.7366023355 0.0000000000 1.1607833451 0.4262777456 -245.9105722069 -0.0171122498 0.0177817237
-0.2606492800 0.7271854235 0.0000000000 1.1417772392 0.4399436376 -229.6832101106 -0.0171246779 0.0178224923
-0.2897675258 0.7165574894 0.0000000000 1.1211339177 0.4528120207 -211.8062985427 -0.0171365477 0.0178641735
-0.3184192842 0.7047362909 0.0000000000 1.0988981152 0.4646938219 -192.3023702569 -0.0171477155 0.0179062960
-0.3465554240 0.6917416055 0.0000000000 1.0751333835 0.4754014476 -171.2180596005 -0.0171579822 0.0179483692
-0.3741276356 0.6775951971 0.0000000000 1.0499233982 0.4847524905 -148.6235383755 -0.0171670907 0.0179898838
-0.4010885081 0.6623207724 0.0000000000 1.0233719884 0.4925728919 -124.6115241778 -0.0171747211 0.0180303067
-0.4273915965 0.6459439248 0.0000000000 0.9956023240 0.4986996620 -99.2959424020 -0.0171804778 0.0180690662
-0.4529914669 0.6284920462 0.0000000000 0.9667555378 0.5029832363 -72.8103054384 -0.0171838552 0.0181055083
-0.4778436762 0.6099941619 0.0000000000 0.9369889638 0.5052895813 -45.3059471382 -0.0171841415 0.0181387800
-0.5019045349 0.5904805036 0.0000000000 0.9064739572 0.5055022560 -16.9499500018 -0.0171801064 0.0181674526
-0.5251299661 0.5699810011 0.0000000000 0.8753934615 0.5035259166 12.0752494673 -0.0171687872 0.0181880682
-0.5689468770 0.5262094578 0.0000000000 0.8123352895 0.4926498202 71.3746258764 -0.0171539439 0.0182482792
-0.5894635934 0.5030153551 0.0000000000 0.7807804686 0.4836484197 101.2346533809 -0.0171505421 0.0182909269
-0.6089948398 0.4789862636 0.0000000000 0.7494832903 0.4722601362 130.9511596874 -0.0171394576 0.0183267293
-0.6275100633 0.4541659230 0.0000000000 0.7186581187 0.4584819606 160.3118208615 -0.0171235252 0.0183583117
-0.6449787041 0.4285977942 0.0000000000 0.6885183418 0.4423351568 189.1036682778 -0.0171038452 0.0183866758
-0.6613715257 0.4023261316 0.0000000000 0.6592750336 0.4238622909 217.1154606691 -0.0170810598 0.0184123450
-0.6766609890 0.3753962026 0.0000000000 0.6311349432 0.4031264340 244.1399890506 -0.0170556754 0.0184356580
-0.6908213966 0.3478543003 0.0000000000 0.6042986573 0.3802103943 269.9761300415 -0.0170281601 0.0184568589
-0.7038289713 0.3197476963 0.0000000000 0.5789588188 0.3552159176 294.4307810551 -0.0169989762 0.0184761281
-0.7156619069 0.2911245717 0.0000000000 0.5552984409 0.3282627708 317.3206823428 -0.0169685908 0.0184935940
-0.7263004068 0.2620339383 0.0000000000 0.5334893136 0.2994877034 338.4741250616 -0.0169374754 0.0185093366
-0.7357267136 0.2325255577 0.0000000000 0.5136905113 0.2690432836 357.7325379958 -0.0169061017 0.0185233898
-0.7439251342 0.2026498578 0.0000000000 0.4960470032 0.2370966101 374.9519457033 -0.0168749347 0.0185357427
-0.7508820598 0.1724578491 0.0000000000 0.4806883624 0.2038278966 390.0042910726 -0.0168444258 0.0185463428
-0.7565859834 0.1420010418 0.0000000000 0.4677275598 0.1694289282 402.7786133431 -0.0168150058 0.0185550994
-0.7610275141 0.1113313630 0.0000000000 0.4572598270 0.1341014028 413.1820684612 -0.0167870792 0.0185618899
-0.7641993892 0.0805010751 0.0000000000 0.4493615903 0.0980551852 421.1407774731 -0.0167610195 0.0185665662
-0.7660964847 0.0495626947 0.0000000000 0.4440895195 0.0615065136 426.6004969263 -0.0167371659 0.0185689643
-0.7667158222 0.0185689138 0.0000000000 0.4414797634 0.0246761836 429.5271196946 -0.0167158222 0.0185689141
-0.7660565750 -0.0124274793 0.0000000000 0.4415474375 -0.0122122918 429.9070229955 -0.0166972563 0.0185662517
-0.7641200709 -0.0433736778 0.0000000000 0.4442863716 -0.0489345559 427.7472629603 -0.0166817012 0.0185608316
-0.7609097927 -0.0742169336 0.0000000000 0.4496691271 -0.0852673216 423.0756127687 -0.0166693579 0.0185525401
-0.7564313781 -0.1049046355 0.0000000000 0.4576472842 -0.1209903397 415.9404367600 -0.0166604006 0.0185413076
-0.7506926182 -0.1353843867 0.0000000000 0.4681519326 -0.1558884164 406.4103716539 -0.0166549843 0.0185271203