 TITLE = "Tecplot data"
 VARIABLES = "X", "Y", "Z" "U", "V", "p", "dispX", "dispY"
 ZONE SOLUTIONTIME=189.900000, NODES=26114 , ELEMENTS=25916, DATAPACKING=POINT, ZONETYPE=FEQUADRILATERAL
0.3601671852 0.6202962951 0.0000000000 0.0000000000 0.0000000000 -568.5214120603 0.0066137946 0.2667429044
0.3601671855 -0.0868104859 0.0000000000 0.0000000000 0.0000000000 -314.5112873351 0.0066137946 0.2667429044
-0.3469395961 0.6202962949 0.0000000000 0.0000000000 0.0000000000 -218.8738958357 0.0066137946 0.2667429044
-0.3469395958 -0.0868104863 0.0000000000 0.0000000000 0.0000000000 52.1446806999 0.0066137946 0.2667429044
0.5370316059 0.7968169952 0.0000000000 0.4269726955 -0.0512354603 -569.8225569541 0.0067015200 0.2664869092
0.5390950932 -0.2542773718 0.0000000000 0.1834962777 -0.0399941837 -288.1838819062 0.0087650069 0.2760527137
-0.5194894215 0.8045677176 0.0000000000 0.8891610243 0.4816290898 -14.8356033605 0.0108406645 0.2742376319
-0.5260868280 -0.2591212175 0.0000000000 0.8922899801 -0.5099321795 58.0288942134 0.0042432576 0.2712088686
1.0716365725 1.3308902975 0.0000000000 1.0772585823 -0.0870737939 -164.5491825130 0.0109764008 0.2702301256
1.0651344677 -0.7865741759 0.0000000000 1.3192307402 0.0889475105 -226.4274088710 0.0044742952 0.2740859952
-1.0421586851 1.3526580854 0.0000000000 0.9568559122 0.1517709815 41.9841946312 0.0185014870 0.2919979140
-1.0614150162 -0.7745466858 0.0000000000 0.9635084122 -0.1714441408 92.6752052492 -0.0007548450 0.2861134865
4.2324297146 3.5370664948 0.0000000000 1.0136437890 -0.0364394070 14.4000546670 0.0324297146 0.2370664948
4.1803611498 -3.0636373144 0.0000000000 1.0243511081 -0.0148213125 28.9691885392 -0.0196388502 0.2363626856
20.0000000000 4.7000000000 0.0000000000 1.0414903603 0.0371578342 0.2666629407 0.0000000000 0.0000000000
20.0000000000 -4.7000000000 0.0000000000 1.0364936997 -0.0282744267 0.0201316848 0.0000000000 0.0000000000
-10.0000000000 15.0000000000 0.0000000000 1.0000000000 0.0000000000 25.9959642285 0.0000000000 0.0000000000
20.0000000000 15.0000000000 0.0000000000 1.0297579763 0.0000000000 0.0232245121 0.0000000000 0.0000000000
20.0000000000 -15.0000000000 0.0000000000 1.0286685850 0.0000000000 0.0215720578 0.0000000000 0.0000000000
-10.0000000000 -15.0000000000 0.0000000000 1.0000000000 0.0000000000 29.3773868415 0.0000000000 0.0000000000
0.3731397308 -0.0733434642 0.0000000000 0.0000000000 0.0000000000 -314.0960819925 0.0066137946 0.2667429044
0.3855996564 -0.0594008009 0.0000000000 0.0000000000 0.0000000000 -311.8729330481 0.0066137946 0.2667429044
0.3975295361 -0.0450019962 0.0000000000 0.0000000000 0.0000000000 -312.2785166162 0.0066137946 0.2667429044
0.4089126847 -0.0301671881 0.0000000000 0.0000000000 0.0000000000 -313.2103863880 0.0066137946 0.2667429044
0.4197331820 -0.0149171243 0.0000000000 0.0000000000 0.0000000000 -315.4157463467 0.0066137946 0.2667429044
0.4299758944 0.0007268664 0.0000000000 0.0000000000 0.0000000000 -318.3111441434 0.0066137946 0.2667429044
0.4396264967 0.0167429047 0.0000000000 0.0000000000 0.0000000000 -321.8700757692 0.0066137946 0.2667429044
0.4486714915 0.0331085906 0.0000000000 0.0000000000 0.0000000000 -325.8464020512 0.0066137946 0.2667429044
0.4570982287 0.0498010351 0.0000000000 0.0000000000 0.0000000000 -330.1442189800 0.0066137946 0.2667429044
0.4648949227 0.0667968925 0.0000000000 0.0000000000 0.0000000000 -334.6602347991 0.0066137946 0.2667429044
0.4720506691 0.0840723925 0.0000000000 0.0000000000 0.0000000000 -339.3442038181 0.0066137946 0.2667429044
0.4785554599 0.1016033737 0.0000000000 0.0000000000 0.0000000000 -344.1540767537 0.0066137946 0.2667429044
0.4844001976 0.1193653175 0.0000000000 0.0000000000 0.0000000000 -349.0609188701 0.0066137946 0.2667429044
0.4895767079 0.1373333821 0.0000000000 0.0000000000 0.0000000000 -354.0400082352 0.0066137946 0.2667429044
0.4940777508 0.1554824377 0.0000000000 0.0000000000 0.0000000000 -359.0782361581 0.0066137946 0.2667429044
0.4978970313 0.1737871011 0.0000000000 0.0000000000 0.0000000000 -364.1799289921 0.0066137946 0.2667429044
0.5010292078 0.1922217716 0.0000000000 0.0000000000 0.0000000000 -369.3746908714 0.0066137946 0.2667429044
0.5034698996 0.2107606666 0.0000000000 0.0000000000 0.0000000000 -374.7215333062 0.0066137946 0.2667429044
0.5052156933 0.2293778579 0.0000000000 0.0000000000 0.0000000000 -380.3091871547 0.0066137946 0.2667429044
0.5062641470 0.2480473075 0.0000000000 0.0000000000 0.0000000000 -386.2509409510 0.0066137946 0.2667429044
0.5066137946 0.2667429046 0.0000000000 0.0000000000 0.0000000000 -392.6744511851 0.0066137946 0.2667429044
0.5062641470 0.2854385018 0.0000000000 0.0000000000 0.0000000000 -399.7073622535 0.0066137946 0.2667429044
0.5052156932 0.3041079514 0.0000000000 0.0000000000 0.0000000000 -407.4604317624 0.0066137946 0.2667429044
0.5034698996 0.3227251427 0.0000000000 0.0000000000 0.0000000000 -416.0111096316 0.0066137946 0.2667429044
0.5010292077 0.3412640377 0.0000000000 0.0000000000 0.0000000000 -425.3870982501 0.0066137946 0.2667429044
0.4978970312 0.3596987082 0.0000000000 0.0000000000 0.0000000000 -435.5622219839 0.0066137946 0.2667429044
0.4940777507 0.3780033716 0.0000000000 0.0000000000 0.0000000000 -446.4305060248 0.0066137946 0.2667429044
0.4895767077 0.3961524271 0.0000000000 0.0000000000 0.0000000000 -457.8739110212 0.0066137946 0.2667429044
0.4844001975 0.4141204918 0.0000000000 0.0000000000 0.0000000000 -469.5778365343 0.0066137946 0.2667429044
0.4785554598 0.4318824355 0.0000000000 0.0000000000 0.0000000000 -481.4093853388 0.0066137946 0.2667429044
0.4720506689 0.4494134167 0.0000000000 0.0000000000 0.0000000000 -493.2304498277 0.0066137946 0.2667429044
0.4648949225 0.4666889167 0.0000000000 0.0000000000 0.0000000000 -504.9433175109 0.0066137946 0.2667429044
0.4570982285 0.4836847741 0.0000000000 0.0000000000 0.0000000000 -515.4169406298 0.0066137946 0.2667429044
0.4486714913 0.5003772187 0.0000000000 0.0000000000 0.0000000000 -525.2172914677 0.0066137946 0.2667429044
0.4396264965 0.5167429045 0.0000000000 0.0000000000 0.0000000000 -534.0034364744 0.0066137946 0.2667429044
0.4299758942 0.5327589428 0.0000000000 0.0000000000 0.0000000000 -541.7096295010 0.0066137946 0.2667429044
0.4197331818 0.5484029335 0.0000000000 0.0000000000 0.0000000000 -548.3168537081 0.0066137946 0.2667429044
0.4089126845 0.5636529973 0.0000000000 0.0000000000 0.0000000000 -553.8775594200 0.0066137946 0.2667429044
0.3975295358 0.5784878054 0.0000000000 0.0000000000 0.0000000000 -558.5327334552 0.0066137946 0.2667429044
0.3855996562 0.5928866101 0.0000000000 0.0000000000 0.0000000000 -562.3155430660 0.0066137946 0.2667429044
0.3731397305 0.6068292734 0.0000000000 0.0000000000 0.0000000000 -565.7581588053 0.0066137946 0.2667429044
0.3452545804 0.6346048598 0.0000000000 0.0000000000 0.0000000000 -571.9476459943 0.0066137946 0.2667429044
0.3297634135 0.6482849386 0.0000000000 0.0000000000 0.0000000000 -575.1985796904 0.0066137946 0.2667429044
0.3137201509 0.6613131592 0.0000000000 0.0000000000 0.0000000000 -579.2934137090 0.0066137946 0.2667429044
0.2971522023 0.6736672631 0.0000000000 0.0000000000 0.0000000000 -583.9684701398 0.0066137946 0.2667429044
0.2800878737 0.6853261436 0.0000000000 0.0000000000 0.0000000000 -589.6646724396 0.0066137946 0.2667429044
0.2625563191 0.6962698816 0.0000000000 0.0000000000 0.0000000000 -596.3176171792 0.0066137946 0.2667429044
0.2445874911 0.7064797801 0.0000000000 0.0000000000 0.0000000000 -604.0240170824 0.0066137946 0.2667429044
0.2262120890 0.7159383954 0.0000000000 0.0000000000 0.0000000000 -612.7345604720 0.0066137946 0.2667429044
0.2074615069 0.7246295678 0.0000000000 0.0000000000 0.0000000000 -622.4377488094 0.0066137946 0.2667429044
0.1883677799 0.7325384485 0.0000000000 0.0000000000 0.0000000000 -633.0657947097 0.0066137946 0.2667429044
0.1689635292 0.7396515253 0.0000000000 0.0000000000 0.0000000000 -644.5419040508 0.0066137946 0.2667429044
0.1492819067 0.7459566457 0.0000000000 0.0000000000 0.0000000000 -656.7272288820 0.0066137946 0.2667429044
0.1293565381 0.7514430374 0.0000000000 0.0000000000 0.0000000000 -669.4551406559 0.0066137946 0.2667429044
0.1092214657 0.7561013271 0.0000000000 0.0000000000 0.0000000000 -682.4610430267 0.0066137946 0.2667429044
0.0889110897 0.7599235561 0.0000000000 0.0000000000 0.0000000000 -695.4724269278 0.0066137946 0.2667429044
0.0684601102 0.7629031943 0.0000000000 0.0000000000 0.0000000000 -708.0933280341 0.0066137946 0.2667429044
0.0479034673 0.7650351509 0.0000000000 0.0000000000 0.0000000000 -719.9560396453 0.0066137946 0.2667429044
0.0272762817 0.7663157836 0.0000000000 0.0000000000 0.0000000000 -730.6120945053 0.0066137946 0.2667429044
0.0066137945 0.7667429044 0.0000000000 0.0000000000 0.0000000000 -739.5840852496 0.0066137946 0.2667429044
-0.0140486926 0.7663157836 0.0000000000 0.0000000000 0.0000000000 -746.4330411374 0.0066137946 0.2667429044
-0.0346758782 0.7650351509 0.0000000000 0.0000000000 0.0000000000 -750.6288116602 0.0066137946 0.2667429044
-0.0552325211 0.7629031943 0.0000000000 0.0000000000 0.0000000000 -751.8877356828 0.0066137946 0.2667429044
-0.0756835006 0.7599235561 0.0000000000 0.0000000000 0.0000000000 -749.5234342645 0.0066137946 0.2667429044
-0.0959938766 0.7561013271 0.0000000000 0.0000000000 0.0000000000 -743.5067506483 0.0066137946 0.2667429044
-0.1161289490 0.7514430374 0.0000000000 0.0000000000 0.0000000000 -733.2980726140 0.0066137946 0.2667429044
-0.1360543176 0.7459566456 0.0000000000 0.0000000000 0.0000000000 -718.8467077308 0.0066137946 0.2667429044
-0.1557359401 0.7396515252 0.0000000000 0.0000000000 0.0000000000 -699.7403305298 0.0066137946 0.2667429044
-0.1751401908 0.7325384484 0.0000000000 0.0000000000 0.0000000000 -676.3753577008 0.0066137946 0.2667429044
-0.1942339178 0.7246295677 0.0000000000 0.0000000000 0.0000000000 -648.0519490585 0.0066137946 0.2667429044
-0.2129844999 0.7159383953 0.0000000000 0.0000000000 0.0000000000 -615.6599659673 0.0066137946 0.2667429044
-0.2313599020 0.7064797800 0.0000000000 0.0000000000 0.0000000000 -578.6079486108 0.0066137946 0.2667429044
-0.2493287300 0.6962698815 0.0000000000 0.0000000000 0.0000000000 -537.4401227615 0.0066137946 0.2667429044
-0.2668602845 0.6853261435 0.0000000000 0.0000000000 0.0000000000 -493.0194835441 0.0066137946 0.2667429044
-0.2839246132 0.6736672630 0.0000000000 0.0000000000 0.0000000000 -443.6328254251 0.0066137946 0.2667429044
-0.3004925618 0.6613131590 0.0000000000 0.0000000000 0.0000000000 -395.4377396323 0.0066137946 0.2667429044
-0.3165358244 0.6482849384 0.0000000000 0.0000000000 0.0000000000 -340.4665246516 0.0066137946 0.2667429044
-0.3320269913 0.6346048597 0.0000000000 0.0000000000 0.0000000000 -283.1387398316 0.0066137946 0.2667429044
-0.3612481608 0.6053836901 0.0000000000 0.0000000000 0.0000000000 -163.5673511873 0.0066137946 0.2667429044
-0.3749282396 0.5898925232 0.0000000000 0.0000000000 0.0000000000 -102.5865936028 0.0066137946 0.2667429044
-0.3879564602 0.5738492606 0.0000000000 0.0000000000 0.0000000000 -43.0887979039 0.0066137946 0.2667429044
-0.4003105641 0.5572813120 0.0000000000 0.0000000000 0.0000000000 16.5142421183 0.0066137946 0.2667429044
-0.4119694446 0.5402169834 0.0000000000 0.0000000000 0.0000000000 75.0585528918 0.0066137946 0.2667429044
-0.4229131826 0.5226854288 0.0000000000 0.0000000000 0.0000000000 132.2336070359 0.0066137946 0.2667429044
-0.4331230810 0.5047166008 0.0000000000 0.0000000000 0.0000000000 187.4981644918 0.0066137946 0.2667429044
-0.4425816964 0.4863411987 0.0000000000 0.0000000000 0.0000000000 240.4000669327 0.0066137946 0.2667429044
-0.4512728688 0.4675906166 0.0000000000 0.0000000000 0.0000000000 290.4878769463 0.0066137946 0.2667429044
-0.4591817494 0.4484968895 0.0000000000 0.0000000000 0.0000000000 337.3405042971 0.0066137946 0.2667429044
-0.4662948263 0.4290926389 0.0000000000 0.0000000000 0.0000000000 380.5629579102 0.0066137946 0.2667429044
-0.4725999466 0.4094110164 0.0000000000 0.0000000000 0.0000000000 419.7917327301 0.0066137946 0.2667429044
-0.4780863384 0.3894856478 0.0000000000 0.0000000000 0.0000000000 454.6970835918 0.0066137946 0.2667429044
-0.4827446281 0.3693505753 0.0000000000 0.0000000000 0.0000000000 484.9859905223 0.0066137946 0.2667429044
-0.4865668571 0.3490401994 0.0000000000 0.0000000000 0.0000000000 510.4043551185 0.0066137946 0.2667429044
-0.4895464952 0.3285892199 0.0000000000 0.0000000000 0.0000000000 530.7393160241 0.0066137946 0.2667429044
-0.4916784519 0.3080325770 0.0000000000 0.0000000000 0.0000000000 545.8205517904 0.0066137946 0.2667429044
-0.4929590846 0.2874053914 0.0000000000 0.0000000000 0.0000000000 555.5226707404 0.0066137946 0.2667429044
-0.4933862054 0.2667429042 0.0000000000 0.0000000000 0.0000000000 559.7650802465 0.0066137946 0.2667429044
-0.4929590845 0.2460804171 0.0000000000 0.0000000000 0.0000000000 558.5165359170 0.0066137946 0.2667429044
-0.4916784518 0.2254532315 0.0000000000 0.0000000000 0.0000000000 551.7907802531 0.0066137946 0.2667429044
-0.4895464952 0.2048965886 0.0000000000 0.0000000000 0.0000000000 539.6584368297 0.0066137946 0.2667429044
-0.4865668570 0.1844456091 0.0000000000 0.0000000000 0.0000000000 522.2260016027 0.0066137946 0.2667429044
-0.4827446280 0.1641352331 0.0000000000 0.0000000000 0.0000000000 499.6741848873 0.0066137946 0.2667429044
-0.4780863383 0.1440001606 0.0000000000 0.0000000000 0.0000000000 472.1803439139 0.0066137946 0.2667429044
-0.4725999465 0.1240747921 0.0000000000 0.0000000000 0.0000000000 440.0596284400 0.0066137946 0.2667429044
-0.4662948261 0.1043931696 0.0000000000 0.0000000000 0.0000000000 403.4895263476 0.0066137946 0.2667429044
-0.4591817493 0.0849889189 0.0000000000 0.0000000000 0.0000000000 363.0286087161 0.0066137946 0.2667429044
-0.4512728686 0.0658951919 0.0000000000 0.0000000000 0.0000000000 318.6172288138 0.0066137946 0.2667429044
-0.4425816962 0.0471446098 0.0000000000 0.0000000000 0.0000000000 271.4942833883 0.0066137946 0.2667429044
-0.4331230808 0.0287692077 0.0000000000 0.0000000000 0.0000000000 220.4505424256 0.0066137946 0.2667429044
-0.4229131824 0.0108003797 0.0000000000 0.0000000000 0.0000000000 169.2850712619 0.0066137946 0.2667429044
-0.4119694444 -0.0067311748 0.0000000000 0.0000000000 0.0000000000 111.4014342418 0.0066137946 0.2667429044
-0.4003105638 -0.0237955035 0.0000000000 0.0000000000 0.0000000000 63.1950915933 0.0066137946 0.2667429044
-0.3879564599 -0.0403634521 0.0000000000 0.0000000000 0.0000000000 -11.9833226938 0.0066137946 0.2667429044
-0.3749282393 -0.0564067147 0.0000000000 0.0000000000 0.0000000000 -21.2047692961 0.0066137946 0.2667429044
-0.3612481605 -0.0718978816 0.0000000000 0.0000000000 0.0000000000 -181.8583726219 0.0066137946 0.2667429044
-0.3320269910 -0.1011190511 0.0000000000 0.0000000000 0.0000000000 -341.3182644407 0.0066137946 0.2667429044
-0.3165358241 -0.1147991298 0.0000000000 0.0000000000 0.0000000000 -229.7683995103 0.0066137946 0.2667429044
-0.3004925615 -0.1278273504 0.0000000000 0.0000000000 0.0000000000 -343.7403341841 0.0066137946 0.2667429044
-0.2839246128 -0.1401814544 0.0000000000 0.0000000000 0.0000000000 -352.8130734052 0.0066137946 0.2667429044
-0.2668602842 -0.1518403348 0.0000000000 0.0000000000 0.0000000000 -417.5809442004 0.0066137946 0.2667429044
-0.2493287297 -0.1627840729 0.0000000000 0.0000000000 0.0000000000 -437.9384251124 0.0066137946 0.2667429044
-0.2313599016 -0.1729939713 0.0000000000 0.0000000000 0.0000000000 -482.5197424206 0.0066137946 0.2667429044
-0.2129844995 -0.1824525866 0.0000000000 0.0000000000 0.0000000000 -505.3816216779 0.0066137946 0.2667429044
-0.1942339174 -0.1911437590 0.0000000000 0.0000000000 0.0000000000 -534.5244829357 0.0066137946 0.2667429044
-0.1751401904 -0.1990526397 0.0000000000 0.0000000000 0.0000000000 -552.7069617126 0.0066137946 0.2667429044
-0.1557359397 -0.2061657165 0.0000000000 0.0000000000 0.0000000000 -569.9520628144 0.0066137946 0.2667429044
-0.1360543172 -0.2124708369 0.0000000000 0.0000000000 0.0000000000 -580.3698164611 0.0066137946 0.2667429044
-0.1161289486 -0.2179572286 0.0000000000 0.0000000000 0.0000000000 -587.4542094215 0.0066137946 0.2667429044
-0.0959938762 -0.2226155183 0.0000000000 0.0000000000 0.0000000000 -589.4556223116 0.0066137946 0.2667429044
-0.0756835002 -0.2264377473 0.0000000000 0.0000000000 0.0000000000 -587.7455870984 0.0066137946 0.2667429044
-0.0552325207 -0.2294173855 0.0000000000 0.0000000000 0.0000000000 -582.0613047798 0.0066137946 0.2667429044
-0.0346758778 -0.2315493421 0.0000000000 0.0000000000 0.0000000000 -573.1685477356 0.0066137946 0.2667429044
-0.0140486922 -0.2328299748 0.0000000000 0.0000000000 0.0000000000 -561.3563959273 0.0066137946 0.2667429044
0.0066137950 -0.2332570956 0.0000000000 0.0000000000 0.0000000000 -547.2466075823 0.0066137946 0.2667429044
0.0272762821 -0.2328299748 0.0000000000 0.0000000000 0.0000000000 -531.3212135430 0.0066137946 0.2667429044
0.0479034677 -0.2315493420 0.0000000000 0.0000000000 0.0000000000 -514.1547837259 0.0066137946 0.2667429044
0.0684601106 -0.2294173854 0.0000000000 0.0000000000 0.0000000000 -496.2382313325 0.0066137946 0.2667429044
0.0889110901 -0.2264377472 0.0000000000 0.0000000000 0.0000000000 -478.1026284289 0.0066137946 0.2667429044
0.1092214661 -0.2226155182 0.0000000000 0.0000000000 0.0000000000 -460.1104899798 0.0066137946 0.2667429044
0.1293565385 -0.2179572285 0.0000000000 0.0000000000 0.0000000000 -442.6971641409 0.0066137946 0.2667429044
0.1492819071 -0.2124708367 0.0000000000 0.0000000000 0.0000000000 -426.1338316984 0.0066137946 0.2667429044
0.1689635296 -0.2061657163 0.0000000000 0.0000000000 0.0000000000 -410.6362133027 0.0066137946 0.2667429044
0.1883677802 -0.1990526395 0.0000000000 0.0000000000 0.0000000000 -396.3917590882 0.0066137946 0.2667429044
0.2074615073 -0.1911437588 0.0000000000 0.0000000000 0.0000000000 -383.4276981435 0.0066137946 0.2667429044
0.2262120894 -0.1824525864 0.0000000000 0.0000000000 0.0000000000 -371.8420925345 0.0066137946 0.2667429044
0.2445874915 -0.1729939710 0.0000000000 0.0000000000 0.0000000000 -361.5027902825 0.0066137946 0.2667429044
0.2625563195 -0.1627840726 0.0000000000 0.0000000000 0.0000000000 -352.3730902105 0.0066137946 0.2667429044
0.2800878740 -0.1518403345 0.0000000000 0.0000000000 0.0000000000 -344.2751004809 0.0066137946 0.2667429044
0.2971522026 -0.1401814540 0.0000000000 0.0000000000 0.0000000000 -336.9622453770 0.0066137946 0.2667429044
0.3137201513 -0.1278273501 0.0000000000 0.0000000000 0.0000000000 -330.7146903772 0.0066137946 0.2667429044
0.3297634138 -0.1147991294 0.0000000000 0.0000000000 0.0000000000 -324.2253694869 0.0066137946 0.2667429044
0.3452545807 -0.1011190507 0.0000000000 0.0000000000 0.0000000000 -321.6681705513 0.0066137946 0.2667429044
0.5586320948 -0.2342198553 0.0000000000 0.1074930422 -0.0487234297 -283.8167621924 0.0088431905 0.2759096976
0.5772808178 -0.2131523357 0.0000000000 0.0498376346 -0.0626115445 -280.3957510855 0.0088020251 0.2760632223
0.5951158390 -0.1913253351 0.0000000000 0.0137475324 -0.0832260408 -278.3690510168 0.0087422269 0.2762920159
0.6121219421 -0.1688276383 0.0000000000 -0.0015264697 -0.1112196531 -278.0437610610 0.0086736070 0.2765375004
0.6282791881 -0.1457138167 0.0000000000 -0.0005891421 -0.1456343145 -279.4731880013 0.0086001071 0.2767762264
0.6435680879 -0.1220267153 0.0000000000 0.0097747179 -0.1841575622 -282.5036160944 0.0085249382 0.2769973417
0.6579696469 -0.0978044612 0.0000000000 0.0229995642 -0.2239301822 -286.9090757272 0.0084505938 0.2771955384
0.6714652278 -0.0730832349 0.0000000000 0.0343355826 -0.2623315563 -292.4829724797 0.0083786824 0.2773682359
0.6840366357 -0.0478985548 0.0000000000 0.0410826249 -0.2973826193 -299.0373938813 0.0083099846 0.2775142491
0.6956663299 -0.0222859246 0.0000000000 0.0420721078 -0.3278268242 -306.3723806203 0.0082446378 0.2776330933
0.7063376543 0.0037188392 0.0000000000 0.0371135568 -0.3530627351 -314.2734993862 0.0081823427 0.2777246071
0.7160350284 0.0300794490 0.0000000000 0.0266291166 -0.3730042717 -322.5379383361 0.0081225306 0.2777887451
0.7247440868 0.0567590784 0.0000000000 0.0114104554 -0.3878911106 -331.0051207375 0.0080644823 0.2778254588
0.7324517764 0.0837203435 0.0000000000 -0.0075622883 -0.3980920938 -339.5770690592 0.0080074066 0.2778346269
0.7391464300 0.1109253119 0.0000000000 -0.0292444731 -0.4039557396 -348.2258827619 0.0079504958 0.2778160120
0.7448178259 0.1383355309 0.0000000000 -0.0525931893 -0.4057368896 -356.9908726613 0.0078929709 0.2777692359
0.7494572421 0.1659120703 0.0000000000 -0.0765917581 -0.4035930758 -365.9687138396 0.0078341224 0.2776937696
0.7530575047 0.1936155804 0.0000000000 -0.1002565499 -0.3976235964 -375.2990003852 0.0077733472 0.2775889371
0.7556130297 0.2214063639 0.0000000000 -0.1226452262 -0.3879229150 -385.1462635023 0.0077101818 0.2774539337
0.7571198571 0.2492444626 0.0000000000 -0.1428749608 -0.3746290808 -395.6788501940 0.0076443285 0.2772878580
0.7575756743 0.2770897587 0.0000000000 -0.1601497985 -0.3579579407 -407.0453954152 0.0075756743 0.2770897584
0.7569798309 0.3049020888 0.0000000000 -0.1737906112 -0.3382205940 -419.3506277751 0.0075043023 0.2768586928
0.7553333436 0.3326413704 0.0000000000 -0.1832590887 -0.3158249252 -432.6332565649 0.0074304958 0.2765937999
0.7526388953 0.3602677353 0.0000000000 -0.1881683543 -0.2912638837 -446.8490714525 0.0073547379 0.2762943780
0.7489008272 0.3877416679 0.0000000000 -0.1882767978 -0.2650946947 -461.8618489220 0.0072777075 0.2759599680
0.7441251258 0.4150241408 0.0000000000 -0.1834677766 -0.2379143948 -477.4433638424 0.0072002709 0.2755904352
0.7383194015 0.4420767443 0.0000000000 -0.1737239043 -0.2103371123 -493.2823181548 0.0071234674 0.2751860436
0.7314928562 0.4688618026 0.0000000000 -0.1591076731 -0.1829766774 -509.0010081365 0.0070484866 0.2747475185
0.7236562368 0.4953424724 0.0000000000 -0.1397575156 -0.1564348104 -524.1784047743 0.0069766325 0.2742760914
0.7148217685 0.5214828199 0.0000000000 -0.1158999959 -0.1312919365 -538.3786761557 0.0069092708 0.2737735232
0.7050030667 0.5472478698 0.0000000000 -0.0878680546 -0.1080965333 -551.1841374857 0.0068477553 0.2732421013
0.6942150226 0.5726036249 0.0000000000 -0.0561076926 -0.0873505696 -562.2304532007 0.0067933308 0.2726846065
0.6824736661 0.5975170477 0.0000000000 -0.0211553190 -0.0694917605 -571.2399523530 0.0067470153 0.2721042432
0.6697960120 0.6219560009 0.0000000000 0.0164252753 -0.0548754035 -578.0475798876 0.0067094669 0.2715045296
0.6561999182 0.6458891409 0.0000000000 0.0561481606 -0.0437572953 -582.6147009635 0.0066808655 0.2708891408
0.6417040061 0.6692857764 0.0000000000 0.0977461527 -0.0362747114 -585.0286817854 0.0066608568 0.2702617189
0.6263277137 0.6921157344 0.0000000000 0.1413300495 -0.0324177410 -585.4893004423 0.0066486330 0.2696256907
0.6100915311 0.7143493431 0.0000000000 0.1875282792 -0.0319840665 -584.2848615613 0.0066431963 0.2689842038
0.5930173721 0.7359577435 0.0000000000 0.2375385299 -0.0345218405 -581.7611484105 0.0066437603 0.2683403920
0.5751289686 0.7569140554 0.0000000000 0.2930048966 -0.0392868240 -578.2863289029 0.0066501763 0.2676984969
0.5564518394 0.7771967771 0.0000000000 0.3556751732 -0.0452533691 -574.2140220235 0.0066629355 0.2670672237
0.5147912974 0.8175703664 0.0000000000 0.5155475678 -0.0563766049 -565.1056747461 0.0068301187 0.2657774333
0.4917068155 0.8375041867 0.0000000000 0.6137269976 -0.0586269133 -560.5264549083 0.0069823872 0.2651911355
0.4677967872 0.8565245664 0.0000000000 0.7176819828 -0.0571229251 -556.2875548035 0.0071372528 0.2646691843
0.4431022134 0.8745873260 0.0000000000 0.8226806427 -0.0515500192 -552.4535150736 0.0072946020 0.2642007880
0.4176654077 0.8916557979 0.0000000000 0.9238297142 -0.0420833197 -548.9940109155 0.0074542892 0.2637809392
0.3915306940 0.9076978015 0.0000000000 1.0169218240 -0.0292214305 -545.8127261267 0.0076169073 0.2634073356
0.3647439159 0.9226848987 0.0000000000 1.0989506593 -0.0136328058 -542.7785850751 0.0077833712 0.2630795853
0.3373519988 0.9365920437 0.0000000000 1.1682810830 0.0039742666 -539.7551246716 0.0079545573 0.2627988072
0.3094026340 0.9493971066 0.0000000000 1.2245520304 0.0229515964 -536.6190207358 0.0081310656 0.2625671116
0.2809441222 0.9610803855 0.0000000000 1.2684111221 0.0427759986 -533.2661214261 0.0083131444 0.2623870694
0.2520253201 0.9716242194 0.0000000000 1.3011748507 0.0630767720 -529.6081553155 0.0085007183 0.2622612880
0.2226956165 0.9810127227 0.0000000000 1.3244927366 0.0836302233 -525.5646537779 0.0086934484 0.2621921108
0.1930048936 0.9892316105 0.0000000000 1.3400695702 0.1043316619 -521.0539139100 0.0088907784 0.2621814110
0.1630034576 0.9962680849 0.0000000000 1.3494716332 0.1251570989 -515.9856362003 0.0090919511 0.2622304508
0.1327419395 1.0021107731 0.0000000000 1.3540181410 0.1461249220 -510.2567223272 0.0092959969 0.2623397955
0.1022711814 1.0067497192 0.0000000000 1.3547430810 0.1672640411 -503.7506579279 0.0095017081 0.2625092844
0.0716421240 1.0101764264 0.0000000000 1.3524059235 0.1885912056 -496.3400396468 0.0097076150 0.2627380567
0.0409057077 1.0123839402 0.0000000000 1.3475301358 0.2100973991 -487.8912862728 0.0099119772 0.2630246214
0.0101127978 1.0133669511 0.0000000000 1.3404528453 0.2317416730 -478.2704418571 0.0101127979 0.2633669511
-0.0206858666 1.0131218915 0.0000000000 1.3313745860 0.2534502862 -467.3491349398 0.0103078643 0.2637625728
-0.0514397015 1.0116470077 0.0000000000 1.3204030633 0.2751191803 -455.0100459697 0.0104948077 0.2642086379
-0.0820982954 1.0089423925 0.0000000000 1.3075885356 0.2966182668 -441.1515229804 0.0106711783 0.2647019577
-0.1126114190 1.0050099820 0.0000000000 1.2929506687 0.3177964947 -425.6912041287 0.0108345239 0.2652390044
-0.1429290377 0.9998535221 0.0000000000 1.2764978740 0.3384870705 -408.5686423988 0.0109824691 0.2658158882
-0.1730013265 0.9934785189 0.0000000000 1.2582405518 0.3585124816 -389.7470011402 0.0111127890 0.2664283195
-0.2027786899 0.9858921825 0.0000000000 1.2381996631 0.3776891516 -369.2139215717 0.0112234784 0.2670715708
-0.2322117865 0.9771033731 0.0000000000 1.2164118571 0.3958316537 -346.9816735097 0.0113128155 0.2677404418
-0.2612515567 0.9671225477 0.0000000000 1.1929321309 0.4127564596 -323.0866985531 0.0113794214 0.2684292317
-0.2898492562 0.9559617065 0.0000000000 1.1678347537 0.4282852289 -297.5886456794 0.0114223125 0.2691317116
-0.3179564974 0.9436343253 0.0000000000 1.1412129831 0.4422476542 -270.5689853314 0.0114409444 0.2698410890
-0.3455253061 0.9301552551 0.0000000000 1.1131779354 0.4544838843 -242.1292756170 0.0114352389 0.2705499418
-0.3725082011 0.9155405425 0.0000000000 1.0838568374 0.4648465586 -212.3891209171 0.0114055859 0.2712500768
-0.3988583172 0.8998070684 0.0000000000 1.0533907712 0.4732025252 -181.4838925683 0.0113528016 0.2719322098
-0.4245296106 0.8829717341 0.0000000000 1.0219317239 0.4794343528 -149.5618560266 0.0112780012 0.2725851962
-0.4494772499 0.8650494237 0.0000000000 0.9896387064 0.4834423507 -116.7817204022 0.0111822848 0.2731940418
-0.4736582973 0.8460471212 0.0000000000 0.9566687308 0.4851472404 -83.3023154427 0.0110661312 0.2737340702
-0.4970319071 0.8259441761 0.0000000000 0.9231649081 0.4845081672 -49.2978108359 0.0109292718 0.2741512433
-0.5411649945 0.7832955541 0.0000000000 0.8559298488 0.4754151125 19.3284005872 0.0106279387 0.2753343756
-0.5618364020 0.7608611943 0.0000000000 0.8227232220 0.4669635535 53.3777907487 0.0104766493 0.2761367661
-0.5815390402 0.7374832817 0.0000000000 0.7898429658 0.4560672793 87.1395785886 0.0103163420 0.2768237474
-0.6002375536 0.7132414757 0.0000000000 0.7575130106 0.4427053067 120.4014309959 0.0101489845 0.2774338643
-0.6178975480 0.6881921896 0.0000000000 0.7259431813 0.4268937740 152.9619135586 0.0099773108 0.2779810712
-0.6344873672 0.6623854012 0.0000000000 0.6953363315 0.4086705511 184.6230562077 0.0098030987 0.2784716146
-0.6499778899 0.6358694598 0.0000000000 0.6658913330 0.3880914419 215.1895281055 0.0096274236 0.2789089153
-0.6643423513 0.6086926380 0.0000000000 0.6378031740 0.3652292166 244.4689790111 0.0094508852 0.2792951966
-0.6775562772 0.5809036493 0.0000000000 0.6112622534 0.3401732619 272.2729353109 0.0092737179 0.2796320811
-0.6895974600 0.5525517884 0.0000000000 0.5864532815 0.3130294325 298.4179576349 0.0090958561 0.2799208107
-0.7004459472 0.5236869208 0.0000000000 0.5635540016 0.2839199168 322.7269500811 0.0089169842 0.2801623192
-0.7100840272 0.4943594173 0.0000000000 0.5427338298 0.2529830470 345.0305751439 0.0087365847 0.2803572494
-0.7184962080 0.4646200707 0.0000000000 0.5241524669 0.2203730130 365.1687548749 0.0085539915 0.2805059556
-0.7256691839 0.4345200172 0.0000000000 0.5079585066 0.1862594428 382.9922527828 0.0083684501 0.2806085108
-0.7315917899 0.4041106694 0.0000000000 0.4942880091 0.1508268078 398.3643324927 0.0081791877 0.2806647270
-0.7362549430 0.3734436659 0.0000000000 0.4832629775 0.1142736171 411.1624763677 0.0079854919 0.2806741927
-0.7396515750 0.3425708359 0.0000000000 0.4749896689 0.0768113886 421.2801277258 0.0077867948 0.2806363271
-0.7417765637 0.3115441801 0.0000000000 0.4695567434 0.0386634096 428.6284115908 0.0075827551 0.2805504498
-0.7426266704 0.2804158645 0.0000000000 0.4670333524 0.0000633002 433.1377982091 0.0073733296 0.2804158648
-0.7422004952 0.2492382255 0.0000000000 0.4674673181 -0.0387466271 434.7596857179 0.0071588236 0.2802319564
-0.7404984570 0.2180637875 0.0000000000 0.4708835171 -0.0775172247 433.4678637566 0.0069399127 0.2799982969
-0.7375228032 0.1869452895 0.0000000000 0.4772825819 -0.1159945934 429.2598237648 0.0067176315 0.2797147633
-0.7332776474 0.1559357202 0.0000000000 0.4866400202 -0.1539224193 422.1578810967 0.0064933301 0.2793816632
-0.7277690298 0.1250883571 0.0000000000 0.4989057416 -0.1910445913 412.2100454059 0.0062686041 0.2789998640
-0.7210049941 0.0944568048 0.0000000000 0.5140039498 -0.2271080949 399.4905661839 0.0060452053 0.2785709205
-0.7129956725 0.0640950231 0.0000000000 0.5318333326 -0.2618661427 384.1000838091 0.0058249393 0.2780971916