 TITLE = "Tecplot data"
 VARIABLES = "X", "Y", "Z" "U", "V", "p", "dispX", "dispY"
 ZONE SOLUTIONTIME=84.900000, NODES=26114 , ELEMENTS=25916, DATAPACKING=POINT, ZONETYPE=FEQUADRILATERAL
0.3707051797 -0.1640792085 0.0000000000 0.0000000000 0.0000000000 -280.6151447002 0.0171517892 -0.5176325991
0.3707051800 -0.8711859895 0.0000000000 0.0000000000 0.0000000000 -608.3016115692 0.0171517892 -0.5176325991
-0.3364016015 -0.1640792087 0.0000000000 0.0000000000 0.0000000000 -92.4919081992 0.0171517892 -0.5176325991
-0.3364016012 -0.8711859899 0.0000000000 0.0000000000 0.0000000000 -277.6936632605 0.0171517892 -0.5176325991
0.5468003242 0.0133040159 0.0000000000 0.0870463386 -0.0122508078 -257.2802604714 0.0164702383 -0.5170260701
0.5440780984 -1.0657620950 0.0000000000 0.5582877320 0.0429819450 -591.6633912810 0.0137480121 -0.5354320095
-0.5205507005 -0.0015438738 0.0000000000 0.8316589521 0.4777052946 102.9898164433 0.0097793856 -0.5318739595
-0.5086025627 -1.0566023756 0.0000000000 0.9310537641 -0.5148059288 -36.4360737159 0.0217275229 -0.5262722894
1.0693217863 0.5363347765 0.0000000000 1.3058697172 0.0439462321 -161.2728256039 0.0086616146 -0.5243253954
1.0821784490 -1.5921639841 0.0000000000 1.1622155127 0.2099949653 -263.9088040652 0.0215182765 -0.5315038131
-1.0648947266 0.4947197433 0.0000000000 0.9345692514 0.1624383385 112.7862595108 -0.0042345545 -0.5659404282
-1.0295283494 -1.6155613452 0.0000000000 0.9813035740 -0.1613537022 34.2976219113 0.0311318219 -0.5549011728
4.1654620217 2.8401671026 0.0000000000 1.0005264181 0.0063572448 25.6572506907 -0.0345379783 -0.4598328974
4.2655285288 -3.7584274946 0.0000000000 1.0421746647 0.0295010142 17.8875382631 0.0655285288 -0.4584274946
20.0000000000 4.7000000000 0.0000000000 1.0434941500 0.0332999814 0.1822321439 0.0000000000 0.0000000000
20.0000000000 -4.7000000000 0.0000000000 1.0330108201 -0.0312149533 0.0975344408 0.0000000000 0.0000000000
-10.0000000000 15.0000000000 0.0000000000 1.0000000000 0.0000000000 37.5236821390 0.0000000000 0.0000000000
20.0000000000 15.0000000000 0.0000000000 1.0292555277 0.0000000000 0.0222932013 0.0000000000 0.0000000000
20.0000000000 -15.0000000000 0.0000000000 1.0283517105 0.0000000000 0.0248695727 0.0000000000 0.0000000000
-10.0000000000 -15.0000000000 0.0000000000 1.0000000000 0.0000000000 20.6479929158 0.0000000000 0.0000000000
0.3836777253 -0.8577189678 0.0000000000 0.0000000000 0.0000000000 -606.8985018399 0.0171517892 -0.5176325991
0.3961376510 -0.8437763045 0.0000000000 0.0000000000 0.0000000000 -605.2873786971 0.0171517892 -0.5176325991
0.4080675306 -0.8293774998 0.0000000000 0.0000000000 0.0000000000 -605.0314481546 0.0171517892 -0.5176325991
0.4194506793 -0.8145426917 0.0000000000 0.0000000000 0.0000000000 -605.0532763818 0.0171517892 -0.5176325991
0.4302711765 -0.7992926279 0.0000000000 0.0000000000 0.0000000000 -605.5973058089 0.0171517892 -0.5176325991
0.4405138890 -0.7836486371 0.0000000000 0.0000000000 0.0000000000 -606.2647897839 0.0171517892 -0.5176325991
0.4501644912 -0.7676325989 0.0000000000 0.0000000000 0.0000000000 -606.9369498104 0.0171517892 -0.5176325991
0.4592094861 -0.7512669130 0.0000000000 0.0000000000 0.0000000000 -607.3528236070 0.0171517892 -0.5176325991
0.4676362233 -0.7345744684 0.0000000000 0.0000000000 0.0000000000 -607.2924438802 0.0171517892 -0.5176325991
0.4754329172 -0.7175786110 0.0000000000 0.0000000000 0.0000000000 -606.4896169191 0.0171517892 -0.5176325991
0.4825886636 -0.7003031111 0.0000000000 0.0000000000 0.0000000000 -604.6790348181 0.0171517892 -0.5176325991
0.4890934544 -0.6827721299 0.0000000000 0.0000000000 0.0000000000 -601.5905105285 0.0171517892 -0.5176325991
0.4949381922 -0.6650101861 0.0000000000 0.0000000000 0.0000000000 -596.9766614995 0.0171517892 -0.5176325991
0.5001147024 -0.6470421214 0.0000000000 0.0000000000 0.0000000000 -590.6299058581 0.0171517892 -0.5176325991
0.5046157453 -0.6288930659 0.0000000000 0.0000000000 0.0000000000 -582.4061894035 0.0171517892 -0.5176325991
0.5084350258 -0.6105884025 0.0000000000 0.0000000000 0.0000000000 -572.2426053837 0.0171517892 -0.5176325991
0.5115672023 -0.5921537320 0.0000000000 0.0000000000 0.0000000000 -560.1706680310 0.0171517892 -0.5176325991
0.5140078942 -0.5736148370 0.0000000000 0.0000000000 0.0000000000 -546.3203683487 0.0171517892 -0.5176325991
0.5157536878 -0.5549976457 0.0000000000 0.0000000000 0.0000000000 -530.9148021631 0.0171517892 -0.5176325991
0.5168021416 -0.5363281961 0.0000000000 0.0000000000 0.0000000000 -514.2549838970 0.0171517892 -0.5176325991
0.5171517892 -0.5176325989 0.0000000000 0.0000000000 0.0000000000 -496.6977156348 0.0171517892 -0.5176325991
0.5168021416 -0.4989370018 0.0000000000 0.0000000000 0.0000000000 -478.6305402199 0.0171517892 -0.5176325991
0.5157536878 -0.4802675522 0.0000000000 0.0000000000 0.0000000000 -460.4474749288 0.0171517892 -0.5176325991
0.5140078941 -0.4616503609 0.0000000000 0.0000000000 0.0000000000 -442.5213720282 0.0171517892 -0.5176325991
0.5115672023 -0.4431114659 0.0000000000 0.0000000000 0.0000000000 -425.1719414344 0.0171517892 -0.5176325991
0.5084350258 -0.4246767954 0.0000000000 0.0000000000 0.0000000000 -408.6387947751 0.0171517892 -0.5176325991
0.5046157452 -0.4063721320 0.0000000000 0.0000000000 0.0000000000 -393.0795499529 0.0171517892 -0.5176325991
0.5001147023 -0.3882230764 0.0000000000 0.0000000000 0.0000000000 -378.5751294571 0.0171517892 -0.5176325991
0.4949381920 -0.3702550118 0.0000000000 0.0000000000 0.0000000000 -365.1533730897 0.0171517892 -0.5176325991
0.4890934543 -0.3524930680 0.0000000000 0.0000000000 0.0000000000 -352.7880601032 0.0171517892 -0.5176325991
0.4825886635 -0.3349620868 0.0000000000 0.0000000000 0.0000000000 -341.4458851254 0.0171517892 -0.5176325991
0.4754329171 -0.3176865869 0.0000000000 0.0000000000 0.0000000000 -331.0491378493 0.0171517892 -0.5176325991
0.4676362231 -0.3006907295 0.0000000000 0.0000000000 0.0000000000 -321.5894535528 0.0171517892 -0.5176325991
0.4592094859 -0.2839982849 0.0000000000 0.0000000000 0.0000000000 -312.9686025616 0.0171517892 -0.5176325991
0.4501644910 -0.2676325991 0.0000000000 0.0000000000 0.0000000000 -305.3143949217 0.0171517892 -0.5176325991
0.4405138887 -0.2516165608 0.0000000000 0.0000000000 0.0000000000 -298.4493851403 0.0171517892 -0.5176325991
0.4302711763 -0.2359725700 0.0000000000 0.0000000000 0.0000000000 -292.8179938561 0.0171517892 -0.5176325991
0.4194506790 -0.2207225063 0.0000000000 0.0000000000 0.0000000000 -287.8703736224 0.0171517892 -0.5176325991
0.4080675304 -0.2058876982 0.0000000000 0.0000000000 0.0000000000 -284.7654170633 0.0171517892 -0.5176325991
0.3961376507 -0.1914888935 0.0000000000 0.0000000000 0.0000000000 -281.7996130117 0.0171517892 -0.5176325991
0.3836777251 -0.1775462302 0.0000000000 0.0000000000 0.0000000000 -281.7150478801 0.0171517892 -0.5176325991
0.3557925750 -0.1497706438 0.0000000000 0.0000000000 0.0000000000 -282.9476452304 0.0171517892 -0.5176325991
0.3403014081 -0.1360905650 0.0000000000 0.0000000000 0.0000000000 -284.6430912503 0.0171517892 -0.5176325991
0.3242581455 -0.1230623444 0.0000000000 0.0000000000 0.0000000000 -288.2235202742 0.0171517892 -0.5176325991
0.3076901968 -0.1107082405 0.0000000000 0.0000000000 0.0000000000 -291.8312248300 0.0171517892 -0.5176325991
0.2906258682 -0.0990493600 0.0000000000 0.0000000000 0.0000000000 -296.3711872270 0.0171517892 -0.5176325991
0.2730943137 -0.0881056219 0.0000000000 0.0000000000 0.0000000000 -301.2758469720 0.0171517892 -0.5176325991
0.2551254856 -0.0778957235 0.0000000000 0.0000000000 0.0000000000 -306.9841470225 0.0171517892 -0.5176325991
0.2367500835 -0.0684371082 0.0000000000 0.0000000000 0.0000000000 -313.4182118231 0.0171517892 -0.5176325991
0.2179995014 -0.0597459358 0.0000000000 0.0000000000 0.0000000000 -320.8329422714 0.0171517892 -0.5176325991
0.1989057744 -0.0518370551 0.0000000000 0.0000000000 0.0000000000 -329.2545840128 0.0171517892 -0.5176325991
0.1795015237 -0.0447239783 0.0000000000 0.0000000000 0.0000000000 -338.7836986958 0.0171517892 -0.5176325991
0.1598199012 -0.0384188579 0.0000000000 0.0000000000 0.0000000000 -349.3965482655 0.0171517892 -0.5176325991
0.1398945327 -0.0329324661 0.0000000000 0.0000000000 0.0000000000 -361.0549421060 0.0171517892 -0.5176325991
0.1197594602 -0.0282741765 0.0000000000 0.0000000000 0.0000000000 -373.6328776046 0.0171517892 -0.5176325991
0.0994490842 -0.0244519474 0.0000000000 0.0000000000 0.0000000000 -386.9517244967 0.0171517892 -0.5176325991
0.0789981047 -0.0214723093 0.0000000000 0.0000000000 0.0000000000 -400.7524120752 0.0171517892 -0.5176325991
0.0584414618 -0.0193403526 0.0000000000 0.0000000000 0.0000000000 -414.7095538234 0.0171517892 -0.5176325991
0.0378142762 -0.0180597199 0.0000000000 0.0000000000 0.0000000000 -428.4280962845 0.0171517892 -0.5176325991
0.0171517891 -0.0176325991 0.0000000000 0.0000000000 0.0000000000 -441.4583316552 0.0171517892 -0.5176325991
-0.0035106980 -0.0180597200 0.0000000000 0.0000000000 0.0000000000 -453.3080887586 0.0171517892 -0.5176325991
-0.0241378837 -0.0193403526 0.0000000000 0.0000000000 0.0000000000 -463.4629078428 0.0171517892 -0.5176325991
-0.0446945266 -0.0214723093 0.0000000000 0.0000000000 0.0000000000 -471.4058544796 0.0171517892 -0.5176325991
-0.0651455061 -0.0244519475 0.0000000000 0.0000000000 0.0000000000 -476.6391223699 0.0171517892 -0.5176325991
-0.0854558820 -0.0282741765 0.0000000000 0.0000000000 0.0000000000 -478.7036454221 0.0171517892 -0.5176325991
-0.1055909545 -0.0329324662 0.0000000000 0.0000000000 0.0000000000 -477.1965605201 0.0171517892 -0.5176325991
-0.1255163231 -0.0384188579 0.0000000000 0.0000000000 0.0000000000 -471.7849434787 0.0171517892 -0.5176325991
-0.1451979455 -0.0447239783 0.0000000000 0.0000000000 0.0000000000 -462.2156949461 0.0171517892 -0.5176325991
-0.1646021962 -0.0518370552 0.0000000000 0.0000000000 0.0000000000 -448.3213394668 0.0171517892 -0.5176325991
-0.1836959233 -0.0597459359 0.0000000000 0.0000000000 0.0000000000 -430.0221344463 0.0171517892 -0.5176325991
-0.2024465054 -0.0684371083 0.0000000000 0.0000000000 0.0000000000 -407.3249289287 0.0171517892 -0.5176325991
-0.2208219075 -0.0778957236 0.0000000000 0.0000000000 0.0000000000 -380.3194708316 0.0171517892 -0.5176325991
-0.2387907355 -0.0881056220 0.0000000000 0.0000000000 0.0000000000 -349.1727005442 0.0171517892 -0.5176325991
-0.2563222900 -0.0990493601 0.0000000000 0.0000000000 0.0000000000 -314.1218220346 0.0171517892 -0.5176325991
-0.2733866186 -0.1107082406 0.0000000000 0.0000000000 0.0000000000 -275.4662366706 0.0171517892 -0.5176325991
-0.2899545673 -0.1230623445 0.0000000000 0.0000000000 0.0000000000 -233.5596547372 0.0171517892 -0.5176325991
-0.3059978299 -0.1360905651 0.0000000000 0.0000000000 0.0000000000 -188.8002803020 0.0171517892 -0.5176325991
-0.3214889967 -0.1497706439 0.0000000000 0.0000000000 0.0000000000 -141.6253062616 0.0171517892 -0.5176325991
-0.3507101663 -0.1789918134 0.0000000000 0.0000000000 0.0000000000 -41.8950015607 0.0171517892 -0.5176325991
-0.3643902450 -0.1944829803 0.0000000000 0.0000000000 0.0000000000 9.7321620214 0.0171517892 -0.5176325991
-0.3774184656 -0.2105262429 0.0000000000 0.0000000000 0.0000000000 61.8160824536 0.0171517892 -0.5176325991
-0.3897725696 -0.2270941916 0.0000000000 0.0000000000 0.0000000000 114.3189908198 0.0171517892 -0.5176325991
-0.4014314500 -0.2441585202 0.0000000000 0.0000000000 0.0000000000 167.0013020441 0.0171517892 -0.5176325991
-0.4123751881 -0.2616900747 0.0000000000 0.0000000000 0.0000000000 212.0017129705 0.0171517892 -0.5176325991
-0.4225850865 -0.2796589028 0.0000000000 0.0000000000 0.0000000000 258.7674835511 0.0171517892 -0.5176325991
-0.4320437018 -0.2980343049 0.0000000000 0.0000000000 0.0000000000 305.2663658992 0.0171517892 -0.5176325991
-0.4407348742 -0.3167848870 0.0000000000 0.0000000000 0.0000000000 348.4608341647 0.0171517892 -0.5176325991
-0.4486437549 -0.3358786140 0.0000000000 0.0000000000 0.0000000000 389.8359444271 0.0171517892 -0.5176325991
-0.4557568317 -0.3552828647 0.0000000000 0.0000000000 0.0000000000 427.6997315552 0.0171517892 -0.5176325991
-0.4620619521 -0.3749644872 0.0000000000 0.0000000000 0.0000000000 461.0492839476 0.0171517892 -0.5176325991
-0.4675483438 -0.3948898558 0.0000000000 0.0000000000 0.0000000000 496.0088523406 0.0171517892 -0.5176325991
-0.4722066335 -0.4150249282 0.0000000000 0.0000000000 0.0000000000 516.8671795702 0.0171517892 -0.5176325991
-0.4760288626 -0.4353353042 0.0000000000 0.0000000000 0.0000000000 537.0231999321 0.0171517892 -0.5176325991
-0.4790085007 -0.4557862837 0.0000000000 0.0000000000 0.0000000000 551.3787790247 0.0171517892 -0.5176325991
-0.4811404573 -0.4763429266 0.0000000000 0.0000000000 0.0000000000 560.9415149283 0.0171517892 -0.5176325991
-0.4824210900 -0.4969701122 0.0000000000 0.0000000000 0.0000000000 565.1783040146 0.0171517892 -0.5176325991
-0.4828482108 -0.5176325993 0.0000000000 0.0000000000 0.0000000000 564.0703487846 0.0171517892 -0.5176325991
-0.4824210900 -0.5382950865 0.0000000000 0.0000000000 0.0000000000 557.5575050371 0.0171517892 -0.5176325991
-0.4811404573 -0.5589222721 0.0000000000 0.0000000000 0.0000000000 545.6101211934 0.0171517892 -0.5176325991
-0.4790085007 -0.5794789150 0.0000000000 0.0000000000 0.0000000000 528.3553911332 0.0171517892 -0.5176325991
-0.4760288625 -0.5999298945 0.0000000000 0.0000000000 0.0000000000 505.7355772182 0.0171517892 -0.5176325991
-0.4722066334 -0.6202402705 0.0000000000 0.0000000000 0.0000000000 478.2767201988 0.0171517892 -0.5176325991
-0.4675483437 -0.6403753429 0.0000000000 0.0000000000 0.0000000000 445.3023200197 0.0171517892 -0.5176325991
-0.4620619520 -0.6603007115 0.0000000000 0.0000000000 0.0000000000 409.3515673259 0.0171517892 -0.5176325991
-0.4557568316 -0.6799823340 0.0000000000 0.0000000000 0.0000000000 366.4616196416 0.0171517892 -0.5176325991
-0.4486437548 -0.6993865846 0.0000000000 0.0000000000 0.0000000000 328.6803205478 0.0171517892 -0.5176325991
-0.4407348741 -0.7184803117 0.0000000000 0.0000000000 0.0000000000 265.4879642845 0.0171517892 -0.5176325991
-0.4320437017 -0.7372308938 0.0000000000 0.0000000000 0.0000000000 221.0492886056 0.0171517892 -0.5176325991
-0.4225850863 -0.7556062959 0.0000000000 0.0000000000 0.0000000000 157.4913035494 0.0171517892 -0.5176325991
-0.4123751879 -0.7735751239 0.0000000000 0.0000000000 0.0000000000 117.9241968274 0.0171517892 -0.5176325991
-0.4014314498 -0.7911066784 0.0000000000 0.0000000000 0.0000000000 21.4786175650 0.0171517892 -0.5176325991
-0.3897725693 -0.8081710070 0.0000000000 0.0000000000 0.0000000000 46.8406795264 0.0171517892 -0.5176325991
-0.3774184654 -0.8247389557 0.0000000000 0.0000000000 0.0000000000 -177.1983196360 0.0171517892 -0.5176325991
-0.3643902448 -0.8407822183 0.0000000000 0.0000000000 0.0000000000 -12.6706107591 0.0171517892 -0.5176325991
-0.3507101660 -0.8562733851 0.0000000000 0.0000000000 0.0000000000 -426.3186540682 0.0171517892 -0.5176325991
-0.3214889964 -0.8854945547 0.0000000000 0.0000000000 0.0000000000 -72.1701704963 0.0171517892 -0.5176325991
-0.3059978296 -0.8991746334 0.0000000000 0.0000000000 0.0000000000 -672.7559989698 0.0171517892 -0.5176325991
-0.2899545670 -0.9122028540 0.0000000000 0.0000000000 0.0000000000 -381.9074055204 0.0171517892 -0.5176325991
-0.2733866183 -0.9245569579 0.0000000000 0.0000000000 0.0000000000 -574.3633609607 0.0171517892 -0.5176325991
-0.2563222897 -0.9362158384 0.0000000000 0.0000000000 0.0000000000 -526.0799580030 0.0171517892 -0.5176325991
-0.2387907351 -0.9471595765 0.0000000000 0.0000000000 0.0000000000 -625.1377354398 0.0171517892 -0.5176325991
-0.2208219071 -0.9573694749 0.0000000000 0.0000000000 0.0000000000 -634.4372334855 0.0171517892 -0.5176325991
-0.2024465050 -0.9668280902 0.0000000000 0.0000000000 0.0000000000 -693.5134306855 0.0171517892 -0.5176325991
-0.1836959229 -0.9755192626 0.0000000000 0.0000000000 0.0000000000 -715.5293014679 0.0171517892 -0.5176325991
-0.1646021958 -0.9834281433 0.0000000000 0.0000000000 0.0000000000 -753.7977407673 0.0171517892 -0.5176325991
-0.1451979452 -0.9905412201 0.0000000000 0.0000000000 0.0000000000 -774.4045780982 0.0171517892 -0.5176325991
-0.1255163227 -0.9968463405 0.0000000000 0.0000000000 0.0000000000 -798.4004417440 0.0171517892 -0.5176325991
-0.1055909541 -1.0023327322 0.0000000000 0.0000000000 0.0000000000 -812.4506380585 0.0171517892 -0.5176325991
-0.0854558816 -1.0069910219 0.0000000000 0.0000000000 0.0000000000 -825.0013571921 0.0171517892 -0.5176325991
-0.0651455057 -1.0108132509 0.0000000000 0.0000000000 0.0000000000 -830.9926257289 0.0171517892 -0.5176325991
-0.0446945262 -1.0137928890 0.0000000000 0.0000000000 0.0000000000 -833.9600158776 0.0171517892 -0.5176325991
-0.0241378833 -1.0159248457 0.0000000000 0.0000000000 0.0000000000 -832.2229730552 0.0171517892 -0.5176325991
-0.0035106976 -1.0172054783 0.0000000000 0.0000000000 0.0000000000 -827.4526697436 0.0171517892 -0.5176325991
0.0171517895 -1.0176325991 0.0000000000 0.0000000000 0.0000000000 -819.3551234021 0.0171517892 -0.5176325991
0.0378142766 -1.0172054783 0.0000000000 0.0000000000 0.0000000000 -808.9098940701 0.0171517892 -0.5176325991
0.0584414622 -1.0159248456 0.0000000000 0.0000000000 0.0000000000 -796.3664928818 0.0171517892 -0.5176325991
0.0789981051 -1.0137928890 0.0000000000 0.0000000000 0.0000000000 -782.4231486129 0.0171517892 -0.5176325991
0.0994490846 -1.0108132508 0.0000000000 0.0000000000 0.0000000000 -767.4893299609 0.0171517892 -0.5176325991
0.1197594606 -1.0069910217 0.0000000000 0.0000000000 0.0000000000 -752.0928556786 0.0171517892 -0.5176325991
0.1398945331 -1.0023327320 0.0000000000 0.0000000000 0.0000000000 -736.6163404778 0.0171517892 -0.5176325991
0.1598199016 -0.9968463403 0.0000000000 0.0000000000 0.0000000000 -721.4303047729 0.0171517892 -0.5176325991
0.1795015241 -0.9905412199 0.0000000000 0.0000000000 0.0000000000 -706.8050734133 0.0171517892 -0.5176325991
0.1989057748 -0.9834281430 0.0000000000 0.0000000000 0.0000000000 -692.9542047235 0.0171517892 -0.5176325991
0.2179995018 -0.9755192623 0.0000000000 0.0000000000 0.0000000000 -680.0117424185 0.0171517892 -0.5176325991
0.2367500839 -0.9668280899 0.0000000000 0.0000000000 0.0000000000 -668.0493731745 0.0171517892 -0.5176325991
0.2551254860 -0.9573694746 0.0000000000 0.0000000000 0.0000000000 -657.0856973334 0.0171517892 -0.5176325991
0.2730943140 -0.9471595761 0.0000000000 0.0000000000 0.0000000000 -647.0996549128 0.0171517892 -0.5176325991
0.2906258685 -0.9362158381 0.0000000000 0.0000000000 0.0000000000 -638.0763449033 0.0171517892 -0.5176325991
0.3076901972 -0.9245569576 0.0000000000 0.0000000000 0.0000000000 -630.0009951873 0.0171517892 -0.5176325991
0.3242581458 -0.9122028536 0.0000000000 0.0000000000 0.0000000000 -622.9432525494 0.0171517892 -0.5176325991
0.3403014084 -0.8991746330 0.0000000000 0.0000000000 0.0000000000 -616.9471891367 0.0171517892 -0.5176325991
0.3557925753 -0.8854945542 0.0000000000 0.0000000000 0.0000000000 -612.2806363829 0.0171517892 -0.5176325991
0.5633256896 -1.0452671728 0.0000000000 0.4578945165 0.0275015300 -592.2494373615 0.0135367853 -0.5351376199
0.5820554534 -1.0246400869 0.0000000000 0.3757916088 0.0073865098 -593.5773213549 0.0135766607 -0.5354245288
0.6000286355 -1.0034741927 0.0000000000 0.3123388081 -0.0171190746 -595.8964226139 0.0136550234 -0.5358568417
0.6171970437 -0.9816865190 0.0000000000 0.2671526065 -0.0450555451 -599.3975945307 0.0137487086 -0.5363213802
0.6335278173 -0.9592632679 0.0000000000 0.2374716073 -0.0750290878 -604.1612930678 0.0138487363 -0.5367732248
0.6489916833 -0.9362158055 0.0000000000 0.2187020438 -0.1054744380 -610.1273933363 0.0139485336 -0.5371917485
0.6635624079 -0.9125669624 0.0000000000 0.2057955468 -0.1349793105 -617.0956386385 0.0140433548 -0.5375669628
0.6772169308 -0.8883455532 0.0000000000 0.1944960525 -0.1624859548 -624.7408569745 0.0141303855 -0.5378940824
0.6899351787 -0.8635837651 0.0000000000 0.1819041759 -0.1873172693 -632.6302157875 0.0142085275 -0.5381709611
0.7016996775 -0.8383157759 0.0000000000 0.1664001460 -0.2090927938 -640.2419097602 0.0142779854 -0.5383967580
0.7124951494 -0.8125769859 0.0000000000 0.1472855496 -0.2276205140 -646.9895658498 0.0143398378 -0.5385712180
0.7223081922 -0.7864035713 0.0000000000 0.1244419642 -0.2428080737 -652.2533472571 0.0143956944 -0.5386942753
0.7311270611 -0.7598322099 0.0000000000 0.0981100987 -0.2546019054 -655.4154275048 0.0144474567 -0.5387658294
0.7389415270 -0.7328998956 0.0000000000 0.0687720477 -0.2629523049 -655.8974000107 0.0144971572 -0.5387856121
0.7457427784 -0.7056438058 0.0000000000 0.0370925206 -0.2678009485 -653.1983511147 0.0145468442 -0.5387531057
0.7515233432 -0.6781012025 0.0000000000 0.0038864629 -0.2690852674 -646.9325418340 0.0145984882 -0.5386674975
0.7562770188 -0.6503093616 0.0000000000 -0.0299056996 -0.2667526716 -636.8646515101 0.0146538991 -0.5385276623
0.7599988079 -0.6223055294 0.0000000000 -0.0632454398 -0.2607788091 -622.9392367089 0.0147146504 -0.5383321727
0.7626848616 -0.5941269066 0.0000000000 -0.0950315561 -0.2511868931 -605.3002583527 0.0147820137 -0.5380793367
0.7643324343 -0.5658106594 0.0000000000 -0.1241463810 -0.2380675304 -584.2965154575 0.0148569057 -0.5377672640
0.7649398519 -0.5373939586 0.0000000000 -0.1495138112 -0.2215991328 -560.4695875397 0.0149398519 -0.5373939590
0.7645064938 -0.5089140443 0.0000000000 -0.1701682929 -0.2020679160 -534.5224511131 0.0150309652 -0.5369574403
0.7630327860 -0.4804083115 0.0000000000 -0.1853309775 -0.1798846504 -507.2693982197 0.0151299381 -0.5364558820
0.7605202034 -0.4519144121 0.0000000000 -0.1944856011 -0.1555940369 -479.5711562762 0.0152360460 -0.5358877694
0.7569712782 -0.4234703633 0.0000000000 -0.1974435889 -0.1298727945 -452.2625923491 0.0153481586 -0.5352520632
0.7523896163 -0.3951146538 0.0000000000 -0.1943870814 -0.1035144652 -426.0829895492 0.0154647614 -0.5345483594
0.7467799227 -0.3668863355 0.0000000000 -0.1858809639 -0.0774019317 -401.6194807919 0.0155839886 -0.5337770362
0.7401480436 -0.3388250921 0.0000000000 -0.1728501025 -0.0524714458 -379.2722733719 0.0157036740 -0.5329393762
0.7325010307 -0.3109712734 0.0000000000 -0.1565240607 -0.0296730569 -359.2461609418 0.0158214264 -0.5320376544
0.7238472351 -0.2833658858 0.0000000000 -0.1383559476 -0.0099302777 -341.5675983098 0.0159347374 -0.5310751825
0.7141964380 -0.2560505322 0.0000000000 -0.1199217754 0.0059039549 -326.1217226797 0.0160411266 -0.5300563007
0.7035600197 -0.2290672908 0.0000000000 -0.1027994297 0.0171059530 -312.7005263878 0.0161383278 -0.5289863092
0.6919511633 -0.2024585233 0.0000000000 -0.0884114127 0.0231711301 -301.0530441097 0.0162245124 -0.5278713278
0.6793850736 -0.1762666020 0.0000000000 -0.0777964220 0.0239480484 -290.9314804508 0.0162985286 -0.5267180733
0.6658791577 -0.1505335514 0.0000000000 -0.0712669004 0.0198099110 -282.1328540784 0.0163601050 -0.5255335515
0.6514530670 -0.1253006280 0.0000000000 -0.0679531146 0.0118152155 -274.5392414523 0.0164099176 -0.5243246855
0.6361284694 -0.1006079281 0.0000000000 -0.0653780510 0.0017510124 -268.1512521807 0.0164493887 -0.5230979717
0.6199284672 -0.0764942340 0.0000000000 -0.0594069546 -0.0080807520 -263.0863760413 0.0164801324 -0.5218593733
0.6028767449 -0.0529975086 0.0000000000 -0.0449312826 -0.0153954846 -259.5048584079 0.0165031331 -0.5206148601
0.5849966008 -0.0301570528 0.0000000000 -0.0172352308 -0.0186134306 -257.4739237445 0.0165178085 -0.5193726114
0.5663104868 -0.0080199579 0.0000000000 0.0266040952 -0.0173328908 -256.8513991924 0.0165215830 -0.5181495113
0.5242198515 0.0361356095 0.0000000000 0.1726317273 -0.0034378730 -258.6352214049 0.0162586728 -0.5156573235
0.5007264314 0.0577847783 0.0000000000 0.2736708790 0.0074152833 -260.3304848780 0.0160020031 -0.5145282729
0.4764047013 0.0783331363 0.0000000000 0.3872826246 0.0199180190 -262.1342839239 0.0157451669 -0.5135222458
0.4512958833 0.0977682871 0.0000000000 0.5098394567 0.0343917545 -263.9687645418 0.0154882719 -0.5126182509
0.4254420877 0.1160682439 0.0000000000 0.6365864302 0.0512725746 -265.8356260878 0.0152309692 -0.5118066148
0.3988851336 0.1332074144 0.0000000000 0.7616104834 0.0705768770 -267.7368490276 0.0149713469 -0.5110830514
0.3716674284 0.1491582747 0.0000000000 0.8786869554 0.0917542011 -269.6234884353 0.0147068837 -0.5104470388
0.3438326305 0.1638922512 0.0000000000 0.9825149492 0.1138689474 -271.3912256762 0.0144351889 -0.5099009853
0.3154260354 0.1773808048 0.0000000000 1.0696741416 0.1359099777 -272.9130492804 0.0141544670 -0.5094491902
0.2864946379 0.1895965044 0.0000000000 1.1389495367 0.1570552748 -274.0764853805 0.0138636601 -0.5090968117
0.2570869945 0.2005138801 0.0000000000 1.1910630080 0.1768130971 -274.8022142976 0.0135623927 -0.5088490512
0.2272530248 0.2101100293 0.0000000000 1.2280612397 0.1950385894 -275.0425721605 0.0132508568 -0.5087105826
0.1970438401 0.2183650412 0.0000000000 1.2526297270 0.2118644993 -274.7686817711 0.0129297248 -0.5086851583
0.1665116272 0.2252622947 0.0000000000 1.2675207893 0.2275942295 -273.9544780177 0.0126001207 -0.5087753393
0.1357095823 0.2307886489 0.0000000000 1.2751786036 0.2425967833 -272.5628631573 0.0122636397 -0.5089823287
0.1046918676 0.2349345232 0.0000000000 1.2775603812 0.2572266122 -270.5367354855 0.0119223943 -0.5093059117
0.0735135618 0.2376938684 0.0000000000 1.2761061131 0.2717751881 -267.7956855621 0.0115790528 -0.5097445013
0.0422305774 0.2390640505 0.0000000000 1.2717967850 0.2864502329 -264.2376380411 0.0112368469 -0.5102952683
0.0108995314 0.2390456843 0.0000000000 1.2652500261 0.3013739267 -259.7438518329 0.0108995316 -0.5109543157
-0.0204224343 0.2376424668 0.0000000000 1.2568194379 0.3165914145 -254.1855433953 0.0105712965 -0.5117168520
-0.0516778732 0.2348610466 0.0000000000 1.2466802799 0.3320831601 -247.4307612698 0.0102566360 -0.5125773231
-0.0828092792 0.2307109532 0.0000000000 1.2348958309 0.3477773312 -239.3506956397 0.0099601944 -0.5135294816
-0.1137593411 0.2252045849 0.0000000000 1.2214652712 0.3635604912 -229.8251056185 0.0096866018 -0.5145663926
-0.1444711939 0.2183572394 0.0000000000 1.2063566380 0.3792861997 -218.7468736871 0.0094403129 -0.5156803946
-0.1748886597 0.2101871643 0.0000000000 1.1895288714 0.3947817868 -206.0258452645 0.0092254559 -0.5168630351
-0.2049564751 0.2007156065 0.0000000000 1.1709463923 0.4098538105 -191.5921309780 0.0090456932 -0.5181050053
-0.2346205081 0.1899668478 0.0000000000 1.1505887751 0.4242927098 -175.3990005613 0.0089040940 -0.5193960834
-0.2638279606 0.1779682268 0.0000000000 1.1284572568 0.4378770665 -157.4254295157 0.0088030175 -0.5207250892
-0.2925275586 0.1647501534 0.0000000000 1.1045791875 0.4503777697 -137.6783019122 0.0087440101 -0.5220798415
-0.3206697198 0.1503461390 0.0000000000 1.0790110858 0.4615622578 -116.1942387395 0.0087277221 -0.5234470974
-0.3482066922 0.1347928818 0.0000000000 1.0518406878 0.4711989173 -93.0410036976 0.0087538527 -0.5248124315
-0.3750926487 0.1181304939 0.0000000000 1.0231882470 0.4790616343 -68.3184800851 0.0088211383 -0.5261599718
-0.4012837124 0.1004030719 0.0000000000 0.9932073084 0.4849343622 -42.1591404401 0.0089274064 -0.5274717867
-0.4267378622 0.0816601292 0.0000000000 0.9620856133 0.4886155085 -14.7287484943 0.0090697495 -0.5287264086
-0.4514146034 0.0619603819 0.0000000000 0.9300468413 0.4899208052 13.7745543273 0.0092449313 -0.5298950001
-0.4752744736 0.0413829911 0.0000000000 0.8973614607 0.4886849417 43.1072709755 0.0094499550 -0.5309300599
-0.4982809803 0.0200659340 0.0000000000 0.8643647190 0.4847351373 73.0141478001 0.0096801986 -0.5317269989
-0.5415883986 -0.0260290041 0.0000000000 0.7972375301 0.4693485308 133.8557640672 0.0102045346 -0.5339901826
-0.5618382754 -0.0508037555 0.0000000000 0.7634918275 0.4576330879 164.5805562476 0.0104747759 -0.5355281837
-0.5811071640 -0.0761842099 0.0000000000 0.7304563976 0.4429586011 194.8530206580 0.0107482182 -0.5368437443
-0.5993603763 -0.1022041296 0.0000000000 0.6983774369 0.4254295206 224.4109772913 0.0110261618 -0.5380117410
-0.6165693430 -0.1288482515 0.0000000000 0.6675187293 0.4051483496 252.9767966111 0.0113055158 -0.5390593698
-0.6327063221 -0.1560851475 0.0000000000 0.6381436016 0.3822397076 280.2791187979 0.0115841438 -0.5399989341
-0.6477443566 -0.1838767172 0.0000000000 0.6105014849 0.3568550684 306.0600783715 0.0118609570 -0.5408372617
-0.6616575680 -0.2121813899 0.0000000000 0.5848220317 0.3291710748 330.0802421066 0.0121356685 -0.5415788313
-0.6744213465 -0.2409553474 0.0000000000 0.5613113020 0.2993864870 352.1220908417 0.0124086486 -0.5422269156
-0.6860124933 -0.2701530251 0.0000000000 0.5401493858 0.2677184588 371.9925032935 0.0126808228 -0.5427840028
-0.6964093504 -0.2997273334 0.0000000000 0.5214889377 0.2343985907 389.5244456191 0.0129535810 -0.5432519351
-0.7055919308 -0.3296297761 0.0000000000 0.5054544264 0.1996689428 404.5779682475 0.0132286811 -0.5436319440
-0.7135420579 -0.3598105425 0.0000000000 0.4921419874 0.1637781456 417.0405716819 0.0135081417 -0.5439246576
-0.7202435156 -0.3902186118 0.0000000000 0.4816198611 0.1269777208 426.8269925011 0.0137941185 -0.5441301182
-0.7256822121 -0.4208018841 0.0000000000 0.4739294339 0.0895186931 433.8784724342 0.0140887655 -0.5442478265
-0.7298463543 -0.4515073465 0.0000000000 0.4690868653 0.0516485340 438.1615893074 0.0143940806 -0.5442768196
-0.7327266250 -0.4822812735 0.0000000000 0.4670851823 0.0136084480 439.6667269580 0.0147117448 -0.5442157823
-0.7343163523 -0.5130694592 0.0000000000 0.4678966132 -0.0243689819 438.4062475789 0.0150429665 -0.5440631896
-0.7346116512 -0.5438174781 0.0000000000 0.4714748983 -0.0620617178 434.4124113084 0.0153883488 -0.5438174778
-0.7336115222 -0.5744709715 0.0000000000 0.4777574947 -0.0992597086 427.7351460525 0.0157477966 -0.5434772405
-0.7313178908 -0.6049759552 0.0000000000 0.4866676231 -0.1357658482 418.4397713146 0.0161204790 -0.5430414458
-0.7277355799 -0.6352791469 0.0000000000 0.4981161173 -0.1713964684 406.6047582781 0.0165048549 -0.5425096731
-0.7228722168 -0.6653283067 0.0000000000 0.5120031898 -0.2059814116 392.3196172898 0.0168987607 -0.5418823637