 TITLE = "Tecplot data"
 VARIABLES = "X", "Y", "Z" "U", "V", "p", "dispX", "dispY"
 ZONE SOLUTIONTIME=169.900000, NODES=26114 , ELEMENTS=25916, DATAPACKING=POINT, ZONETYPE=FEQUADRILATERAL
0.3535533906 0.3535533906 0.0000000000 0.0000000000 0.0000000000 -313.9936821928 0.0000000000 0.0000000000
0.3535533908 -0.3535533903 0.0000000000 0.0000000000 0.0000000000 -451.8838733149 0.0000000000 0.0000000000
-0.3535533907 0.3535533905 0.0000000000 0.0000000000 0.0000000000 -60.4297337288 0.0000000000 0.0000000000
-0.3535533904 -0.3535533908 0.0000000000 0.0000000000 0.0000000000 -164.0955024881 0.0000000000 0.0000000000
0.5303300858 0.5303300859 0.0000000000 0.1582996590 -0.0106071700 -295.1364543816 0.0000000000 0.0000000000
0.5303300863 -0.5303300855 0.0000000000 0.2648983268 -0.0293407657 -429.8827353068 0.0000000000 0.0000000000
-0.5303300861 0.5303300857 0.0000000000 0.8265172815 0.5012202162 83.0432608240 0.0000000000 0.0000000000
-0.5303300856 -0.5303300862 0.0000000000 0.8728358638 -0.5341359918 13.9693463790 0.0000000000 0.0000000000
1.0606601717 1.0606601719 0.0000000000 1.2140723322 0.0808759372 -173.5424742276 0.0000000000 0.0000000000
1.0606601725 -1.0606601710 0.0000000000 1.2548255183 0.1034390953 -305.2660801823 0.0000000000 0.0000000000
-1.0606601721 1.0606601715 0.0000000000 0.9326004236 0.1762262904 99.9532774738 0.0000000000 0.0000000000
-1.0606601712 -1.0606601723 0.0000000000 0.9537533350 -0.1822873496 63.9218201329 0.0000000000 0.0000000000
4.2000000000 3.3000000000 0.0000000000 1.0128179729 -0.0177652539 3.4815427664 0.0000000000 0.0000000000
4.2000000000 -3.3000000000 0.0000000000 1.0628743168 0.0217404100 -3.8095728557 0.0000000000 0.0000000000
20.0000000000 4.7000000000 0.0000000000 1.0283459871 0.0112743700 -0.1193719166 0.0000000000 0.0000000000
20.0000000000 -4.7000000000 0.0000000000 1.0409121671 -0.0276165073 0.5265599687 0.0000000000 0.0000000000
-10.0000000000 15.0000000000 0.0000000000 1.0000000000 0.0000000000 25.8153281328 0.0000000000 0.0000000000
20.0000000000 15.0000000000 0.0000000000 1.0215229433 0.0000000000 0.0225523532 0.0000000000 0.0000000000
20.0000000000 -15.0000000000 0.0000000000 1.0214973196 0.0000000000 0.0222275052 0.0000000000 0.0000000000
-10.0000000000 -15.0000000000 0.0000000000 1.0000000000 0.0000000000 18.6614755658 0.0000000000 0.0000000000
0.3665259362 -0.3400863686 0.0000000000 0.0000000000 0.0000000000 -448.0615965442 0.0000000000 0.0000000000
0.3789858618 -0.3261437054 0.0000000000 0.0000000000 0.0000000000 -445.1735932265 0.0000000000 0.0000000000
0.3909157414 -0.3117449007 0.0000000000 0.0000000000 0.0000000000 -442.6036998025 0.0000000000 0.0000000000
0.4022988901 -0.2969100925 0.0000000000 0.0000000000 0.0000000000 -440.4370118465 0.0000000000 0.0000000000
0.4131193873 -0.2816600288 0.0000000000 0.0000000000 0.0000000000 -438.4279558993 0.0000000000 0.0000000000
0.4233620998 -0.2660160380 0.0000000000 0.0000000000 0.0000000000 -436.4688134618 0.0000000000 0.0000000000
0.4330127020 -0.2499999997 0.0000000000 0.0000000000 0.0000000000 -434.3944013874 0.0000000000 0.0000000000
0.4420576969 -0.2336343139 0.0000000000 0.0000000000 0.0000000000 -432.0806609478 0.0000000000 0.0000000000
0.4504844341 -0.2169418693 0.0000000000 0.0000000000 0.0000000000 -429.4073336680 0.0000000000 0.0000000000
0.4582811280 -0.1999460119 0.0000000000 0.0000000000 0.0000000000 -426.2805940899 0.0000000000 0.0000000000
0.4654368744 -0.1826705119 0.0000000000 0.0000000000 0.0000000000 -422.6265119761 0.0000000000 0.0000000000
0.4719416652 -0.1651395307 0.0000000000 0.0000000000 0.0000000000 -418.3970659596 0.0000000000 0.0000000000
0.4777864030 -0.1473775870 0.0000000000 0.0000000000 0.0000000000 -413.5695042051 0.0000000000 0.0000000000
0.4829629132 -0.1294095223 0.0000000000 0.0000000000 0.0000000000 -408.1479677275 0.0000000000 0.0000000000
0.4874639561 -0.1112604667 0.0000000000 0.0000000000 0.0000000000 -402.1628591578 0.0000000000 0.0000000000
0.4912832367 -0.0929558033 0.0000000000 0.0000000000 0.0000000000 -395.6697544390 0.0000000000 0.0000000000
0.4944154131 -0.0745211329 0.0000000000 0.0000000000 0.0000000000 -388.7467341567 0.0000000000 0.0000000000
0.4968561050 -0.0559822378 0.0000000000 0.0000000000 0.0000000000 -381.4906185918 0.0000000000 0.0000000000
0.4986018986 -0.0373650466 0.0000000000 0.0000000000 0.0000000000 -374.0120619122 0.0000000000 0.0000000000
0.4996503524 -0.0186955969 0.0000000000 0.0000000000 0.0000000000 -366.4299576405 0.0000000000 0.0000000000
0.5000000000 0.0000000002 0.0000000000 0.0000000000 0.0000000000 -358.8655627448 0.0000000000 0.0000000000
0.4996503524 0.0186955973 0.0000000000 0.0000000000 0.0000000000 -351.4368550406 0.0000000000 0.0000000000
0.4986018986 0.0373650470 0.0000000000 0.0000000000 0.0000000000 -344.2536258957 0.0000000000 0.0000000000
0.4968561049 0.0559822382 0.0000000000 0.0000000000 0.0000000000 -337.4136484384 0.0000000000 0.0000000000
0.4944154131 0.0745211333 0.0000000000 0.0000000000 0.0000000000 -331.0002893394 0.0000000000 0.0000000000
0.4912832366 0.0929558037 0.0000000000 0.0000000000 0.0000000000 -325.0814362097 0.0000000000 0.0000000000
0.4874639561 0.1112604671 0.0000000000 0.0000000000 0.0000000000 -319.7100378635 0.0000000000 0.0000000000
0.4829629131 0.1294095227 0.0000000000 0.0000000000 0.0000000000 -314.9252860410 0.0000000000 0.0000000000
0.4777864029 0.1473775873 0.0000000000 0.0000000000 0.0000000000 -310.7553622484 0.0000000000 0.0000000000
0.4719416651 0.1651395311 0.0000000000 0.0000000000 0.0000000000 -307.2189480894 0.0000000000 0.0000000000
0.4654368743 0.1826705123 0.0000000000 0.0000000000 0.0000000000 -304.3292963682 0.0000000000 0.0000000000
0.4582811279 0.1999460123 0.0000000000 0.0000000000 0.0000000000 -302.0928453891 0.0000000000 0.0000000000
0.4504844339 0.2169418697 0.0000000000 0.0000000000 0.0000000000 -300.5157766080 0.0000000000 0.0000000000
0.4420576967 0.2336343142 0.0000000000 0.0000000000 0.0000000000 -299.5940539069 0.0000000000 0.0000000000
0.4330127018 0.2500000001 0.0000000000 0.0000000000 0.0000000000 -299.3304141376 0.0000000000 0.0000000000
0.4233620996 0.2660160383 0.0000000000 0.0000000000 0.0000000000 -299.7018747734 0.0000000000 0.0000000000
0.4131193871 0.2816600291 0.0000000000 0.0000000000 0.0000000000 -300.7134937598 0.0000000000 0.0000000000
0.4022988898 0.2969100929 0.0000000000 0.0000000000 0.0000000000 -302.3022791369 0.0000000000 0.0000000000
0.3909157412 0.3117449010 0.0000000000 0.0000000000 0.0000000000 -304.5013679357 0.0000000000 0.0000000000
0.3789858615 0.3261437057 0.0000000000 0.0000000000 0.0000000000 -307.1671427683 0.0000000000 0.0000000000
0.3665259359 0.3400863689 0.0000000000 0.0000000000 0.0000000000 -310.4217303339 0.0000000000 0.0000000000
0.3386407858 0.3678619554 0.0000000000 0.0000000000 0.0000000000 -318.6390107198 0.0000000000 0.0000000000
0.3231496189 0.3815420341 0.0000000000 0.0000000000 0.0000000000 -323.6622901363 0.0000000000 0.0000000000
0.3071063563 0.3945702547 0.0000000000 0.0000000000 0.0000000000 -329.2663225511 0.0000000000 0.0000000000
0.2905384077 0.4069243587 0.0000000000 0.0000000000 0.0000000000 -335.3246707924 0.0000000000 0.0000000000
0.2734740790 0.4185832392 0.0000000000 0.0000000000 0.0000000000 -341.9687737532 0.0000000000 0.0000000000
0.2559425245 0.4295269772 0.0000000000 0.0000000000 0.0000000000 -349.1791645158 0.0000000000 0.0000000000
0.2379736965 0.4397368756 0.0000000000 0.0000000000 0.0000000000 -357.0279418239 0.0000000000 0.0000000000
0.2195982944 0.4491954910 0.0000000000 0.0000000000 0.0000000000 -365.5166106275 0.0000000000 0.0000000000
0.2008477123 0.4578866634 0.0000000000 0.0000000000 0.0000000000 -374.6556659177 0.0000000000 0.0000000000
0.1817539852 0.4657955441 0.0000000000 0.0000000000 0.0000000000 -384.4062668030 0.0000000000 0.0000000000
0.1623497345 0.4729086209 0.0000000000 0.0000000000 0.0000000000 -394.7044470313 0.0000000000 0.0000000000
0.1426681120 0.4792137413 0.0000000000 0.0000000000 0.0000000000 -405.4414940880 0.0000000000 0.0000000000
0.1227427435 0.4847001330 0.0000000000 0.0000000000 0.0000000000 -416.4716357868 0.0000000000 0.0000000000
0.1026076710 0.4893584227 0.0000000000 0.0000000000 0.0000000000 -427.6065223764 0.0000000000 0.0000000000
0.0822972951 0.4931806517 0.0000000000 0.0000000000 0.0000000000 -438.6191240814 0.0000000000 0.0000000000
0.0618463155 0.4961602899 0.0000000000 0.0000000000 0.0000000000 -449.2446271267 0.0000000000 0.0000000000
0.0412896726 0.4982922465 0.0000000000 0.0000000000 0.0000000000 -459.1855012278 0.0000000000 0.0000000000
0.0206624870 0.4995728792 0.0000000000 0.0000000000 0.0000000000 -468.1169665030 0.0000000000 0.0000000000
-0.0000000001 0.5000000000 0.0000000000 0.0000000000 0.0000000000 -475.6948833134 0.0000000000 0.0000000000
-0.0206624872 0.4995728792 0.0000000000 0.0000000000 0.0000000000 -481.5646496103 0.0000000000 0.0000000000
-0.0412896728 0.4982922465 0.0000000000 0.0000000000 0.0000000000 -485.3713222511 0.0000000000 0.0000000000
-0.0618463157 0.4961602899 0.0000000000 0.0000000000 0.0000000000 -486.7701305037 0.0000000000 0.0000000000
-0.0822972953 0.4931806517 0.0000000000 0.0000000000 0.0000000000 -485.4370297486 0.0000000000 0.0000000000
-0.1026076712 0.4893584226 0.0000000000 0.0000000000 0.0000000000 -481.0786897161 0.0000000000 0.0000000000
-0.1227427437 0.4847001329 0.0000000000 0.0000000000 0.0000000000 -473.4415183952 0.0000000000 0.0000000000
-0.1426681122 0.4792137412 0.0000000000 0.0000000000 0.0000000000 -462.3193419869 0.0000000000 0.0000000000
-0.1623497347 0.4729086208 0.0000000000 0.0000000000 0.0000000000 -447.5595123189 0.0000000000 0.0000000000
-0.1817539854 0.4657955440 0.0000000000 0.0000000000 0.0000000000 -429.0673094892 0.0000000000 0.0000000000
-0.2008477124 0.4578866633 0.0000000000 0.0000000000 0.0000000000 -406.8086258793 0.0000000000 0.0000000000
-0.2195982945 0.4491954909 0.0000000000 0.0000000000 0.0000000000 -380.8110034324 0.0000000000 0.0000000000
-0.2379736966 0.4397368755 0.0000000000 0.0000000000 0.0000000000 -351.1631654872 0.0000000000 0.0000000000
-0.2559425247 0.4295269771 0.0000000000 0.0000000000 0.0000000000 -318.0132232268 0.0000000000 0.0000000000
-0.2734740792 0.4185832391 0.0000000000 0.0000000000 0.0000000000 -281.5657509529 0.0000000000 0.0000000000
-0.2905384078 0.4069243586 0.0000000000 0.0000000000 0.0000000000 -242.0779158992 0.0000000000 0.0000000000
-0.3071063565 0.3945702546 0.0000000000 0.0000000000 0.0000000000 -199.8548270907 0.0000000000 0.0000000000
-0.3231496190 0.3815420340 0.0000000000 0.0000000000 0.0000000000 -155.2442451812 0.0000000000 0.0000000000
-0.3386407859 0.3678619552 0.0000000000 0.0000000000 0.0000000000 -108.6307832736 0.0000000000 0.0000000000
-0.3678619554 0.3386407857 0.0000000000 0.0000000000 0.0000000000 -11.0806744688 0.0000000000 0.0000000000
-0.3815420342 0.3231496188 0.0000000000 0.0000000000 0.0000000000 38.9589734070 0.0000000000 0.0000000000
-0.3945702548 0.3071063562 0.0000000000 0.0000000000 0.0000000000 89.2202637547 0.0000000000 0.0000000000
-0.4069243587 0.2905384076 0.0000000000 0.0000000000 0.0000000000 139.2287725595 0.0000000000 0.0000000000
-0.4185832392 0.2734740789 0.0000000000 0.0000000000 0.0000000000 188.5102774254 0.0000000000 0.0000000000
-0.4295269773 0.2559425244 0.0000000000 0.0000000000 0.0000000000 236.5960307043 0.0000000000 0.0000000000
-0.4397368757 0.2379736964 0.0000000000 0.0000000000 0.0000000000 283.0276354855 0.0000000000 0.0000000000
-0.4491954910 0.2195982943 0.0000000000 0.0000000000 0.0000000000 327.3615599813 0.0000000000 0.0000000000
-0.4578866634 0.2008477122 0.0000000000 0.0000000000 0.0000000000 369.1733298943 0.0000000000 0.0000000000
-0.4657955441 0.1817539851 0.0000000000 0.0000000000 0.0000000000 408.0614273849 0.0000000000 0.0000000000
-0.4729086209 0.1623497344 0.0000000000 0.0000000000 0.0000000000 443.6509087141 0.0000000000 0.0000000000
-0.4792137413 0.1426681119 0.0000000000 0.0000000000 0.0000000000 475.5967378301 0.0000000000 0.0000000000
-0.4847001330 0.1227427434 0.0000000000 0.0000000000 0.0000000000 503.5868235655 0.0000000000 0.0000000000
-0.4893584227 0.1026076709 0.0000000000 0.0000000000 0.0000000000 527.3447440241 0.0000000000 0.0000000000
-0.4931806517 0.0822972949 0.0000000000 0.0000000000 0.0000000000 546.6321418273 0.0000000000 0.0000000000
-0.4961602899 0.0618463154 0.0000000000 0.0000000000 0.0000000000 561.2507763375 0.0000000000 0.0000000000
-0.4982922465 0.0412896725 0.0000000000 0.0000000000 0.0000000000 571.0442223600 0.0000000000 0.0000000000
-0.4995728792 0.0206624869 0.0000000000 0.0000000000 0.0000000000 575.8992081498 0.0000000000 0.0000000000
-0.5000000000 -0.0000000002 0.0000000000 0.0000000000 0.0000000000 575.7465883710 0.0000000000 0.0000000000
-0.4995728792 -0.0206624873 0.0000000000 0.0000000000 0.0000000000 570.5619498030 0.0000000000 0.0000000000
-0.4982922465 -0.0412896729 0.0000000000 0.0000000000 0.0000000000 560.3658491102 0.0000000000 0.0000000000
-0.4961602898 -0.0618463158 0.0000000000 0.0000000000 0.0000000000 545.2236830456 0.0000000000 0.0000000000
-0.4931806517 -0.0822972954 0.0000000000 0.0000000000 0.0000000000 525.2451922140 0.0000000000 0.0000000000
-0.4893584226 -0.1026076713 0.0000000000 0.0000000000 0.0000000000 500.5836001663 0.0000000000 0.0000000000
-0.4847001329 -0.1227427438 0.0000000000 0.0000000000 0.0000000000 471.4343902408 0.0000000000 0.0000000000
-0.4792137412 -0.1426681123 0.0000000000 0.0000000000 0.0000000000 438.0337233011 0.0000000000 0.0000000000
-0.4729086208 -0.1623497348 0.0000000000 0.0000000000 0.0000000000 400.6565003152 0.0000000000 0.0000000000
-0.4657955439 -0.1817539855 0.0000000000 0.0000000000 0.0000000000 359.6140745651 0.0000000000 0.0000000000
-0.4578866632 -0.2008477125 0.0000000000 0.0000000000 0.0000000000 315.2516190769 0.0000000000 0.0000000000
-0.4491954908 -0.2195982946 0.0000000000 0.0000000000 0.0000000000 267.9451556057 0.0000000000 0.0000000000
-0.4397368755 -0.2379736967 0.0000000000 0.0000000000 0.0000000000 218.0982521821 0.0000000000 0.0000000000
-0.4295269771 -0.2559425248 0.0000000000 0.0000000000 0.0000000000 166.1383968847 0.0000000000 0.0000000000
-0.4185832390 -0.2734740793 0.0000000000 0.0000000000 0.0000000000 112.5130562892 0.0000000000 0.0000000000
-0.4069243585 -0.2905384079 0.0000000000 0.0000000000 0.0000000000 57.6854281058 0.0000000000 0.0000000000
-0.3945702545 -0.3071063565 0.0000000000 0.0000000000 0.0000000000 2.1298991309 0.0000000000 0.0000000000
-0.3815420339 -0.3231496191 0.0000000000 0.0000000000 0.0000000000 -53.6727779705 0.0000000000 0.0000000000
-0.3678619552 -0.3386407860 0.0000000000 0.0000000000 0.0000000000 -109.2405719808 0.0000000000 0.0000000000
-0.3386407856 -0.3678619555 0.0000000000 0.0000000000 0.0000000000 -217.7691823370 0.0000000000 0.0000000000
-0.3231496187 -0.3815420343 0.0000000000 0.0000000000 0.0000000000 -269.8085351416 0.0000000000 0.0000000000
-0.3071063561 -0.3945702549 0.0000000000 0.0000000000 0.0000000000 -319.7816381367 0.0000000000 0.0000000000
-0.2905384075 -0.4069243588 0.0000000000 0.0000000000 0.0000000000 -367.2836261191 0.0000000000 0.0000000000
-0.2734740788 -0.4185832393 0.0000000000 0.0000000000 0.0000000000 -411.9425747851 0.0000000000 0.0000000000
-0.2559425243 -0.4295269773 0.0000000000 0.0000000000 0.0000000000 -453.4252615608 0.0000000000 0.0000000000
-0.2379736963 -0.4397368757 0.0000000000 0.0000000000 0.0000000000 -491.4426796455 0.0000000000 0.0000000000
-0.2195982942 -0.4491954911 0.0000000000 0.0000000000 0.0000000000 -525.7551575177 0.0000000000 0.0000000000
-0.2008477121 -0.4578866634 0.0000000000 0.0000000000 0.0000000000 -556.1769132965 0.0000000000 0.0000000000
-0.1817539850 -0.4657955441 0.0000000000 0.0000000000 0.0000000000 -582.5798535554 0.0000000000 0.0000000000
-0.1623497343 -0.4729086209 0.0000000000 0.0000000000 0.0000000000 -604.8964124776 0.0000000000 0.0000000000
-0.1426681118 -0.4792137413 0.0000000000 0.0000000000 0.0000000000 -623.1212234183 0.0000000000 0.0000000000
-0.1227427433 -0.4847001330 0.0000000000 0.0000000000 0.0000000000 -637.3114246031 0.0000000000 0.0000000000
-0.1026076708 -0.4893584227 0.0000000000 0.0000000000 0.0000000000 -647.5854280018 0.0000000000 0.0000000000
-0.0822972948 -0.4931806518 0.0000000000 0.0000000000 0.0000000000 -654.1200271073 0.0000000000 0.0000000000
-0.0618463153 -0.4961602899 0.0000000000 0.0000000000 0.0000000000 -657.1457881605 0.0000000000 0.0000000000
-0.0412896724 -0.4982922465 0.0000000000 0.0000000000 0.0000000000 -656.9407554256 0.0000000000 0.0000000000
-0.0206624868 -0.4995728792 0.0000000000 0.0000000000 0.0000000000 -653.8226060164 0.0000000000 0.0000000000
0.0000000003 -0.5000000000 0.0000000000 0.0000000000 0.0000000000 -648.1394936280 0.0000000000 0.0000000000
0.0206624874 -0.4995728792 0.0000000000 0.0000000000 0.0000000000 -640.2599350032 0.0000000000 0.0000000000
0.0412896730 -0.4982922465 0.0000000000 0.0000000000 0.0000000000 -630.5621616604 0.0000000000 0.0000000000
0.0618463159 -0.4961602898 0.0000000000 0.0000000000 0.0000000000 -619.4234537489 0.0000000000 0.0000000000
0.0822972955 -0.4931806516 0.0000000000 0.0000000000 0.0000000000 -607.2099191270 0.0000000000 0.0000000000
0.1026076714 -0.4893584226 0.0000000000 0.0000000000 0.0000000000 -594.2672990353 0.0000000000 0.0000000000
0.1227427439 -0.4847001329 0.0000000000 0.0000000000 0.0000000000 -580.9130441588 0.0000000000 0.0000000000
0.1426681124 -0.4792137411 0.0000000000 0.0000000000 0.0000000000 -567.4304048984 0.0000000000 0.0000000000
0.1623497349 -0.4729086207 0.0000000000 0.0000000000 0.0000000000 -554.0640871433 0.0000000000 0.0000000000
0.1817539856 -0.4657955439 0.0000000000 0.0000000000 0.0000000000 -541.0193246554 0.0000000000 0.0000000000
0.2008477126 -0.4578866632 0.0000000000 0.0000000000 0.0000000000 -528.4613802641 0.0000000000 0.0000000000
0.2195982947 -0.4491954908 0.0000000000 0.0000000000 0.0000000000 -516.5222309834 0.0000000000 0.0000000000
0.2379736968 -0.4397368754 0.0000000000 0.0000000000 0.0000000000 -505.3000570773 0.0000000000 0.0000000000
0.2559425248 -0.4295269770 0.0000000000 0.0000000000 0.0000000000 -494.8801032697 0.0000000000 0.0000000000
0.2734740794 -0.4185832389 0.0000000000 0.0000000000 0.0000000000 -485.3122594773 0.0000000000 0.0000000000
0.2905384080 -0.4069243584 0.0000000000 0.0000000000 0.0000000000 -476.6775659928 0.0000000000 0.0000000000
0.3071063566 -0.3945702545 0.0000000000 0.0000000000 0.0000000000 -468.9527292897 0.0000000000 0.0000000000
0.3231496192 -0.3815420339 0.0000000000 0.0000000000 0.0000000000 -462.2964465254 0.0000000000 0.0000000000
0.3386407861 -0.3678619551 0.0000000000 0.0000000000 0.0000000000 -456.4030111713 0.0000000000 0.0000000000
0.5497889042 -0.5101295529 0.0000000000 0.2161404968 -0.0431045283 -428.6945020109 0.0000000000 0.0000000000
0.5684787927 -0.4892155581 0.0000000000 0.1752541182 -0.0589500285 -428.0231397465 0.0000000000 0.0000000000
0.5863736122 -0.4676173510 0.0000000000 0.1417752100 -0.0763085448 -427.8652617180 0.0000000000 0.0000000000
0.6034483351 -0.4453651388 0.0000000000 0.1147836644 -0.0945189070 -428.1366802728 0.0000000000 0.0000000000
0.6196790810 -0.4224900431 0.0000000000 0.0930656909 -0.1128764347 -428.7119647814 0.0000000000 0.0000000000
0.6350431497 -0.3990240570 0.0000000000 0.0753013263 -0.1306947467 -429.4342608911 0.0000000000 0.0000000000
0.6495190531 -0.3749999996 0.0000000000 0.0602397473 -0.1473610141 -430.1263923622 0.0000000000 0.0000000000
0.6630865453 -0.3504514708 0.0000000000 0.0468264989 -0.1623731171 -430.6027502854 0.0000000000 0.0000000000
0.6757266511 -0.3254128039 0.0000000000 0.0342683631 -0.1753553683 -430.6803380285 0.0000000000 0.0000000000
0.6874216921 -0.2999190178 0.0000000000 0.0220422712 -0.1860560738 -430.1887508580 0.0000000000 0.0000000000
0.6981553116 -0.2740057679 0.0000000000 0.0098662964 -0.1943334503 -428.9791765808 0.0000000000 0.0000000000
0.7079124979 -0.2477092961 0.0000000000 -0.0023476984 -0.2001364434 -426.9323384716 0.0000000000 0.0000000000
0.7166796045 -0.2210663804 0.0000000000 -0.0145449505 -0.2034853027 -423.9650185856 0.0000000000 0.0000000000
0.7244443698 -0.1941142835 0.0000000000 -0.0265738999 -0.2044547514 -420.0346772101 0.0000000000 0.0000000000
0.7311959342 -0.1668907001 0.0000000000 -0.0382244397 -0.2031609432 -415.1417617771 0.0000000000 0.0000000000
0.7369248550 -0.1394337050 0.0000000000 -0.0492583763 -0.1997522975 -409.3294886492 0.0000000000 0.0000000000
0.7416231197 -0.1117816993 0.0000000000 -0.0594334786 -0.1944036435 -402.6810931793 0.0000000000 0.0000000000
0.7452841575 -0.0839733567 0.0000000000 -0.0685226843 -0.1873127818 -395.3147345905 0.0000000000 0.0000000000
0.7479028479 -0.0560475699 0.0000000000 -0.0763296724 -0.1786984708 -387.3764082177 0.0000000000 0.0000000000
0.7494755286 -0.0280433954 0.0000000000 -0.0827014880 -0.1687988955 -379.0313652468 0.0000000000 0.0000000000
0.7500000000 0.0000000003 0.0000000000 -0.0875383881 -0.1578698197 -370.4546681535 0.0000000000 0.0000000000
0.7494755286 0.0280433960 0.0000000000 -0.0908006597 -0.1461817911 -361.8216049329 0.0000000000 0.0000000000
0.7479028479 0.0560475705 0.0000000000 -0.0925118474 -0.1340159468 -353.2987257233 0.0000000000 0.0000000000
0.7452841574 0.0839733573 0.0000000000 -0.0927576162 -0.1216581141 -345.0362320914 0.0000000000 0.0000000000
0.7416231196 0.1117816999 0.0000000000 -0.0916793582 -0.1093910495 -337.1623324329 0.0000000000 0.0000000000
0.7369248549 0.1394337056 0.0000000000 -0.0894616320 -0.0974848054 -329.7799815275 0.0000000000 0.0000000000
0.7311959341 0.1668907007 0.0000000000 -0.0863126698 -0.0861854347 -322.9661660254 0.0000000000 0.0000000000
0.7244443697 0.1941142840 0.0000000000 -0.0824375964 -0.0757025555 -316.7736062120 0.0000000000 0.0000000000
0.7166796043 0.2210663810 0.0000000000 -0.0780048439 -0.0661967579 -311.2344436593 0.0000000000 0.0000000000
0.7079124977 0.2477092967 0.0000000000 -0.0731076507 -0.0577683853 -306.3651960626 0.0000000000 0.0000000000
0.6981553114 0.2740057685 0.0000000000 -0.0677245055 -0.0504497523 -302.1720076598 0.0000000000 0.0000000000
0.6874216918 0.2999190184 0.0000000000 -0.0616846362 -0.0442031347 -298.6550493742 0.0000000000 0.0000000000
0.6757266509 0.3254128045 0.0000000000 -0.0546464102 -0.0389265790 -295.8109167805 0.0000000000 0.0000000000
0.6630865451 0.3504514714 0.0000000000 -0.0460966807 -0.0344684793 -293.6321753930 0.0000000000 0.0000000000
0.6495190528 0.3750000001 0.0000000000 -0.0353765811 -0.0306498943 -292.1039367372 0.0000000000 0.0000000000
0.6350431493 0.3990240575 0.0000000000 -0.0217336886 -0.0272910724 -291.1984788036 0.0000000000 0.0000000000
0.6196790807 0.4224900437 0.0000000000 -0.0043930062 -0.0242363711 -290.8701059788 0.0000000000 0.0000000000
0.6034483348 0.4453651393 0.0000000000 0.0173673792 -0.0213707330 -291.0530526289 0.0000000000 0.0000000000
0.5863736118 0.4676173515 0.0000000000 0.0441524462 -0.0186219822 -291.6646612798 0.0000000000 0.0000000000
0.5684787923 0.4892155585 0.0000000000 0.0764107752 -0.0159466251 -292.6142522176 0.0000000000 0.0000000000
0.5497889038 0.5101295534 0.0000000000 0.1144216062 -0.0133016225 -293.8101672570 0.0000000000 0.0000000000
0.5079611787 0.5517929331 0.0000000000 0.2136448523 -0.0073960586 -296.9188191758 0.0000000000 0.0000000000
0.4847244283 0.5723130512 0.0000000000 0.2759095406 -0.0036156242 -298.7528497016 0.0000000000 0.0000000000
0.4606595344 0.5918553821 0.0000000000 0.3445668945 0.0011561705 -300.7407365079 0.0000000000 0.0000000000
0.4358076115 0.6103865380 0.0000000000 0.4187887112 0.0073928421 -302.9209581934 0.0000000000 0.0000000000
0.4102111185 0.6278748587 0.0000000000 0.4973795545 0.0155488023 -305.3286267066 0.0000000000 0.0000000000
0.3839137867 0.6442904658 0.0000000000 0.5787771763 0.0259782583 -307.9782121053 0.0000000000 0.0000000000
0.3569605447 0.6596053135 0.0000000000 0.6611247329 0.0388756853 -310.8497645422 0.0000000000 0.0000000000
0.3293974415 0.6737932365 0.0000000000 0.7424094258 0.0542510358 -313.8808808471 0.0000000000 0.0000000000
0.3012715684 0.6868299950 0.0000000000 0.8206381415 0.0719399018 -316.9653372064 0.0000000000 0.0000000000
0.2726309778 0.6986933161 0.0000000000 0.8940112990 0.0916399084 -319.9581533457 0.0000000000 0.0000000000
0.2435246018 0.7093629313 0.0000000000 0.9610611498 0.1129608691 -322.6858325392 0.0000000000 0.0000000000
0.2140021681 0.7188206119 0.0000000000 1.0207345717 0.1354768921 -324.9594631653 0.0000000000 0.0000000000
0.1841141152 0.7270501995 0.0000000000 1.0724158888 0.1587715804 -326.5879160057 0.0000000000 0.0000000000
0.1539115065 0.7340376340 0.0000000000 1.1158976610 0.1824710929 -327.3887833016 0.0000000000 0.0000000000
0.1234459426 0.7397709776 0.0000000000 1.1513147052 0.2062632392 -327.1957385456 0.0000000000 0.0000000000
0.0927694733 0.7442404348 0.0000000000 1.1790588686 0.2299035222 -325.8621487431 0.0000000000 0.0000000000
0.0619345090 0.7474383698 0.0000000000 1.1996903759 0.2532108583 -323.2616363670 0.0000000000 0.0000000000
0.0309937305 0.7493593188 0.0000000000 1.2138575425 0.2760565162 -319.2867033580 0.0000000000 0.0000000000
-0.0000000002 0.7500000000 0.0000000000 1.2222318410 0.2983497723 -313.8465425850 0.0000000000 0.0000000000
-0.0309937308 0.7493593188 0.0000000000 1.2254609400 0.3200231551 -306.8649212216 0.0000000000 0.0000000000
-0.0619345093 0.7474383697 0.0000000000 1.2241390642 0.3410192695 -298.2786809202 0.0000000000 0.0000000000
-0.0927694736 0.7442404348 0.0000000000 1.2187920392 0.3612803102 -288.0370755574 0.0000000000 0.0000000000
-0.1234459429 0.7397709775 0.0000000000 1.2098735267 0.3807406524 -276.1019204843 0.0000000000 0.0000000000
-0.1539115068 0.7340376340 0.0000000000 1.1977689250 0.3993223984 -262.4483758685 0.0000000000 0.0000000000
-0.1841141155 0.7270501994 0.0000000000 1.1828038604 0.4169334712 -247.0661211944 0.0000000000 0.0000000000
-0.2140021684 0.7188206118 0.0000000000 1.1652548647 0.4334677196 -229.9606755087 0.0000000000 0.0000000000
-0.2435246021 0.7093629312 0.0000000000 1.1453605253 0.4488064898 -211.1546535296 0.0000000000 0.0000000000
-0.2726309781 0.6986933160 0.0000000000 1.1233320006 0.4628211784 -190.6888001617 0.0000000000 0.0000000000
-0.3012715687 0.6868299949 0.0000000000 1.0993622717 0.4753763640 -168.6227005176 0.0000000000 0.0000000000
-0.3293974418 0.6737932363 0.0000000000 1.0736338497 0.4863332102 -145.0351106706 0.0000000000 0.0000000000
-0.3569605450 0.6596053133 0.0000000000 1.0463248842 0.4955529113 -120.0238923600 0.0000000000 0.0000000000
-0.3839137870 0.6442904657 0.0000000000 1.0176137599 0.5029000255 -93.7055622448 0.0000000000 0.0000000000
-0.4102111188 0.6278748586 0.0000000000 0.9876823417 0.5082455909 -66.2144842717 0.0000000000 0.0000000000
-0.4358076117 0.6103865378 0.0000000000 0.9567180584 0.5114699597 -37.7017442265 0.0000000000 0.0000000000
-0.4606595347 0.5918553819 0.0000000000 0.9249150187 0.5124653165 -8.3337505241 0.0000000000 0.0000000000
-0.4847244286 0.5723130510 0.0000000000 0.8924743387 0.5111378648 21.7093935012 0.0000000000 0.0000000000
-0.5079611789 0.5517929329 0.0000000000 0.8596038436 0.5074096769 52.2357017855 0.0000000000 0.0000000000
-0.5517929332 0.5079611785 0.0000000000 0.7934331655 0.4925275393 113.9222900046 0.0000000000 0.0000000000
-0.5723130513 0.4847244282 0.0000000000 0.7605733416 0.4813091936 144.6572723987 0.0000000000 0.0000000000
-0.5918553822 0.4606595343 0.0000000000 0.7281613615 0.4675628258 175.0291246984 0.0000000000 0.0000000000
-0.6103865381 0.4358076114 0.0000000000 0.6964207248 0.4513065167 204.8173779045 0.0000000000 0.0000000000
-0.6278748588 0.4102111184 0.0000000000 0.6655730456 0.4325788610 233.8023428898 0.0000000000 0.0000000000
-0.6442904659 0.3839137866 0.0000000000 0.6358361846 0.4114388089 261.7672372506 0.0000000000 0.0000000000
-0.6596053135 0.3569605446 0.0000000000 0.6074223872 0.3879652875 288.5002521232 0.0000000000 0.0000000000
-0.6737932365 0.3293974414 0.0000000000 0.5805364554 0.3622566189 313.7965400755 0.0000000000 0.0000000000
-0.6868299951 0.3012715682 0.0000000000 0.5553739837 0.3344297530 337.4601078659 0.0000000000 0.0000000000
-0.6986933161 0.2726309777 0.0000000000 0.5321196789 0.3046193286 359.3056005701 0.0000000000 0.0000000000
-0.7093629314 0.2435246016 0.0000000000 0.5109457845 0.2729765798 379.1599660182 0.0000000000 0.0000000000
-0.7188206119 0.2140021679 0.0000000000 0.4920106222 0.2396680982 396.8639902382 0.0000000000 0.0000000000
-0.7270501995 0.1841141151 0.0000000000 0.4754572641 0.2048744657 412.2736957183 0.0000000000 0.0000000000
-0.7340376341 0.1539115064 0.0000000000 0.4614123390 0.1687887698 425.2615946501 0.0000000000 0.0000000000
-0.7397709776 0.1234459424 0.0000000000 0.4499849798 0.1316150149 435.7177895514 0.0000000000 0.0000000000
-0.7442404348 0.0927694732 0.0000000000 0.4412659113 0.0935664441 443.5509140166 0.0000000000 0.0000000000
-0.7474383698 0.0619345088 0.0000000000 0.4353266801 0.0548637902 448.6889067049 0.0000000000 0.0000000000
-0.7493593188 0.0309937304 0.0000000000 0.4322190297 0.0157334751 451.0796136983 0.0000000000 0.0000000000
-0.7500000000 -0.0000000003 0.0000000000 0.4319744300 -0.0235942198 450.6912177713 0.0000000000 0.0000000000
-0.7493593188 -0.0309937310 0.0000000000 0.4346037823 -0.0628869976 447.5124996373 0.0000000000 0.0000000000
-0.7474383697 -0.0619345094 0.0000000000 0.4400973138 -0.1019123917 441.5529369433 0.0000000000 0.0000000000
-0.7442404348 -0.0927694738 0.0000000000 0.4484246715 -0.1404396139 432.8426434771 0.0000000000 0.0000000000
-0.7397709775 -0.1234459430 0.0000000000 0.4595352117 -0.1782413993 421.4321461985 0.0000000000 0.0000000000
-0.7340376339 -0.1539115070 0.0000000000 0.4733584653 -0.2150958419 407.3919921467 0.0000000000 0.0000000000
-0.7270501994 -0.1841141157 0.0000000000 0.4898047592 -0.2507882062 390.8121791472 0.0000000000 0.0000000000
-0.7188206117 -0.2140021685 0.0000000000 0.5087659759 -0.2851126925 371.8014092650 0.0000000000 0.0000000000