 TITLE = "Tecplot data"
 VARIABLES = "X", "Y", "Z" "U", "V", "p", "dispX", "dispY"
 ZONE SOLUTIONTIME=79.900000, NODES=26114 , ELEMENTS=25916, DATAPACKING=POINT, ZONETYPE=FEQUADRILATERAL
0.3535533906 0.3535533906 0.0000000000 0.0000000000 0.0000000000 -294.4691644631 0.0000000000 0.0000000000
0.3535533908 -0.3535533903 0.0000000000 0.0000000000 0.0000000000 -442.9314836660 0.0000000000 0.0000000000
-0.3535533907 0.3535533905 0.0000000000 0.0000000000 0.0000000000 -66.4710487483 0.0000000000 0.0000000000
-0.3535533904 -0.3535533908 0.0000000000 0.0000000000 0.0000000000 -141.9340183175 0.0000000000 0.0000000000
0.5303300858 0.5303300859 0.0000000000 0.1442474269 0.0139300334 -272.8000738277 0.0000000000 0.0000000000
0.5303300863 -0.5303300855 0.0000000000 0.2591390890 -0.0201895206 -426.8717777093 0.0000000000 0.0000000000
-0.5303300861 0.5303300857 0.0000000000 0.8320840558 0.5099454497 81.5742053168 0.0000000000 0.0000000000
-0.5303300856 -0.5303300862 0.0000000000 0.8586907261 -0.5234428061 26.5338434476 0.0000000000 0.0000000000
1.0606601717 1.0606601719 0.0000000000 1.2599795742 0.0747129053 -211.0361364636 0.0000000000 0.0000000000
1.0606601725 -1.0606601710 0.0000000000 1.2093054400 0.0713751628 -270.8357863533 0.0000000000 0.0000000000
-1.0606601721 1.0606601715 0.0000000000 0.9356364180 0.1813816308 101.3480222321 0.0000000000 0.0000000000
-1.0606601712 -1.0606601723 0.0000000000 0.9455008605 -0.1797240712 69.7379477394 0.0000000000 0.0000000000
4.2000000000 3.3000000000 0.0000000000 1.0229509020 -0.0010095145 6.4097103628 0.0000000000 0.0000000000
4.2000000000 -3.3000000000 0.0000000000 1.0591165218 0.0354668358 -7.0731514825 0.0000000000 0.0000000000
20.0000000000 4.7000000000 0.0000000000 1.0298419846 0.0189825434 -0.0852115446 0.0000000000 0.0000000000
20.0000000000 -4.7000000000 0.0000000000 1.0562547155 -0.0382794505 0.6672100874 0.0000000000 0.0000000000
-10.0000000000 15.0000000000 0.0000000000 1.0000000000 0.0000000000 26.6946624915 0.0000000000 0.0000000000
20.0000000000 15.0000000000 0.0000000000 1.0254507627 0.0000000000 0.0330688335 0.0000000000 0.0000000000
20.0000000000 -15.0000000000 0.0000000000 1.0255012040 0.0000000000 0.0332220638 0.0000000000 0.0000000000
-10.0000000000 -15.0000000000 0.0000000000 1.0000000000 0.0000000000 20.8534824698 0.0000000000 0.0000000000
0.3665259362 -0.3400863686 0.0000000000 0.0000000000 0.0000000000 -438.7959408556 0.0000000000 0.0000000000
0.3789858618 -0.3261437054 0.0000000000 0.0000000000 0.0000000000 -435.2761285404 0.0000000000 0.0000000000
0.3909157414 -0.3117449007 0.0000000000 0.0000000000 0.0000000000 -431.7486341700 0.0000000000 0.0000000000
0.4022988901 -0.2969100925 0.0000000000 0.0000000000 0.0000000000 -428.3075289741 0.0000000000 0.0000000000
0.4131193873 -0.2816600288 0.0000000000 0.0000000000 0.0000000000 -424.7334923632 0.0000000000 0.0000000000
0.4233620998 -0.2660160380 0.0000000000 0.0000000000 0.0000000000 -420.9594948903 0.0000000000 0.0000000000
0.4330127020 -0.2499999997 0.0000000000 0.0000000000 0.0000000000 -416.8731297872 0.0000000000 0.0000000000
0.4420576969 -0.2336343139 0.0000000000 0.0000000000 0.0000000000 -412.4129112144 0.0000000000 0.0000000000
0.4504844341 -0.2169418693 0.0000000000 0.0000000000 0.0000000000 -407.5288967358 0.0000000000 0.0000000000
0.4582811280 -0.1999460119 0.0000000000 0.0000000000 0.0000000000 -402.2033110355 0.0000000000 0.0000000000
0.4654368744 -0.1826705119 0.0000000000 0.0000000000 0.0000000000 -396.4416300640 0.0000000000 0.0000000000
0.4719416652 -0.1651395307 0.0000000000 0.0000000000 0.0000000000 -390.2756223234 0.0000000000 0.0000000000
0.4777864030 -0.1473775870 0.0000000000 0.0000000000 0.0000000000 -383.7590543663 0.0000000000 0.0000000000
0.4829629132 -0.1294095223 0.0000000000 0.0000000000 0.0000000000 -376.9651710406 0.0000000000 0.0000000000
0.4874639561 -0.1112604667 0.0000000000 0.0000000000 0.0000000000 -369.9817889484 0.0000000000 0.0000000000
0.4912832367 -0.0929558033 0.0000000000 0.0000000000 0.0000000000 -362.9062774177 0.0000000000 0.0000000000
0.4944154131 -0.0745211329 0.0000000000 0.0000000000 0.0000000000 -355.8397739114 0.0000000000 0.0000000000
0.4968561050 -0.0559822378 0.0000000000 0.0000000000 0.0000000000 -348.8815152014 0.0000000000 0.0000000000
0.4986018986 -0.0373650466 0.0000000000 0.0000000000 0.0000000000 -342.1234853098 0.0000000000 0.0000000000
0.4996503524 -0.0186955969 0.0000000000 0.0000000000 0.0000000000 -335.6459062471 0.0000000000 0.0000000000
0.5000000000 0.0000000002 0.0000000000 0.0000000000 0.0000000000 -329.5138575879 0.0000000000 0.0000000000
0.4996503524 0.0186955973 0.0000000000 0.0000000000 0.0000000000 -323.7752784241 0.0000000000 0.0000000000
0.4986018986 0.0373650470 0.0000000000 0.0000000000 0.0000000000 -318.4604442610 0.0000000000 0.0000000000
0.4968561049 0.0559822382 0.0000000000 0.0000000000 0.0000000000 -313.5828653642 0.0000000000 0.0000000000
0.4944154131 0.0745211333 0.0000000000 0.0000000000 0.0000000000 -309.1414740129 0.0000000000 0.0000000000
0.4912832366 0.0929558037 0.0000000000 0.0000000000 0.0000000000 -305.1237731324 0.0000000000 0.0000000000
0.4874639561 0.1112604671 0.0000000000 0.0000000000 0.0000000000 -301.5097478494 0.0000000000 0.0000000000
0.4829629131 0.1294095227 0.0000000000 0.0000000000 0.0000000000 -298.2759671204 0.0000000000 0.0000000000
0.4777864029 0.1473775873 0.0000000000 0.0000000000 0.0000000000 -295.3999492132 0.0000000000 0.0000000000
0.4719416651 0.1651395311 0.0000000000 0.0000000000 0.0000000000 -292.8637248587 0.0000000000 0.0000000000
0.4654368743 0.1826705123 0.0000000000 0.0000000000 0.0000000000 -290.6576623601 0.0000000000 0.0000000000
0.4582811279 0.1999460123 0.0000000000 0.0000000000 0.0000000000 -288.7818613545 0.0000000000 0.0000000000
0.4504844339 0.2169418697 0.0000000000 0.0000000000 0.0000000000 -287.2492234145 0.0000000000 0.0000000000
0.4420576967 0.2336343142 0.0000000000 0.0000000000 0.0000000000 -286.0822532394 0.0000000000 0.0000000000
0.4330127018 0.2500000001 0.0000000000 0.0000000000 0.0000000000 -285.3171890895 0.0000000000 0.0000000000
0.4233620996 0.2660160383 0.0000000000 0.0000000000 0.0000000000 -284.9913313589 0.0000000000 0.0000000000
0.4131193871 0.2816600291 0.0000000000 0.0000000000 0.0000000000 -285.1558794579 0.0000000000 0.0000000000
0.4022988898 0.2969100929 0.0000000000 0.0000000000 0.0000000000 -285.8425391424 0.0000000000 0.0000000000
0.3909157412 0.3117449010 0.0000000000 0.0000000000 0.0000000000 -287.1053905474 0.0000000000 0.0000000000
0.3789858615 0.3261437057 0.0000000000 0.0000000000 0.0000000000 -288.9457435462 0.0000000000 0.0000000000
0.3665259359 0.3400863689 0.0000000000 0.0000000000 0.0000000000 -291.4004108840 0.0000000000 0.0000000000
0.3386407858 0.3678619554 0.0000000000 0.0000000000 0.0000000000 -298.5514464483 0.0000000000 0.0000000000
0.3231496189 0.3815420341 0.0000000000 0.0000000000 0.0000000000 -303.3902866960 0.0000000000 0.0000000000
0.3071063563 0.3945702547 0.0000000000 0.0000000000 0.0000000000 -308.9148643011 0.0000000000 0.0000000000
0.2905384077 0.4069243587 0.0000000000 0.0000000000 0.0000000000 -315.1238403536 0.0000000000 0.0000000000
0.2734740790 0.4185832392 0.0000000000 0.0000000000 0.0000000000 -322.0233250982 0.0000000000 0.0000000000
0.2559425245 0.4295269772 0.0000000000 0.0000000000 0.0000000000 -329.6143690590 0.0000000000 0.0000000000
0.2379736965 0.4397368756 0.0000000000 0.0000000000 0.0000000000 -337.9124650452 0.0000000000 0.0000000000
0.2195982944 0.4491954910 0.0000000000 0.0000000000 0.0000000000 -346.9188546411 0.0000000000 0.0000000000
0.2008477123 0.4578866634 0.0000000000 0.0000000000 0.0000000000 -356.6245525366 0.0000000000 0.0000000000
0.1817539852 0.4657955441 0.0000000000 0.0000000000 0.0000000000 -366.9928770666 0.0000000000 0.0000000000
0.1623497345 0.4729086209 0.0000000000 0.0000000000 0.0000000000 -377.9570008091 0.0000000000 0.0000000000
0.1426681120 0.4792137413 0.0000000000 0.0000000000 0.0000000000 -389.4117307777 0.0000000000 0.0000000000
0.1227427435 0.4847001330 0.0000000000 0.0000000000 0.0000000000 -401.2119589015 0.0000000000 0.0000000000
0.1026076710 0.4893584227 0.0000000000 0.0000000000 0.0000000000 -413.1705024053 0.0000000000 0.0000000000
0.0822972951 0.4931806517 0.0000000000 0.0000000000 0.0000000000 -425.0592289096 0.0000000000 0.0000000000
0.0618463155 0.4961602899 0.0000000000 0.0000000000 0.0000000000 -436.6111661253 0.0000000000 0.0000000000
0.0412896726 0.4982922465 0.0000000000 0.0000000000 0.0000000000 -447.5248858589 0.0000000000 0.0000000000
0.0206624870 0.4995728792 0.0000000000 0.0000000000 0.0000000000 -457.4704625454 0.0000000000 0.0000000000
-0.0000000001 0.5000000000 0.0000000000 0.0000000000 0.0000000000 -466.0972770361 0.0000000000 0.0000000000
-0.0206624872 0.4995728792 0.0000000000 0.0000000000 0.0000000000 -473.0431923354 0.0000000000 0.0000000000
-0.0412896728 0.4982922465 0.0000000000 0.0000000000 0.0000000000 -477.9448118071 0.0000000000 0.0000000000
-0.0618463157 0.4961602899 0.0000000000 0.0000000000 0.0000000000 -480.4482581811 0.0000000000 0.0000000000
-0.0822972953 0.4931806517 0.0000000000 0.0000000000 0.0000000000 -480.2199649641 0.0000000000 0.0000000000
-0.1026076712 0.4893584226 0.0000000000 0.0000000000 0.0000000000 -476.9569368231 0.0000000000 0.0000000000
-0.1227427437 0.4847001329 0.0000000000 0.0000000000 0.0000000000 -470.3960239878 0.0000000000 0.0000000000
-0.1426681122 0.4792137412 0.0000000000 0.0000000000 0.0000000000 -460.3218378836 0.0000000000 0.0000000000
-0.1623497347 0.4729086208 0.0000000000 0.0000000000 0.0000000000 -446.5730576519 0.0000000000 0.0000000000
-0.1817539854 0.4657955440 0.0000000000 0.0000000000 0.0000000000 -429.0469936879 0.0000000000 0.0000000000
-0.2008477124 0.4578866633 0.0000000000 0.0000000000 0.0000000000 -407.7023884003 0.0000000000 0.0000000000
-0.2195982945 0.4491954909 0.0000000000 0.0000000000 0.0000000000 -382.5605278554 0.0000000000 0.0000000000
-0.2379736966 0.4397368755 0.0000000000 0.0000000000 0.0000000000 -353.7048081656 0.0000000000 0.0000000000
-0.2559425247 0.4295269771 0.0000000000 0.0000000000 0.0000000000 -321.2789422664 0.0000000000 0.0000000000
-0.2734740792 0.4185832391 0.0000000000 0.0000000000 0.0000000000 -285.4840074960 0.0000000000 0.0000000000
-0.2905384078 0.4069243586 0.0000000000 0.0000000000 0.0000000000 -246.5745264357 0.0000000000 0.0000000000
-0.3071063565 0.3945702546 0.0000000000 0.0000000000 0.0000000000 -204.8537517867 0.0000000000 0.0000000000
-0.3231496190 0.3815420340 0.0000000000 0.0000000000 0.0000000000 -160.6683027281 0.0000000000 0.0000000000
-0.3386407859 0.3678619552 0.0000000000 0.0000000000 0.0000000000 -114.4022872224 0.0000000000 0.0000000000
-0.3678619554 0.3386407857 0.0000000000 0.0000000000 0.0000000000 -17.3146936440 0.0000000000 0.0000000000
-0.3815420342 0.3231496188 0.0000000000 0.0000000000 0.0000000000 32.6084269894 0.0000000000 0.0000000000
-0.3945702548 0.3071063562 0.0000000000 0.0000000000 0.0000000000 82.8281061072 0.0000000000 0.0000000000
-0.4069243587 0.2905384076 0.0000000000 0.0000000000 0.0000000000 132.8683920953 0.0000000000 0.0000000000
-0.4185832392 0.2734740789 0.0000000000 0.0000000000 0.0000000000 182.2533249102 0.0000000000 0.0000000000
-0.4295269773 0.2559425244 0.0000000000 0.0000000000 0.0000000000 230.5122577572 0.0000000000 0.0000000000
-0.4397368757 0.2379736964 0.0000000000 0.0000000000 0.0000000000 277.1847735152 0.0000000000 0.0000000000
-0.4491954910 0.2195982943 0.0000000000 0.0000000000 0.0000000000 321.8252319021 0.0000000000 0.0000000000
-0.4578866634 0.2008477122 0.0000000000 0.0000000000 0.0000000000 364.0069877305 0.0000000000 0.0000000000
-0.4657955441 0.1817539851 0.0000000000 0.0000000000 0.0000000000 403.3263097678 0.0000000000 0.0000000000
-0.4729086209 0.1623497344 0.0000000000 0.0000000000 0.0000000000 439.4060131556 0.0000000000 0.0000000000
-0.4792137413 0.1426681119 0.0000000000 0.0000000000 0.0000000000 471.8988034448 0.0000000000 0.0000000000
-0.4847001330 0.1227427434 0.0000000000 0.0000000000 0.0000000000 500.4903205643 0.0000000000 0.0000000000
-0.4893584227 0.1026076709 0.0000000000 0.0000000000 0.0000000000 524.9018668387 0.0000000000 0.0000000000
-0.4931806517 0.0822972949 0.0000000000 0.0000000000 0.0000000000 544.8928031418 0.0000000000 0.0000000000
-0.4961602899 0.0618463154 0.0000000000 0.0000000000 0.0000000000 560.2625996312 0.0000000000 0.0000000000
-0.4982922465 0.0412896725 0.0000000000 0.0000000000 0.0000000000 570.8525308029 0.0000000000 0.0000000000
-0.4995728792 0.0206624869 0.0000000000 0.0000000000 0.0000000000 576.5470078471 0.0000000000 0.0000000000
-0.5000000000 -0.0000000002 0.0000000000 0.0000000000 0.0000000000 577.2745440259 0.0000000000 0.0000000000
-0.4995728792 -0.0206624873 0.0000000000 0.0000000000 0.0000000000 573.0083508648 0.0000000000 0.0000000000
-0.4982922465 -0.0412896729 0.0000000000 0.0000000000 0.0000000000 563.7665644202 0.0000000000 0.0000000000
-0.4961602898 -0.0618463158 0.0000000000 0.0000000000 0.0000000000 549.6121019062 0.0000000000 0.0000000000
-0.4931806517 -0.0822972954 0.0000000000 0.0000000000 0.0000000000 530.6521497244 0.0000000000 0.0000000000
-0.4893584226 -0.1026076713 0.0000000000 0.0000000000 0.0000000000 507.0372846205 0.0000000000 0.0000000000
-0.4847001329 -0.1227427438 0.0000000000 0.0000000000 0.0000000000 478.9602303955 0.0000000000 0.0000000000
-0.4792137412 -0.1426681123 0.0000000000 0.0000000000 0.0000000000 446.6542534021 0.0000000000 0.0000000000
-0.4729086208 -0.1623497348 0.0000000000 0.0000000000 0.0000000000 410.3912009288 0.0000000000 0.0000000000
-0.4657955439 -0.1817539855 0.0000000000 0.0000000000 0.0000000000 370.4791874830 0.0000000000 0.0000000000
-0.4578866632 -0.2008477125 0.0000000000 0.0000000000 0.0000000000 327.2599348542 0.0000000000 0.0000000000
-0.4491954908 -0.2195982946 0.0000000000 0.0000000000 0.0000000000 281.1057726458 0.0000000000 0.0000000000
-0.4397368755 -0.2379736967 0.0000000000 0.0000000000 0.0000000000 232.4163067148 0.0000000000 0.0000000000
-0.4295269771 -0.2559425248 0.0000000000 0.0000000000 0.0000000000 181.6147637196 0.0000000000 0.0000000000
-0.4185832390 -0.2734740793 0.0000000000 0.0000000000 0.0000000000 129.1440209008 0.0000000000 0.0000000000
-0.4069243585 -0.2905384079 0.0000000000 0.0000000000 0.0000000000 75.4623314646 0.0000000000 0.0000000000
-0.3945702545 -0.3071063565 0.0000000000 0.0000000000 0.0000000000 21.0387577870 0.0000000000 0.0000000000
-0.3815420339 -0.3231496191 0.0000000000 0.0000000000 0.0000000000 -33.6516726627 0.0000000000 0.0000000000
-0.3678619552 -0.3386407860 0.0000000000 0.0000000000 0.0000000000 -88.1330698955 0.0000000000 0.0000000000
-0.3386407856 -0.3678619555 0.0000000000 0.0000000000 0.0000000000 -194.5931165439 0.0000000000 0.0000000000
-0.3231496187 -0.3815420343 0.0000000000 0.0000000000 0.0000000000 -245.6646791744 0.0000000000 0.0000000000
-0.3071063561 -0.3945702549 0.0000000000 0.0000000000 0.0000000000 -294.7245475305 0.0000000000 0.0000000000
-0.2905384075 -0.4069243588 0.0000000000 0.0000000000 0.0000000000 -341.3759415402 0.0000000000 0.0000000000
-0.2734740788 -0.4185832393 0.0000000000 0.0000000000 0.0000000000 -385.2552673709 0.0000000000 0.0000000000
-0.2559425243 -0.4295269773 0.0000000000 0.0000000000 0.0000000000 -426.0377752943 0.0000000000 0.0000000000
-0.2379736963 -0.4397368757 0.0000000000 0.0000000000 0.0000000000 -463.4429403237 0.0000000000 0.0000000000
-0.2195982942 -0.4491954911 0.0000000000 0.0000000000 0.0000000000 -497.2394155612 0.0000000000 0.0000000000
-0.2008477121 -0.4578866634 0.0000000000 0.0000000000 0.0000000000 -527.2493867618 0.0000000000 0.0000000000
-0.1817539850 -0.4657955441 0.0000000000 0.0000000000 0.0000000000 -553.3521388656 0.0000000000 0.0000000000
-0.1623497343 -0.4729086209 0.0000000000 0.0000000000 0.0000000000 -575.4866342632 0.0000000000 0.0000000000
-0.1426681118 -0.4792137413 0.0000000000 0.0000000000 0.0000000000 -593.6529020326 0.0000000000 0.0000000000
-0.1227427433 -0.4847001330 0.0000000000 0.0000000000 0.0000000000 -607.9120508256 0.0000000000 0.0000000000
-0.1026076708 -0.4893584227 0.0000000000 0.0000000000 0.0000000000 -618.3847492498 0.0000000000 0.0000000000
-0.0822972948 -0.4931806518 0.0000000000 0.0000000000 0.0000000000 -625.2480678834 0.0000000000 0.0000000000
-0.0618463153 -0.4961602899 0.0000000000 0.0000000000 0.0000000000 -628.7306484533 0.0000000000 0.0000000000
-0.0412896724 -0.4982922465 0.0000000000 0.0000000000 0.0000000000 -629.1062530239 0.0000000000 0.0000000000
-0.0206624868 -0.4995728792 0.0000000000 0.0000000000 0.0000000000 -626.6858496266 0.0000000000 0.0000000000
0.0000000003 -0.5000000000 0.0000000000 0.0000000000 0.0000000000 -621.8084915503 0.0000000000 0.0000000000
0.0206624874 -0.4995728792 0.0000000000 0.0000000000 0.0000000000 -614.8313548856 0.0000000000 0.0000000000
0.0412896730 -0.4982922465 0.0000000000 0.0000000000 0.0000000000 -606.1193616791 0.0000000000 0.0000000000
0.0618463159 -0.4961602898 0.0000000000 0.0000000000 0.0000000000 -596.0348989077 0.0000000000 0.0000000000
0.0822972955 -0.4931806516 0.0000000000 0.0000000000 0.0000000000 -584.9280924493 0.0000000000 0.0000000000
0.1026076714 -0.4893584226 0.0000000000 0.0000000000 0.0000000000 -573.1282000349 0.0000000000 0.0000000000
0.1227427439 -0.4847001329 0.0000000000 0.0000000000 0.0000000000 -560.9363846105 0.0000000000 0.0000000000
0.1426681124 -0.4792137411 0.0000000000 0.0000000000 0.0000000000 -548.6205699154 0.0000000000 0.0000000000
0.1623497349 -0.4729086207 0.0000000000 0.0000000000 0.0000000000 -536.4119749569 0.0000000000 0.0000000000
0.1817539856 -0.4657955439 0.0000000000 0.0000000000 0.0000000000 -524.5048870062 0.0000000000 0.0000000000
0.2008477126 -0.4578866632 0.0000000000 0.0000000000 0.0000000000 -513.0567348736 0.0000000000 0.0000000000
0.2195982947 -0.4491954908 0.0000000000 0.0000000000 0.0000000000 -502.1940508638 0.0000000000 0.0000000000
0.2379736968 -0.4397368754 0.0000000000 0.0000000000 0.0000000000 -492.0108983282 0.0000000000 0.0000000000
0.2559425248 -0.4295269770 0.0000000000 0.0000000000 0.0000000000 -482.5849579885 0.0000000000 0.0000000000
0.2734740794 -0.4185832389 0.0000000000 0.0000000000 0.0000000000 -473.9535092940 0.0000000000 0.0000000000
0.2905384080 -0.4069243584 0.0000000000 0.0000000000 0.0000000000 -466.1688091293 0.0000000000 0.0000000000
0.3071063566 -0.3945702545 0.0000000000 0.0000000000 0.0000000000 -459.1731634911 0.0000000000 0.0000000000
0.3231496192 -0.3815420339 0.0000000000 0.0000000000 0.0000000000 -453.0575163476 0.0000000000 0.0000000000
0.3386407861 -0.3678619551 0.0000000000 0.0000000000 0.0000000000 -447.4779553973 0.0000000000 0.0000000000
0.5497889042 -0.5101295529 0.0000000000 0.2125580776 -0.0304908779 -426.2571067479 0.0000000000 0.0000000000
0.5684787927 -0.4892155581 0.0000000000 0.1723920039 -0.0417313717 -425.8151065522 0.0000000000 0.0000000000
0.5863736122 -0.4676173510 0.0000000000 0.1380243491 -0.0532554709 -425.4858735418 0.0000000000 0.0000000000
0.6034483351 -0.4453651388 0.0000000000 0.1085992993 -0.0644253792 -425.1357044105 0.0000000000 0.0000000000
0.6196790810 -0.4224900431 0.0000000000 0.0831741474 -0.0746650008 -424.6151761180 0.0000000000 0.0000000000
0.6350431497 -0.3990240570 0.0000000000 0.0608470210 -0.0834974362 -423.7711171266 0.0000000000 0.0000000000
0.6495190531 -0.3749999996 0.0000000000 0.0408491535 -0.0905650965 -422.4577715672 0.0000000000 0.0000000000
0.6630865453 -0.3504514708 0.0000000000 0.0225937137 -0.0956326491 -420.5470555460 0.0000000000 0.0000000000
0.6757266511 -0.3254128039 0.0000000000 0.0056856584 -0.0985771764 -417.9368645493 0.0000000000 0.0000000000
0.6874216921 -0.2999190178 0.0000000000 -0.0100960157 -0.0993712612 -414.5571531425 0.0000000000 0.0000000000
0.6981553116 -0.2740057679 0.0000000000 -0.0248310361 -0.0980640505 -410.3736647951 0.0000000000 0.0000000000
0.7079124979 -0.2477092961 0.0000000000 -0.0384955066 -0.0947636684 -405.3892804713 0.0000000000 0.0000000000
0.7166796045 -0.2210663804 0.0000000000 -0.0509979987 -0.0896226067 -399.6430306960 0.0000000000 0.0000000000
0.7244443698 -0.1941142835 0.0000000000 -0.0622109005 -0.0828264073 -393.2069219123 0.0000000000 0.0000000000
0.7311959342 -0.1668907001 0.0000000000 -0.0719960319 -0.0745851980 -386.1808572785 0.0000000000 0.0000000000
0.7369248550 -0.1394337050 0.0000000000 -0.0802247035 -0.0651273541 -378.6860614621 0.0000000000 0.0000000000
0.7416231197 -0.1117816993 0.0000000000 -0.0867928575 -0.0546945672 -370.8575255418 0.0000000000 0.0000000000
0.7452841575 -0.0839733567 0.0000000000 -0.0916320088 -0.0435377626 -362.8360545679 0.0000000000 0.0000000000
0.7479028479 -0.0560475699 0.0000000000 -0.0947166347 -0.0319135047 -354.7605158569 0.0000000000 0.0000000000
0.7494755286 -0.0280433954 0.0000000000 -0.0960685520 -0.0200806847 -346.7608474405 0.0000000000 0.0000000000
0.7500000000 0.0000000003 0.0000000000 -0.0957587061 -0.0082973886 -338.9522979046 0.0000000000 0.0000000000
0.7494755286 0.0280433960 0.0000000000 -0.0939066822 0.0031821388 -331.4312427061 0.0000000000 0.0000000000
0.7479028479 0.0560475705 0.0000000000 -0.0906780997 0.0141105533 -324.2727731773 0.0000000000 0.0000000000
0.7452841574 0.0839733573 0.0000000000 -0.0862798706 0.0242506961 -317.5300988059 0.0000000000 0.0000000000
0.7416231196 0.1117816999 0.0000000000 -0.0809530661 0.0333794112 -311.2356555257 0.0000000000 0.0000000000
0.7369248549 0.1394337056 0.0000000000 -0.0749628550 0.0412922885 -305.4036853402 0.0000000000 0.0000000000
0.7311959341 0.1668907007 0.0000000000 -0.0685846742 0.0478097678 -300.0339562122 0.0000000000 0.0000000000
0.7244443697 0.1941142840 0.0000000000 -0.0620855313 0.0527849707 -295.1162341747 0.0000000000 0.0000000000
0.7166796043 0.2210663810 0.0000000000 -0.0556992633 0.0561133977 -290.6351059627 0.0000000000 0.0000000000
0.7079124977 0.2477092967 0.0000000000 -0.0495949169 0.0577441940 -286.5747739352 0.0000000000 0.0000000000
0.6981553114 0.2740057685 0.0000000000 -0.0438384929 0.0576920088 -282.9234806757 0.0000000000 0.0000000000
0.6874216918 0.2999190184 0.0000000000 -0.0383504204 0.0560476157 -279.6772200475 0.0000000000 0.0000000000
0.6757266509 0.3254128045 0.0000000000 -0.0328643326 0.0529845636 -276.8422997095 0.0000000000 0.0000000000
0.6630865451 0.3504514714 0.0000000000 -0.0268964070 0.0487585327 -274.4361327383 0.0000000000 0.0000000000
0.6495190528 0.3750000001 0.0000000000 -0.0197371796 0.0436962650 -272.4854831171 0.0000000000 0.0000000000
0.6350431493 0.3990240575 0.0000000000 -0.0104770891 0.0381724663 -271.0215629074 0.0000000000 0.0000000000
0.6196790807 0.4224900437 0.0000000000 0.0019287967 0.0325761506 -270.0721794799 0.0000000000 0.0000000000
0.6034483348 0.4453651393 0.0000000000 0.0185621523 0.0272719763 -269.6525350055 0.0000000000 0.0000000000
0.5863736118 0.4676173515 0.0000000000 0.0404262474 0.0225656744 -269.7576367443 0.0000000000 0.0000000000
0.5684787923 0.4892155585 0.0000000000 0.0683393480 0.0186836362 -270.3595813391 0.0000000000 0.0000000000
0.5497889038 0.5101295534 0.0000000000 0.1028589066 0.0157738477 -271.4061929269 0.0000000000 0.0000000000
0.5079611787 0.5517929331 0.0000000000 0.1980267539 0.0132295918 -274.8725168206 0.0000000000 0.0000000000
0.4847244283 0.5723130512 0.0000000000 0.2598248465 0.0140851582 -277.2150570092 0.0000000000 0.0000000000
0.4606595344 0.5918553821 0.0000000000 0.3288897938 0.0167003188 -279.8743195956 0.0000000000 0.0000000000
0.4358076115 0.6103865380 0.0000000000 0.4041491105 0.0213360393 -282.8435489875 0.0000000000 0.0000000000
0.4102111185 0.6278748587 0.0000000000 0.4841951687 0.0282715499 -286.1208960951 0.0000000000 0.0000000000
0.3839137867 0.6442904658 0.0000000000 0.5673039757 0.0377354534 -289.6927794146 0.0000000000 0.0000000000
0.3569605447 0.6596053135 0.0000000000 0.6515021179 0.0498421958 -293.5188114430 0.0000000000 0.0000000000
0.3293974415 0.6737932365 0.0000000000 0.7346905685 0.0645547897 -297.5216431554 0.0000000000 0.0000000000
0.3012715684 0.6868299950 0.0000000000 0.8148073192 0.0816814521 -301.5836259664 0.0000000000 0.0000000000
0.2726309778 0.6986933161 0.0000000000 0.8899948167 0.1009018617 -305.5504913874 0.0000000000 0.0000000000
0.2435246018 0.7093629313 0.0000000000 0.9587376097 0.1218116787 -309.2408671790 0.0000000000 0.0000000000
0.2140021681 0.7188206119 0.0000000000 1.0199470337 0.1439725324 -312.4591764401 0.0000000000 0.0000000000
0.1841141152 0.7270501995 0.0000000000 1.0729856237 0.1669570299 -315.0089092002 0.0000000000 0.0000000000
0.1539115065 0.7340376340 0.0000000000 1.1176378225 0.1903822669 -316.7036757319 0.0000000000 0.0000000000
0.1234459426 0.7397709776 0.0000000000 1.1540421922 0.2139293077 -317.3745700446 0.0000000000 0.0000000000
0.0927694733 0.7442404348 0.0000000000 1.1826032669 0.2373492939 -316.8736312635 0.0000000000 0.0000000000
0.0619345090 0.7474383698 0.0000000000 1.2038996314 0.2604589182 -315.0741334853 0.0000000000 0.0000000000
0.0309937305 0.7493593188 0.0000000000 1.2186006170 0.2831289126 -311.8688829827 0.0000000000 0.0000000000
-0.0000000002 0.7500000000 0.0000000000 1.2273989562 0.3052691719 -307.1677124836 0.0000000000 0.0000000000
-0.0309937308 0.7493593188 0.0000000000 1.2309621365 0.3268134865 -300.8951013331 0.0000000000 0.0000000000
-0.0619345093 0.7474383697 0.0000000000 1.2299017649 0.3477059364 -292.9884872130 0.0000000000 0.0000000000
-0.0927694736 0.7442404348 0.0000000000 1.2247581800 0.3678900858 -283.3974917844 0.0000000000 0.0000000000
-0.1234459429 0.7397709775 0.0000000000 1.2159966577 0.3873013636 -272.0840235597 0.0000000000 0.0000000000
-0.1539115068 0.7340376340 0.0000000000 1.2040115381 0.4058624979 -259.0230643503 0.0000000000 0.0000000000
-0.1841141155 0.7270501994 0.0000000000 1.1891350756 0.4234815689 -244.2038793671 0.0000000000 0.0000000000
-0.2140021684 0.7188206118 0.0000000000 1.1716485229 0.4400521249 -227.6313907465 0.0000000000 0.0000000000
-0.2435246021 0.7093629312 0.0000000000 1.1517936769 0.4554547962 -209.3274932493 0.0000000000 0.0000000000
-0.2726309781 0.6986933160 0.0000000000 1.1297837490 0.4695599058 -189.3321469030 0.0000000000 0.0000000000
-0.3012715687 0.6868299949 0.0000000000 1.1058129188 0.4822306651 -167.7041390109 0.0000000000 0.0000000000
-0.3293974418 0.6737932363 0.0000000000 1.0800642860 0.4933266388 -144.5214584537 0.0000000000 0.0000000000
-0.3569605450 0.6596053133 0.0000000000 1.0527161711 0.5027072484 -119.8812648316 0.0000000000 0.0000000000
-0.3839137870 0.6442904657 0.0000000000 1.0239468597 0.5102351564 -93.8994633866 0.0000000000 0.0000000000
-0.4102111188 0.6278748586 0.0000000000 0.9939379576 0.5157794246 -66.7099151656 0.0000000000 0.0000000000
-0.4358076117 0.6103865378 0.0000000000 0.9628765544 0.5192183852 -38.4633226255 0.0000000000 0.0000000000
-0.4606595347 0.5918553819 0.0000000000 0.9309563957 0.5204421885 -9.3258359179 0.0000000000 0.0000000000
-0.4847244286 0.5723130510 0.0000000000 0.8983782505 0.5193550121 20.5225737715 0.0000000000 0.0000000000
-0.5079611789 0.5517929329 0.0000000000 0.8653496378 0.5158769303 50.8899288018 0.0000000000 0.0000000000
-0.5517929332 0.5079611785 0.0000000000 0.7987998327 0.5015167221 112.3654003399 0.0000000000 0.0000000000
-0.5723130513 0.4847244282 0.0000000000 0.7657186976 0.4905664494 143.0476704901 0.0000000000 0.0000000000
-0.5918553822 0.4606595343 0.0000000000 0.7330641532 0.4770904963 173.4015104707 0.0000000000 0.0000000000
-0.6103865381 0.4358076114 0.0000000000 0.7010597150 0.4611052289 203.2059424898 0.0000000000 0.0000000000
-0.6278748588 0.4102111184 0.0000000000 0.6699270740 0.4426475953 232.2406903993 0.0000000000 0.0000000000
-0.6442904659 0.3839137866 0.0000000000 0.6398842246 0.4217749672 260.2883147398 0.0000000000 0.0000000000
-0.6596053135 0.3569605446 0.0000000000 0.6111435977 0.3985647609 287.1362872520 0.0000000000 0.0000000000
-0.6737932365 0.3293974414 0.0000000000 0.5839102291 0.3731138536 312.5789859378 0.0000000000 0.0000000000
-0.6868299951 0.3012715682 0.0000000000 0.5583799914 0.3455378132 336.4195944688 0.0000000000 0.0000000000
-0.6986933161 0.2726309777 0.0000000000 0.5347379105 0.3159699576 358.4718924266 0.0000000000 0.0000000000
-0.7093629314 0.2435246016 0.0000000000 0.5131565871 0.2845602553 378.5619252314 0.0000000000 0.0000000000
-0.7188206119 0.2140021679 0.0000000000 0.4937947352 0.2514740849 396.5295443141 0.0000000000 0.0000000000
-0.7270501995 0.1841141151 0.0000000000 0.4767958500 0.2168908621 412.2298091818 0.0000000000 0.0000000000
-0.7340376341 0.1539115064 0.0000000000 0.4622870111 0.1810025506 425.5342434147 0.0000000000 0.0000000000
-0.7397709776 0.1234459424 0.0000000000 0.4503778247 0.1440120687 436.3319369317 0.0000000000 0.0000000000
-0.7442404348 0.0927694732 0.0000000000 0.4411595072 0.1061316080 444.5304872709 0.0000000000 0.0000000000
-0.7474383698 0.0619345088 0.0000000000 0.4347041107 0.0675808821 450.0567731739 0.0000000000 0.0000000000
-0.7493593188 0.0309937304 0.0000000000 0.4310638966 0.0285853253 452.8575560534 0.0000000000 0.0000000000
-0.7500000000 -0.0000000003 0.0000000000 0.4302708681 -0.0106257367 452.8999085463 0.0000000000 0.0000000000
-0.7493593188 -0.0309937310 0.0000000000 0.4323364802 -0.0498209293 450.1714754963 0.0000000000 0.0000000000
-0.7474383697 -0.0619345094 0.0000000000 0.4372515450 -0.0887686773 444.6805726925 0.0000000000 0.0000000000
-0.7442404348 -0.0927694738 0.0000000000 0.4449863347 -0.1272390542 436.4561249512 0.0000000000 0.0000000000
-0.7397709775 -0.1234459430 0.0000000000 0.4554908786 -0.1650056313 425.5474402242 0.0000000000 0.0000000000
-0.7340376339 -0.1539115070 0.0000000000 0.4686954309 -0.2018473166 412.0238114674 0.0000000000 0.0000000000
-0.7270501994 -0.1841141157 0.0000000000 0.4845110924 -0.2375501675 395.9739406951 0.0000000000 0.0000000000
-0.7188206117 -0.2140021685 0.0000000000 0.5028305662 -0.2719091561 377.5051850384 0.0000000000 0.0000000000