 TITLE = "Tecplot data"
 VARIABLES = "X", "Y", "Z" "U", "V", "p", "dispX", "dispY"
 ZONE SOLUTIONTIME=129.900000, NODES=26114 , ELEMENTS=25916, DATAPACKING=POINT, ZONETYPE=FEQUADRILATERAL
0.3535533906 0.3535533906 0.0000000000 0.0000000000 0.0000000000 -447.9600964526 0.0000000000 0.0000000000
0.3535533908 -0.3535533903 0.0000000000 0.0000000000 0.0000000000 -321.0204700831 0.0000000000 0.0000000000
-0.3535533907 0.3535533905 0.0000000000 0.0000000000 0.0000000000 -126.5980878249 0.0000000000 0.0000000000
-0.3535533904 -0.3535533908 0.0000000000 0.0000000000 0.0000000000 -99.6937860303 0.0000000000 0.0000000000
0.5303300858 0.5303300859 0.0000000000 0.2673026105 -0.0062462282 -435.3514845184 0.0000000000 0.0000000000
0.5303300863 -0.5303300855 0.0000000000 0.1625657239 -0.0330641868 -295.4993856294 0.0000000000 0.0000000000
-0.5303300861 0.5303300857 0.0000000000 0.8492123153 0.5121872296 34.0212662556 0.0000000000 0.0000000000
-0.5303300856 -0.5303300862 0.0000000000 0.8505062477 -0.5232432532 60.5851990975 0.0000000000 0.0000000000
1.0606601717 1.0606601719 0.0000000000 1.1609525982 -0.0430316831 -219.7016748659 0.0000000000 0.0000000000
1.0606601725 -1.0606601710 0.0000000000 1.3107702618 -0.0144216144 -262.1625855383 0.0000000000 0.0000000000
-1.0606601721 1.0606601715 0.0000000000 0.9407631989 0.1744410029 71.1785045212 0.0000000000 0.0000000000
-1.0606601712 -1.0606601723 0.0000000000 0.9457168463 -0.1839533031 90.0243234158 0.0000000000 0.0000000000
4.2000000000 3.3000000000 0.0000000000 1.0406229812 -0.0440670444 -7.0026675312 0.0000000000 0.0000000000
4.2000000000 -3.3000000000 0.0000000000 1.0345325010 -0.0080142526 6.3495640084 0.0000000000 0.0000000000
20.0000000000 4.7000000000 0.0000000000 1.0420028192 0.0142166171 -0.0352563055 0.0000000000 0.0000000000
20.0000000000 -4.7000000000 0.0000000000 1.0271841607 -0.0237078425 0.3648944942 0.0000000000 0.0000000000
-10.0000000000 15.0000000000 0.0000000000 1.0000000000 0.0000000000 19.6684124460 0.0000000000 0.0000000000
20.0000000000 15.0000000000 0.0000000000 1.0214621426 0.0000000000 0.0235290873 0.0000000000 0.0000000000
20.0000000000 -15.0000000000 0.0000000000 1.0214743427 0.0000000000 0.0218496820 0.0000000000 0.0000000000
-10.0000000000 -15.0000000000 0.0000000000 1.0000000000 0.0000000000 23.0840047331 0.0000000000 0.0000000000
0.3665259362 -0.3400863686 0.0000000000 0.0000000000 0.0000000000 -317.9866271605 0.0000000000 0.0000000000
0.3789858618 -0.3261437054 0.0000000000 0.0000000000 0.0000000000 -315.8053095188 0.0000000000 0.0000000000
0.3909157414 -0.3117449007 0.0000000000 0.0000000000 0.0000000000 -314.3146724338 0.0000000000 0.0000000000
0.4022988901 -0.2969100925 0.0000000000 0.0000000000 0.0000000000 -313.4994924284 0.0000000000 0.0000000000
0.4131193873 -0.2816600288 0.0000000000 0.0000000000 0.0000000000 -313.2667155778 0.0000000000 0.0000000000
0.4233620998 -0.2660160380 0.0000000000 0.0000000000 0.0000000000 -313.5228188929 0.0000000000 0.0000000000
0.4330127020 -0.2499999997 0.0000000000 0.0000000000 0.0000000000 -314.1632595255 0.0000000000 0.0000000000
0.4420576969 -0.2336343139 0.0000000000 0.0000000000 0.0000000000 -315.0872761816 0.0000000000 0.0000000000
0.4504844341 -0.2169418693 0.0000000000 0.0000000000 0.0000000000 -316.2031546899 0.0000000000 0.0000000000
0.4582811280 -0.1999460119 0.0000000000 0.0000000000 0.0000000000 -317.4340672056 0.0000000000 0.0000000000
0.4654368744 -0.1826705119 0.0000000000 0.0000000000 0.0000000000 -318.7210331908 0.0000000000 0.0000000000
0.4719416652 -0.1651395307 0.0000000000 0.0000000000 0.0000000000 -320.0246205241 0.0000000000 0.0000000000
0.4777864030 -0.1473775870 0.0000000000 0.0000000000 0.0000000000 -321.3253936129 0.0000000000 0.0000000000
0.4829629132 -0.1294095223 0.0000000000 0.0000000000 0.0000000000 -322.6236638726 0.0000000000 0.0000000000
0.4874639561 -0.1112604667 0.0000000000 0.0000000000 0.0000000000 -323.9386274347 0.0000000000 0.0000000000
0.4912832367 -0.0929558033 0.0000000000 0.0000000000 0.0000000000 -325.3069031132 0.0000000000 0.0000000000
0.4944154131 -0.0745211329 0.0000000000 0.0000000000 0.0000000000 -326.7803198713 0.0000000000 0.0000000000
0.4968561050 -0.0559822378 0.0000000000 0.0000000000 0.0000000000 -328.4228170431 0.0000000000 0.0000000000
0.4986018986 -0.0373650466 0.0000000000 0.0000000000 0.0000000000 -330.3063837915 0.0000000000 0.0000000000
0.4996503524 -0.0186955969 0.0000000000 0.0000000000 0.0000000000 -332.5061079110 0.0000000000 0.0000000000
0.5000000000 0.0000000002 0.0000000000 0.0000000000 0.0000000000 -335.0945492005 0.0000000000 0.0000000000
0.4996503524 0.0186955973 0.0000000000 0.0000000000 0.0000000000 -338.1358124308 0.0000000000 0.0000000000
0.4986018986 0.0373650470 0.0000000000 0.0000000000 0.0000000000 -341.6797726485 0.0000000000 0.0000000000
0.4968561049 0.0559822382 0.0000000000 0.0000000000 0.0000000000 -345.7570087870 0.0000000000 0.0000000000
0.4944154131 0.0745211333 0.0000000000 0.0000000000 0.0000000000 -350.3748922570 0.0000000000 0.0000000000
0.4912832366 0.0929558037 0.0000000000 0.0000000000 0.0000000000 -355.5153800643 0.0000000000 0.0000000000
0.4874639561 0.1112604671 0.0000000000 0.0000000000 0.0000000000 -361.1346008602 0.0000000000 0.0000000000
0.4829629131 0.1294095227 0.0000000000 0.0000000000 0.0000000000 -367.1647533967 0.0000000000 0.0000000000
0.4777864029 0.1473775873 0.0000000000 0.0000000000 0.0000000000 -373.5175411232 0.0000000000 0.0000000000
0.4719416651 0.1651395311 0.0000000000 0.0000000000 0.0000000000 -380.0901780176 0.0000000000 0.0000000000
0.4654368743 0.1826705123 0.0000000000 0.0000000000 0.0000000000 -386.7712072799 0.0000000000 0.0000000000
0.4582811279 0.1999460123 0.0000000000 0.0000000000 0.0000000000 -393.4498035344 0.0000000000 0.0000000000
0.4504844339 0.2169418697 0.0000000000 0.0000000000 0.0000000000 -400.0203825308 0.0000000000 0.0000000000
0.4420576967 0.2336343142 0.0000000000 0.0000000000 0.0000000000 -406.3955166621 0.0000000000 0.0000000000
0.4330127018 0.2500000001 0.0000000000 0.0000000000 0.0000000000 -412.5022632552 0.0000000000 0.0000000000
0.4233620996 0.2660160383 0.0000000000 0.0000000000 0.0000000000 -418.3050992774 0.0000000000 0.0000000000
0.4131193871 0.2816600291 0.0000000000 0.0000000000 0.0000000000 -423.7769158060 0.0000000000 0.0000000000
0.4022988898 0.2969100929 0.0000000000 0.0000000000 0.0000000000 -428.9585092628 0.0000000000 0.0000000000
0.3909157412 0.3117449010 0.0000000000 0.0000000000 0.0000000000 -433.8517354444 0.0000000000 0.0000000000
0.3789858615 0.3261437057 0.0000000000 0.0000000000 0.0000000000 -438.6125062296 0.0000000000 0.0000000000
0.3665259359 0.3400863689 0.0000000000 0.0000000000 0.0000000000 -443.1718632403 0.0000000000 0.0000000000
0.3386407858 0.3678619554 0.0000000000 0.0000000000 0.0000000000 -453.1574713181 0.0000000000 0.0000000000
0.3231496189 0.3815420341 0.0000000000 0.0000000000 0.0000000000 -458.8869095260 0.0000000000 0.0000000000
0.3071063563 0.3945702547 0.0000000000 0.0000000000 0.0000000000 -464.9692038373 0.0000000000 0.0000000000
0.2905384077 0.4069243587 0.0000000000 0.0000000000 0.0000000000 -471.6823065460 0.0000000000 0.0000000000
0.2734740790 0.4185832392 0.0000000000 0.0000000000 0.0000000000 -479.0238882782 0.0000000000 0.0000000000
0.2559425245 0.4295269772 0.0000000000 0.0000000000 0.0000000000 -487.0815749444 0.0000000000 0.0000000000
0.2379736965 0.4397368756 0.0000000000 0.0000000000 0.0000000000 -495.8381603155 0.0000000000 0.0000000000
0.2195982944 0.4491954910 0.0000000000 0.0000000000 0.0000000000 -505.2801168271 0.0000000000 0.0000000000
0.2008477123 0.4578866634 0.0000000000 0.0000000000 0.0000000000 -515.3417477697 0.0000000000 0.0000000000
0.1817539852 0.4657955441 0.0000000000 0.0000000000 0.0000000000 -525.9383099907 0.0000000000 0.0000000000
0.1623497345 0.4729086209 0.0000000000 0.0000000000 0.0000000000 -536.9471894249 0.0000000000 0.0000000000
0.1426681120 0.4792137413 0.0000000000 0.0000000000 0.0000000000 -548.2160554835 0.0000000000 0.0000000000
0.1227427435 0.4847001330 0.0000000000 0.0000000000 0.0000000000 -559.5554003159 0.0000000000 0.0000000000
0.1026076710 0.4893584227 0.0000000000 0.0000000000 0.0000000000 -570.7408166127 0.0000000000 0.0000000000
0.0822972951 0.4931806517 0.0000000000 0.0000000000 0.0000000000 -581.5121526959 0.0000000000 0.0000000000
0.0618463155 0.4961602899 0.0000000000 0.0000000000 0.0000000000 -591.5773824903 0.0000000000 0.0000000000
0.0412896726 0.4982922465 0.0000000000 0.0000000000 0.0000000000 -600.6170403826 0.0000000000 0.0000000000
0.0206624870 0.4995728792 0.0000000000 0.0000000000 0.0000000000 -608.2913104018 0.0000000000 0.0000000000
-0.0000000001 0.5000000000 0.0000000000 0.0000000000 0.0000000000 -614.2481840045 0.0000000000 0.0000000000
-0.0206624872 0.4995728792 0.0000000000 0.0000000000 0.0000000000 -618.1329465170 0.0000000000 0.0000000000
-0.0412896728 0.4982922465 0.0000000000 0.0000000000 0.0000000000 -619.5981476218 0.0000000000 0.0000000000
-0.0618463157 0.4961602899 0.0000000000 0.0000000000 0.0000000000 -618.3137552226 0.0000000000 0.0000000000
-0.0822972953 0.4931806517 0.0000000000 0.0000000000 0.0000000000 -613.9769036688 0.0000000000 0.0000000000
-0.1026076712 0.4893584226 0.0000000000 0.0000000000 0.0000000000 -606.3208578539 0.0000000000 0.0000000000
-0.1227427437 0.4847001329 0.0000000000 0.0000000000 0.0000000000 -595.1228090720 0.0000000000 0.0000000000
-0.1426681122 0.4792137412 0.0000000000 0.0000000000 0.0000000000 -580.2102606183 0.0000000000 0.0000000000
-0.1623497347 0.4729086208 0.0000000000 0.0000000000 0.0000000000 -561.4658436436 0.0000000000 0.0000000000
-0.1817539854 0.4657955440 0.0000000000 0.0000000000 0.0000000000 -538.8305172391 0.0000000000 0.0000000000
-0.2008477124 0.4578866633 0.0000000000 0.0000000000 0.0000000000 -512.3051900090 0.0000000000 0.0000000000
-0.2195982945 0.4491954909 0.0000000000 0.0000000000 0.0000000000 -481.9508735675 0.0000000000 0.0000000000
-0.2379736966 0.4397368755 0.0000000000 0.0000000000 0.0000000000 -447.8875241894 0.0000000000 0.0000000000
-0.2559425247 0.4295269771 0.0000000000 0.0000000000 0.0000000000 -410.2917527343 0.0000000000 0.0000000000
-0.2734740792 0.4185832391 0.0000000000 0.0000000000 0.0000000000 -369.3935831174 0.0000000000 0.0000000000
-0.2905384078 0.4069243586 0.0000000000 0.0000000000 0.0000000000 -325.4724226546 0.0000000000 0.0000000000
-0.3071063565 0.3945702546 0.0000000000 0.0000000000 0.0000000000 -278.8523813040 0.0000000000 0.0000000000
-0.3231496190 0.3815420340 0.0000000000 0.0000000000 0.0000000000 -229.8970530684 0.0000000000 0.0000000000
-0.3386407859 0.3678619552 0.0000000000 0.0000000000 0.0000000000 -179.0038624860 0.0000000000 0.0000000000
-0.3678619554 0.3386407857 0.0000000000 0.0000000000 0.0000000000 -73.1266957111 0.0000000000 0.0000000000
-0.3815420342 0.3231496188 0.0000000000 0.0000000000 0.0000000000 -19.0521447488 0.0000000000 0.0000000000
-0.3945702548 0.3071063562 0.0000000000 0.0000000000 0.0000000000 35.1536795926 0.0000000000 0.0000000000
-0.4069243587 0.2905384076 0.0000000000 0.0000000000 0.0000000000 89.0152603634 0.0000000000 0.0000000000
-0.4185832392 0.2734740789 0.0000000000 0.0000000000 0.0000000000 142.0588848267 0.0000000000 0.0000000000
-0.4295269773 0.2559425244 0.0000000000 0.0000000000 0.0000000000 193.8176874576 0.0000000000 0.0000000000
-0.4397368757 0.2379736964 0.0000000000 0.0000000000 0.0000000000 243.8363139665 0.0000000000 0.0000000000
-0.4491954910 0.2195982943 0.0000000000 0.0000000000 0.0000000000 291.6752449488 0.0000000000 0.0000000000
-0.4578866634 0.2008477122 0.0000000000 0.0000000000 0.0000000000 336.9148202333 0.0000000000 0.0000000000
-0.4657955441 0.1817539851 0.0000000000 0.0000000000 0.0000000000 379.1589925546 0.0000000000 0.0000000000
-0.4729086209 0.1623497344 0.0000000000 0.0000000000 0.0000000000 418.0388214543 0.0000000000 0.0000000000
-0.4792137413 0.1426681119 0.0000000000 0.0000000000 0.0000000000 453.2157027400 0.0000000000 0.0000000000
-0.4847001330 0.1227427434 0.0000000000 0.0000000000 0.0000000000 484.3843188232 0.0000000000 0.0000000000
-0.4893584227 0.1026076709 0.0000000000 0.0000000000 0.0000000000 511.2752910594 0.0000000000 0.0000000000
-0.4931806517 0.0822972949 0.0000000000 0.0000000000 0.0000000000 533.6575153606 0.0000000000 0.0000000000
-0.4961602899 0.0618463154 0.0000000000 0.0000000000 0.0000000000 551.3401649601 0.0000000000 0.0000000000
-0.4982922465 0.0412896725 0.0000000000 0.0000000000 0.0000000000 564.1743477716 0.0000000000 0.0000000000
-0.4995728792 0.0206624869 0.0000000000 0.0000000000 0.0000000000 572.0544092930 0.0000000000 0.0000000000
-0.5000000000 -0.0000000002 0.0000000000 0.0000000000 0.0000000000 574.9188749767 0.0000000000 0.0000000000
-0.4995728792 -0.0206624873 0.0000000000 0.0000000000 0.0000000000 572.7510282524 0.0000000000 0.0000000000
-0.4982922465 -0.0412896729 0.0000000000 0.0000000000 0.0000000000 565.5791219967 0.0000000000 0.0000000000
-0.4961602898 -0.0618463158 0.0000000000 0.0000000000 0.0000000000 553.4762223361 0.0000000000 0.0000000000
-0.4931806517 -0.0822972954 0.0000000000 0.0000000000 0.0000000000 536.5596844392 0.0000000000 0.0000000000
-0.4893584226 -0.1026076713 0.0000000000 0.0000000000 0.0000000000 514.9902605707 0.0000000000 0.0000000000
-0.4847001329 -0.1227427438 0.0000000000 0.0000000000 0.0000000000 488.9708412730 0.0000000000 0.0000000000
-0.4792137412 -0.1426681123 0.0000000000 0.0000000000 0.0000000000 458.7448311944 0.0000000000 0.0000000000
-0.4729086208 -0.1623497348 0.0000000000 0.0000000000 0.0000000000 424.5941617826 0.0000000000 0.0000000000
-0.4657955439 -0.1817539855 0.0000000000 0.0000000000 0.0000000000 386.8369438019 0.0000000000 0.0000000000
-0.4578866632 -0.2008477125 0.0000000000 0.0000000000 0.0000000000 345.8247633453 0.0000000000 0.0000000000
-0.4491954908 -0.2195982946 0.0000000000 0.0000000000 0.0000000000 301.9396256815 0.0000000000 0.0000000000
-0.4397368755 -0.2379736967 0.0000000000 0.0000000000 0.0000000000 255.5905519326 0.0000000000 0.0000000000
-0.4295269771 -0.2559425248 0.0000000000 0.0000000000 0.0000000000 207.2098342872 0.0000000000 0.0000000000
-0.4185832390 -0.2734740793 0.0000000000 0.0000000000 0.0000000000 157.2489564003 0.0000000000 0.0000000000
-0.4069243585 -0.2905384079 0.0000000000 0.0000000000 0.0000000000 106.1741870059 0.0000000000 0.0000000000
-0.3945702545 -0.3071063565 0.0000000000 0.0000000000 0.0000000000 54.4618568893 0.0000000000 0.0000000000
-0.3815420339 -0.3231496191 0.0000000000 0.0000000000 0.0000000000 2.5933325260 0.0000000000 0.0000000000
-0.3678619552 -0.3386407860 0.0000000000 0.0000000000 0.0000000000 -48.9502956644 0.0000000000 0.0000000000
-0.3386407856 -0.3678619555 0.0000000000 0.0000000000 0.0000000000 -149.1735461337 0.0000000000 0.0000000000
-0.3231496187 -0.3815420343 0.0000000000 0.0000000000 0.0000000000 -196.9436161760 0.0000000000 0.0000000000
-0.3071063561 -0.3945702549 0.0000000000 0.0000000000 0.0000000000 -242.5817760373 0.0000000000 0.0000000000
-0.2905384075 -0.4069243588 0.0000000000 0.0000000000 0.0000000000 -285.6956986346 0.0000000000 0.0000000000
-0.2734740788 -0.4185832393 0.0000000000 0.0000000000 0.0000000000 -325.9290511425 0.0000000000 0.0000000000
-0.2559425243 -0.4295269773 0.0000000000 0.0000000000 0.0000000000 -362.9674215837 0.0000000000 0.0000000000
-0.2379736963 -0.4397368757 0.0000000000 0.0000000000 0.0000000000 -396.5439223938 0.0000000000 0.0000000000
-0.2195982942 -0.4491954911 0.0000000000 0.0000000000 0.0000000000 -426.4442963629 0.0000000000 0.0000000000
-0.2008477121 -0.4578866634 0.0000000000 0.0000000000 0.0000000000 -452.5113262667 0.0000000000 0.0000000000
-0.1817539850 -0.4657955441 0.0000000000 0.0000000000 0.0000000000 -474.6483307221 0.0000000000 0.0000000000
-0.1623497343 -0.4729086209 0.0000000000 0.0000000000 0.0000000000 -492.8215192290 0.0000000000 0.0000000000
-0.1426681118 -0.4792137413 0.0000000000 0.0000000000 0.0000000000 -507.0609833854 0.0000000000 0.0000000000
-0.1227427433 -0.4847001330 0.0000000000 0.0000000000 0.0000000000 -517.4601231023 0.0000000000 0.0000000000
-0.1026076708 -0.4893584227 0.0000000000 0.0000000000 0.0000000000 -524.1733499979 0.0000000000 0.0000000000
-0.0822972948 -0.4931806518 0.0000000000 0.0000000000 0.0000000000 -527.4119766008 0.0000000000 0.0000000000
-0.0618463153 -0.4961602899 0.0000000000 0.0000000000 0.0000000000 -527.4382893947 0.0000000000 0.0000000000
-0.0412896724 -0.4982922465 0.0000000000 0.0000000000 0.0000000000 -524.5579110328 0.0000000000 0.0000000000
-0.0206624868 -0.4995728792 0.0000000000 0.0000000000 0.0000000000 -519.1106763129 0.0000000000 0.0000000000
0.0000000003 -0.5000000000 0.0000000000 0.0000000000 0.0000000000 -511.4603629054 0.0000000000 0.0000000000
0.0206624874 -0.4995728792 0.0000000000 0.0000000000 0.0000000000 -501.9837240906 0.0000000000 0.0000000000
0.0412896730 -0.4982922465 0.0000000000 0.0000000000 0.0000000000 -491.0593390755 0.0000000000 0.0000000000
0.0618463159 -0.4961602898 0.0000000000 0.0000000000 0.0000000000 -479.0568373121 0.0000000000 0.0000000000
0.0822972955 -0.4931806516 0.0000000000 0.0000000000 0.0000000000 -466.3270081231 0.0000000000 0.0000000000
0.1026076714 -0.4893584226 0.0000000000 0.0000000000 0.0000000000 -453.1932673935 0.0000000000 0.0000000000
0.1227427439 -0.4847001329 0.0000000000 0.0000000000 0.0000000000 -439.9447451350 0.0000000000 0.0000000000
0.1426681124 -0.4792137411 0.0000000000 0.0000000000 0.0000000000 -426.8312845129 0.0000000000 0.0000000000
0.1623497349 -0.4729086207 0.0000000000 0.0000000000 0.0000000000 -414.0602142298 0.0000000000 0.0000000000
0.1817539856 -0.4657955439 0.0000000000 0.0000000000 0.0000000000 -401.7954309958 0.0000000000 0.0000000000
0.2008477126 -0.4578866632 0.0000000000 0.0000000000 0.0000000000 -390.1580449418 0.0000000000 0.0000000000
0.2195982947 -0.4491954908 0.0000000000 0.0000000000 0.0000000000 -379.2308572073 0.0000000000 0.0000000000
0.2379736968 -0.4397368754 0.0000000000 0.0000000000 0.0000000000 -369.0629031115 0.0000000000 0.0000000000
0.2559425248 -0.4295269770 0.0000000000 0.0000000000 0.0000000000 -359.6826401519 0.0000000000 0.0000000000
0.2734740794 -0.4185832389 0.0000000000 0.0000000000 0.0000000000 -351.1004450683 0.0000000000 0.0000000000
0.2905384080 -0.4069243584 0.0000000000 0.0000000000 0.0000000000 -343.3384023499 0.0000000000 0.0000000000
0.3071063566 -0.3945702545 0.0000000000 0.0000000000 0.0000000000 -336.3970345726 0.0000000000 0.0000000000
0.3231496192 -0.3815420339 0.0000000000 0.0000000000 0.0000000000 -330.3516791068 0.0000000000 0.0000000000
0.3386407861 -0.3678619551 0.0000000000 0.0000000000 0.0000000000 -325.1283213570 0.0000000000 0.0000000000
0.5497889042 -0.5101295529 0.0000000000 0.1191651961 -0.0404551950 -293.6883279355 0.0000000000 0.0000000000
0.5684787927 -0.4892155581 0.0000000000 0.0839737304 -0.0500373715 -292.4419017885 0.0000000000 0.0000000000
0.5863736122 -0.4676173510 0.0000000000 0.0566959732 -0.0616924659 -291.8477489892 0.0000000000 0.0000000000
0.6034483351 -0.4453651388 0.0000000000 0.0365545848 -0.0751561812 -291.9236417700 0.0000000000 0.0000000000
0.6196790810 -0.4224900431 0.0000000000 0.0223730293 -0.0900005023 -292.6483730500 0.0000000000 0.0000000000
0.6350431497 -0.3990240570 0.0000000000 0.0127258692 -0.1056607059 -293.9665741976 0.0000000000 0.0000000000
0.6495190531 -0.3749999996 0.0000000000 0.0061280476 -0.1214928659 -295.7987884234 0.0000000000 0.0000000000
0.6630865453 -0.3504514708 0.0000000000 0.0012131534 -0.1368428583 -298.0544583329 0.0000000000 0.0000000000
0.6757266511 -0.3254128039 0.0000000000 -0.0031394878 -0.1511084205 -300.6431675916 0.0000000000 0.0000000000
0.6874216921 -0.2999190178 0.0000000000 -0.0077450388 -0.1637826671 -303.4823633370 0.0000000000 0.0000000000
0.6981553116 -0.2740057679 0.0000000000 -0.0131131947 -0.1744760418 -306.5019986943 0.0000000000 0.0000000000
0.7079124979 -0.2477092961 0.0000000000 -0.0194873261 -0.1829199064 -309.6474117170 0.0000000000 0.0000000000
0.7166796045 -0.2210663804 0.0000000000 -0.0269006809 -0.1889575706 -312.8813994545 0.0000000000 0.0000000000
0.7244443698 -0.1941142835 0.0000000000 -0.0352335675 -0.1925284822 -316.1856815741 0.0000000000 0.0000000000
0.7311959342 -0.1668907001 0.0000000000 -0.0442630320 -0.1936500201 -319.5614282992 0.0000000000 0.0000000000
0.7369248550 -0.1394337050 0.0000000000 -0.0537023361 -0.1923998874 -323.0284280454 0.0000000000 0.0000000000
0.7416231197 -0.1117816993 0.0000000000 -0.0632307274 -0.1889008780 -326.6226525666 0.0000000000 0.0000000000
0.7452841575 -0.0839733567 0.0000000000 -0.0725151893 -0.1833088341 -330.3922456184 0.0000000000 0.0000000000
0.7479028479 -0.0560475699 0.0000000000 -0.0812260012 -0.1758038903 -334.3921934129 0.0000000000 0.0000000000
0.7494755286 -0.0280433954 0.0000000000 -0.0890476740 -0.1665846161 -338.6780915358 0.0000000000 0.0000000000
0.7500000000 0.0000000003 0.0000000000 -0.0956865016 -0.1558644181 -343.2995074036 0.0000000000 0.0000000000
0.7494755286 0.0280433960 0.0000000000 -0.1008757044 -0.1438695087 -348.2934659256 0.0000000000 0.0000000000
0.7479028479 0.0560475705 0.0000000000 -0.1043789587 -0.1308378286 -353.6785740067 0.0000000000 0.0000000000
0.7452841574 0.0839733573 0.0000000000 -0.1059929726 -0.1170184399 -359.4502587183 0.0000000000 0.0000000000
0.7416231196 0.1117816999 0.0000000000 -0.1055496220 -0.1026710181 -365.5775336588 0.0000000000 0.0000000000
0.7369248549 0.1394337056 0.0000000000 -0.1029179512 -0.0880651383 -372.0016341946 0.0000000000 0.0000000000
0.7311959341 0.1668907007 0.0000000000 -0.0980060122 -0.0734790639 -378.6367750268 0.0000000000 0.0000000000
0.7244443697 0.1941142840 0.0000000000 -0.0907620943 -0.0591977387 -385.3731753211 0.0000000000 0.0000000000
0.7166796043 0.2210663810 0.0000000000 -0.0811744273 -0.0455096710 -392.0823543292 0.0000000000 0.0000000000
0.7079124977 0.2477092967 0.0000000000 -0.0692680471 -0.0327024110 -398.6245137172 0.0000000000 0.0000000000
0.6981553114 0.2740057685 0.0000000000 -0.0550973051 -0.0210563267 -404.8575955970 0.0000000000 0.0000000000
0.6874216918 0.2999190184 0.0000000000 -0.0387325986 -0.0108363704 -410.6473648914 0.0000000000 0.0000000000
0.6757266509 0.3254128045 0.0000000000 -0.0202403599 -0.0022814745 -415.8776587901 0.0000000000 0.0000000000
0.6630865451 0.3504514714 0.0000000000 0.0003437334 0.0044088219 -420.4598255779 0.0000000000 0.0000000000
0.6495190528 0.3750000001 0.0000000000 0.0230468918 0.0090907971 -424.3403703485 0.0000000000 0.0000000000
0.6350431493 0.3990240575 0.0000000000 0.0479931166 0.0116958253 -427.5059324142 0.0000000000 0.0000000000
0.6196790807 0.4224900437 0.0000000000 0.0754325772 0.0122512703 -429.9849101046 0.0000000000 0.0000000000
0.6034483348 0.4453651393 0.0000000000 0.1057574089 0.0109001536 -431.8453054547 0.0000000000 0.0000000000
0.5863736118 0.4676173515 0.0000000000 0.1394933406 0.0079149556 -433.1886811649 0.0000000000 0.0000000000
0.5684787923 0.4892155585 0.0000000000 0.1772581347 0.0036997962 -434.1405612571 0.0000000000 0.0000000000
0.5497889038 0.5101295534 0.0000000000 0.2196829820 -0.0012239025 -434.8332170854 0.0000000000 0.0000000000
0.5079611787 0.5517929331 0.0000000000 0.3264076842 -0.0111377608 -436.0832628854 0.0000000000 0.0000000000
0.4847244283 0.5723130512 0.0000000000 0.3922760620 -0.0144982190 -436.8515568707 0.0000000000 0.0000000000
0.4606595344 0.5918553821 0.0000000000 0.4643050231 -0.0155994479 -437.8239852273 0.0000000000 0.0000000000
0.4358076115 0.6103865380 0.0000000000 0.5413314349 -0.0138855052 -439.0464566230 0.0000000000 0.0000000000
0.4102111185 0.6278748587 0.0000000000 0.6217065153 -0.0090025486 -440.5171475119 0.0000000000 0.0000000000
0.3839137867 0.6442904658 0.0000000000 0.7034566348 -0.0008050272 -442.1909542262 0.0000000000 0.0000000000
0.3569605447 0.6596053135 0.0000000000 0.7844777864 0.0106604765 -443.9830011934 0.0000000000 0.0000000000
0.3293974415 0.6737932365 0.0000000000 0.8627278801 0.0251856322 -445.7732642659 0.0000000000 0.0000000000
0.3012715684 0.6868299950 0.0000000000 0.9363900726 0.0424388052 -447.4134563736 0.0000000000 0.0000000000
0.2726309778 0.6986933161 0.0000000000 1.0039909575 0.0620074895 -448.7361533101 0.0000000000 0.0000000000
0.2435246018 0.7093629313 0.0000000000 1.0644664635 0.0834408997 -449.5651102479 0.0000000000 0.0000000000
0.2140021681 0.7188206119 0.0000000000 1.1171761698 0.1062885432 -449.7251441795 0.0000000000 0.0000000000
0.1841141152 0.7270501995 0.0000000000 1.1618735086 0.1301309177 -449.0500869391 0.0000000000 0.0000000000
0.1539115065 0.7340376340 0.0000000000 1.1986441863 0.1545998793 -447.3879583380 0.0000000000 0.0000000000
0.1234459426 0.7397709776 0.0000000000 1.2278272201 0.1793882038 -444.6032997420 0.0000000000 0.0000000000
0.0927694733 0.7442404348 0.0000000000 1.2499321406 0.2042496708 -440.5772317901 0.0000000000 0.0000000000
0.0619345090 0.7474383698 0.0000000000 1.2655629194 0.2289921474 -435.2061110852 0.0000000000 0.0000000000
0.0309937305 0.7493593188 0.0000000000 1.2753552525 0.2534665135 -428.3996734476 0.0000000000 0.0000000000
-0.0000000002 0.7500000000 0.0000000000 1.2799300277 0.2775540298 -420.0793647972 0.0000000000 0.0000000000
-0.0309937308 0.7493593188 0.0000000000 1.2798628203 0.3011541507 -410.1772903388 0.0000000000 0.0000000000
-0.0619345093 0.7474383697 0.0000000000 1.2756673352 0.3241740781 -398.6359487432 0.0000000000 0.0000000000
-0.0927694736 0.7442404348 0.0000000000 1.2677897826 0.3465207059 -385.4087126882 0.0000000000 0.0000000000
-0.1234459429 0.7397709775 0.0000000000 1.2566110054 0.3680951040 -370.4608884596 0.0000000000 0.0000000000
-0.1539115068 0.7340376340 0.0000000000 1.2424534856 0.3887893565 -353.7711300131 0.0000000000 0.0000000000
-0.1841141155 0.7270501994 0.0000000000 1.2255909112 0.4084853915 -335.3329797426 0.0000000000 0.0000000000
-0.2140021684 0.7188206118 0.0000000000 1.2062585899 0.4270553690 -315.1563389093 0.0000000000 0.0000000000
-0.2435246021 0.7093629312 0.0000000000 1.1846635565 0.4443632032 -293.2687173890 0.0000000000 0.0000000000
-0.2726309781 0.6986933160 0.0000000000 1.1609936803 0.4602668446 -269.7161620735 0.0000000000 0.0000000000
-0.3012715687 0.6868299949 0.0000000000 1.1354254172 0.4746210131 -244.5638079831 0.0000000000 0.0000000000
-0.3293974418 0.6737932363 0.0000000000 1.1081300924 0.4872801437 -217.8960322088 0.0000000000 0.0000000000
-0.3569605450 0.6596053133 0.0000000000 1.0792787454 0.4981013643 -189.8162173929 0.0000000000 0.0000000000
-0.3839137870 0.6442904657 0.0000000000 1.0490456613 0.5069473808 -160.4461494209 0.0000000000 0.0000000000
-0.4102111188 0.6278748586 0.0000000000 1.0176107466 0.5136891811 -129.9250849457 0.0000000000 0.0000000000
-0.4358076117 0.6103865378 0.0000000000 0.9851609268 0.5182085046 -98.4085300176 0.0000000000 0.0000000000
-0.4606595347 0.5918553819 0.0000000000 0.9518907331 0.5204000417 -66.0667730033 0.0000000000 0.0000000000
-0.4847244286 0.5723130510 0.0000000000 0.9180022325 0.5201733467 -33.0832144126 0.0000000000 0.0000000000
-0.5079611789 0.5517929329 0.0000000000 0.8837044382 0.5174544585 0.3474658555 0.0000000000 0.0000000000
-0.5517929332 0.5079611785 0.0000000000 0.8147454803 0.5043343687 67.7269119857 0.0000000000 0.0000000000
-0.5723130513 0.4847244282 0.0000000000 0.7805266754 0.4938782080 101.2479628571 0.0000000000 0.0000000000
-0.5918553822 0.4606595343 0.0000000000 0.7467800849 0.4808212050 134.3649523697 0.0000000000 0.0000000000
-0.6103865381 0.4358076114 0.0000000000 0.7137295477 0.4651861919 166.8575321828 0.0000000000 0.0000000000
-0.6278748588 0.4102111184 0.0000000000 0.6815967135 0.4470163876 198.5065982447 0.0000000000 0.0000000000
-0.6442904659 0.3839137866 0.0000000000 0.6505991785 0.4263751847 229.0963766990 0.0000000000 0.0000000000
-0.6596053135 0.3569605446 0.0000000000 0.6209486355 0.4033457301 258.4164495575 0.0000000000 0.0000000000
-0.6737932365 0.3293974414 0.0000000000 0.5928490648 0.3780303111 286.2637022366 0.0000000000 0.0000000000
-0.6868299951 0.3012715682 0.0000000000 0.5664949918 0.3505495644 312.4441774600 0.0000000000 0.0000000000
-0.6986933161 0.2726309777 0.0000000000 0.5420698309 0.3210415206 336.7748225348 0.0000000000 0.0000000000
-0.7093629314 0.2435246016 0.0000000000 0.5197443344 0.2896604984 359.0851192593 0.0000000000 0.0000000000
-0.7188206119 0.2140021679 0.0000000000 0.4996751595 0.2565758591 379.2185873419 0.0000000000 0.0000000000
-0.7270501995 0.1841141151 0.0000000000 0.4820035640 0.2219706350 397.0341532039 0.0000000000 0.0000000000
-0.7340376341 0.1539115064 0.0000000000 0.4668542361 0.1860400422 412.4073763028 0.0000000000 0.0000000000
-0.7397709776 0.1234459424 0.0000000000 0.4543342645 0.1489898907 425.2315252471 0.0000000000 0.0000000000
-0.7442404348 0.0927694732 0.0000000000 0.4445322467 0.1110349065 435.4184961511 0.0000000000 0.0000000000
-0.7474383698 0.0619345088 0.0000000000 0.4375175381 0.0723969828 442.8995658939 0.0000000000 0.0000000000
-0.7493593188 0.0309937304 0.0000000000 0.4333396447 0.0333033804 447.6259749199 0.0000000000 0.0000000000
-0.7500000000 -0.0000000003 0.0000000000 0.4320277699 -0.0060151020 449.5693377703 0.0000000000 0.0000000000
-0.7493593188 -0.0309937310 0.0000000000 0.4335905340 -0.0453259694 448.7218861305 0.0000000000 0.0000000000
-0.7474383697 -0.0619345094 0.0000000000 0.4380158853 -0.0843968779 445.0965498415 0.0000000000 0.0000000000
-0.7442404348 -0.0927694738 0.0000000000 0.4452712096 -0.1229974816 438.7268781026 0.0000000000 0.0000000000
-0.7397709775 -0.1234459430 0.0000000000 0.4553036342 -0.1609012782 429.6667982160 0.0000000000 0.0000000000
-0.7340376339 -0.1539115070 0.0000000000 0.4680405093 -0.1978874453 417.9902037056 0.0000000000 0.0000000000
-0.7270501994 -0.1841141157 0.0000000000 0.4833900466 -0.2337426520 403.7903655466 0.0000000000 0.0000000000
-0.7188206117 -0.2140021685 0.0000000000 0.5012420964 -0.2682628236 387.1791651371 0.0000000000 0.0000000000