 TITLE = "Tecplot data"
 VARIABLES = "X", "Y", "Z" "U", "V", "p", "dispX", "dispY"
 ZONE SOLUTIONTIME=189.900000, NODES=26114 , ELEMENTS=25916, DATAPACKING=POINT, ZONETYPE=FEQUADRILATERAL
0.3535533906 0.3535533906 0.0000000000 0.0000000000 0.0000000000 -467.4557050061 0.0000000000 0.0000000000
0.3535533908 -0.3535533903 0.0000000000 0.0000000000 0.0000000000 -300.0822473117 0.0000000000 0.0000000000
-0.3535533907 0.3535533905 0.0000000000 0.0000000000 0.0000000000 -147.9720751633 0.0000000000 0.0000000000
-0.3535533904 -0.3535533908 0.0000000000 0.0000000000 0.0000000000 -75.9804013668 0.0000000000 0.0000000000
0.5303300858 0.5303300859 0.0000000000 0.2822356424 0.0078307010 -452.2875114120 0.0000000000 0.0000000000
0.5303300863 -0.5303300855 0.0000000000 0.1477923768 -0.0200852417 -276.3631270198 0.0000000000 0.0000000000
-0.5303300861 0.5303300857 0.0000000000 0.8606669203 0.5214362966 21.1496496085 0.0000000000 0.0000000000
-0.5303300856 -0.5303300862 0.0000000000 0.8390041827 -0.5140189437 75.9328795752 0.0000000000 0.0000000000
1.0606601717 1.0606601719 0.0000000000 1.1880316962 -0.0814400944 -257.2250631755 0.0000000000 0.0000000000
1.0606601725 -1.0606601710 0.0000000000 1.2861452202 -0.0533477186 -226.3681242944 0.0000000000 0.0000000000
-1.0606601721 1.0606601715 0.0000000000 0.9464579792 0.1769927992 65.5651907574 0.0000000000 0.0000000000
-1.0606601712 -1.0606601723 0.0000000000 0.9400522192 -0.1814363394 97.9677366133 0.0000000000 0.0000000000
4.2000000000 3.3000000000 0.0000000000 1.0516584251 -0.0400392875 -6.5924747108 0.0000000000 0.0000000000
4.2000000000 -3.3000000000 0.0000000000 1.0223613894 -0.0027116132 7.4116864003 0.0000000000 0.0000000000
20.0000000000 4.7000000000 0.0000000000 1.0436044943 0.0194845874 0.1603600568 0.0000000000 0.0000000000
20.0000000000 -4.7000000000 0.0000000000 1.0257766747 -0.0188908563 0.1736832418 0.0000000000 0.0000000000
-10.0000000000 15.0000000000 0.0000000000 1.0000000000 0.0000000000 19.2134922972 0.0000000000 0.0000000000
20.0000000000 15.0000000000 0.0000000000 1.0214264274 0.0000000000 0.0230727182 0.0000000000 0.0000000000
20.0000000000 -15.0000000000 0.0000000000 1.0214475432 0.0000000000 0.0219913749 0.0000000000 0.0000000000
-10.0000000000 -15.0000000000 0.0000000000 1.0000000000 0.0000000000 25.3991403302 0.0000000000 0.0000000000
0.3665259362 -0.3400863686 0.0000000000 0.0000000000 0.0000000000 -297.1562592998 0.0000000000 0.0000000000
0.3789858618 -0.3261437054 0.0000000000 0.0000000000 0.0000000000 -294.8723921371 0.0000000000 0.0000000000
0.3909157414 -0.3117449007 0.0000000000 0.0000000000 0.0000000000 -293.3100114971 0.0000000000 0.0000000000
0.4022988901 -0.2969100925 0.0000000000 0.0000000000 0.0000000000 -292.3852417212 0.0000000000 0.0000000000
0.4131193873 -0.2816600288 0.0000000000 0.0000000000 0.0000000000 -292.0922236212 0.0000000000 0.0000000000
0.4233620998 -0.2660160380 0.0000000000 0.0000000000 0.0000000000 -292.3529087728 0.0000000000 0.0000000000
0.4330127020 -0.2499999997 0.0000000000 0.0000000000 0.0000000000 -293.1103902083 0.0000000000 0.0000000000
0.4420576969 -0.2336343139 0.0000000000 0.0000000000 0.0000000000 -294.2927078383 0.0000000000 0.0000000000
0.4504844341 -0.2169418693 0.0000000000 0.0000000000 0.0000000000 -295.8408830277 0.0000000000 0.0000000000
0.4582811280 -0.1999460119 0.0000000000 0.0000000000 0.0000000000 -297.7042006627 0.0000000000 0.0000000000
0.4654368744 -0.1826705119 0.0000000000 0.0000000000 0.0000000000 -299.8486550017 0.0000000000 0.0000000000
0.4719416652 -0.1651395307 0.0000000000 0.0000000000 0.0000000000 -302.2564249140 0.0000000000 0.0000000000
0.4777864030 -0.1473775870 0.0000000000 0.0000000000 0.0000000000 -304.9270051994 0.0000000000 0.0000000000
0.4829629132 -0.1294095223 0.0000000000 0.0000000000 0.0000000000 -307.8752691891 0.0000000000 0.0000000000
0.4874639561 -0.1112604667 0.0000000000 0.0000000000 0.0000000000 -311.1290829121 0.0000000000 0.0000000000
0.4912832367 -0.0929558033 0.0000000000 0.0000000000 0.0000000000 -314.7255450712 0.0000000000 0.0000000000
0.4944154131 -0.0745211329 0.0000000000 0.0000000000 0.0000000000 -318.7066006620 0.0000000000 0.0000000000
0.4968561050 -0.0559822378 0.0000000000 0.0000000000 0.0000000000 -323.1139822064 0.0000000000 0.0000000000
0.4986018986 -0.0373650466 0.0000000000 0.0000000000 0.0000000000 -327.9838908478 0.0000000000 0.0000000000
0.4996503524 -0.0186955969 0.0000000000 0.0000000000 0.0000000000 -333.3417154536 0.0000000000 0.0000000000
0.5000000000 0.0000000002 0.0000000000 0.0000000000 0.0000000000 -339.1972373028 0.0000000000 0.0000000000
0.4996503524 0.0186955973 0.0000000000 0.0000000000 0.0000000000 -345.5407708052 0.0000000000 0.0000000000
0.4986018986 0.0373650470 0.0000000000 0.0000000000 0.0000000000 -352.3406393445 0.0000000000 0.0000000000
0.4968561049 0.0559822382 0.0000000000 0.0000000000 0.0000000000 -359.5423752664 0.0000000000 0.0000000000
0.4944154131 0.0745211333 0.0000000000 0.0000000000 0.0000000000 -367.0697285440 0.0000000000 0.0000000000
0.4912832366 0.0929558037 0.0000000000 0.0000000000 0.0000000000 -374.8277014691 0.0000000000 0.0000000000
0.4874639561 0.1112604671 0.0000000000 0.0000000000 0.0000000000 -382.7070571920 0.0000000000 0.0000000000
0.4829629131 0.1294095227 0.0000000000 0.0000000000 0.0000000000 -390.5906392031 0.0000000000 0.0000000000
0.4777864029 0.1473775873 0.0000000000 0.0000000000 0.0000000000 -398.3597533479 0.0000000000 0.0000000000
0.4719416651 0.1651395311 0.0000000000 0.0000000000 0.0000000000 -405.9023395399 0.0000000000 0.0000000000
0.4654368743 0.1826705123 0.0000000000 0.0000000000 0.0000000000 -413.1182127444 0.0000000000 0.0000000000
0.4582811279 0.1999460123 0.0000000000 0.0000000000 0.0000000000 -419.9283613197 0.0000000000 0.0000000000
0.4504844339 0.2169418697 0.0000000000 0.0000000000 0.0000000000 -426.2744216437 0.0000000000 0.0000000000
0.4420576967 0.2336343142 0.0000000000 0.0000000000 0.0000000000 -432.1322919671 0.0000000000 0.0000000000
0.4330127018 0.2500000001 0.0000000000 0.0000000000 0.0000000000 -437.4963967673 0.0000000000 0.0000000000
0.4233620996 0.2660160383 0.0000000000 0.0000000000 0.0000000000 -442.4121037652 0.0000000000 0.0000000000
0.4131193871 0.2816600291 0.0000000000 0.0000000000 0.0000000000 -446.9178014131 0.0000000000 0.0000000000
0.4022988898 0.2969100929 0.0000000000 0.0000000000 0.0000000000 -451.1439497120 0.0000000000 0.0000000000
0.3909157412 0.3117449010 0.0000000000 0.0000000000 0.0000000000 -455.1264845402 0.0000000000 0.0000000000
0.3789858615 0.3261437057 0.0000000000 0.0000000000 0.0000000000 -459.1294215106 0.0000000000 0.0000000000
0.3665259359 0.3400863689 0.0000000000 0.0000000000 0.0000000000 -463.0359875169 0.0000000000 0.0000000000
0.3386407858 0.3678619554 0.0000000000 0.0000000000 0.0000000000 -472.3410442613 0.0000000000 0.0000000000
0.3231496189 0.3815420341 0.0000000000 0.0000000000 0.0000000000 -478.1129112440 0.0000000000 0.0000000000
0.3071063563 0.3945702547 0.0000000000 0.0000000000 0.0000000000 -484.3902136910 0.0000000000 0.0000000000
0.2905384077 0.4069243587 0.0000000000 0.0000000000 0.0000000000 -491.5230672224 0.0000000000 0.0000000000
0.2734740790 0.4185832392 0.0000000000 0.0000000000 0.0000000000 -499.4052459701 0.0000000000 0.0000000000
0.2559425245 0.4295269772 0.0000000000 0.0000000000 0.0000000000 -508.1227999412 0.0000000000 0.0000000000
0.2379736965 0.4397368756 0.0000000000 0.0000000000 0.0000000000 -517.6041375115 0.0000000000 0.0000000000
0.2195982944 0.4491954910 0.0000000000 0.0000000000 0.0000000000 -527.8224438079 0.0000000000 0.0000000000
0.2008477123 0.4578866634 0.0000000000 0.0000000000 0.0000000000 -538.6864579608 0.0000000000 0.0000000000
0.1817539852 0.4657955441 0.0000000000 0.0000000000 0.0000000000 -550.1015736592 0.0000000000 0.0000000000
0.1623497345 0.4729086209 0.0000000000 0.0000000000 0.0000000000 -561.9317147361 0.0000000000 0.0000000000
0.1426681120 0.4792137413 0.0000000000 0.0000000000 0.0000000000 -574.0151802047 0.0000000000 0.0000000000
0.1227427435 0.4847001330 0.0000000000 0.0000000000 0.0000000000 -586.1507845163 0.0000000000 0.0000000000
0.1026076710 0.4893584227 0.0000000000 0.0000000000 0.0000000000 -598.1028161749 0.0000000000 0.0000000000
0.0822972951 0.4931806517 0.0000000000 0.0000000000 0.0000000000 -609.5987375470 0.0000000000 0.0000000000
0.0618463155 0.4961602899 0.0000000000 0.0000000000 0.0000000000 -620.3344170566 0.0000000000 0.0000000000
0.0412896726 0.4982922465 0.0000000000 0.0000000000 0.0000000000 -629.9785753827 0.0000000000 0.0000000000
0.0206624870 0.4995728792 0.0000000000 0.0000000000 0.0000000000 -638.1806280180 0.0000000000 0.0000000000
-0.0000000001 0.5000000000 0.0000000000 0.0000000000 0.0000000000 -644.5790945327 0.0000000000 0.0000000000
-0.0206624872 0.4995728792 0.0000000000 0.0000000000 0.0000000000 -648.8114678634 0.0000000000 0.0000000000
-0.0412896728 0.4982922465 0.0000000000 0.0000000000 0.0000000000 -650.5243408853 0.0000000000 0.0000000000
-0.0618463157 0.4961602899 0.0000000000 0.0000000000 0.0000000000 -649.3836773956 0.0000000000 0.0000000000
-0.0822972953 0.4931806517 0.0000000000 0.0000000000 0.0000000000 -645.0845439005 0.0000000000 0.0000000000
-0.1026076712 0.4893584226 0.0000000000 0.0000000000 0.0000000000 -637.3599876761 0.0000000000 0.0000000000
-0.1227427437 0.4847001329 0.0000000000 0.0000000000 0.0000000000 -625.9886656730 0.0000000000 0.0000000000
-0.1426681122 0.4792137412 0.0000000000 0.0000000000 0.0000000000 -610.8010157302 0.0000000000 0.0000000000
-0.1623497347 0.4729086208 0.0000000000 0.0000000000 0.0000000000 -591.6838234759 0.0000000000 0.0000000000
-0.1817539854 0.4657955440 0.0000000000 0.0000000000 0.0000000000 -568.5831616523 0.0000000000 0.0000000000
-0.2008477124 0.4578866633 0.0000000000 0.0000000000 0.0000000000 -541.5057537662 0.0000000000 0.0000000000
-0.2195982945 0.4491954909 0.0000000000 0.0000000000 0.0000000000 -510.5188864401 0.0000000000 0.0000000000
-0.2379736966 0.4397368755 0.0000000000 0.0000000000 0.0000000000 -475.7490354277 0.0000000000 0.0000000000
-0.2559425247 0.4295269771 0.0000000000 0.0000000000 0.0000000000 -437.3793910865 0.0000000000 0.0000000000
-0.2734740792 0.4185832391 0.0000000000 0.0000000000 0.0000000000 -395.6464655908 0.0000000000 0.0000000000
-0.2905384078 0.4069243586 0.0000000000 0.0000000000 0.0000000000 -350.8359446478 0.0000000000 0.0000000000
-0.3071063565 0.3945702546 0.0000000000 0.0000000000 0.0000000000 -303.2779180784 0.0000000000 0.0000000000
-0.3231496190 0.3815420340 0.0000000000 0.0000000000 0.0000000000 -253.3415986525 0.0000000000 0.0000000000
-0.3386407859 0.3678619552 0.0000000000 0.0000000000 0.0000000000 -201.4296277319 0.0000000000 0.0000000000
-0.3678619554 0.3386407857 0.0000000000 0.0000000000 0.0000000000 -93.4202646433 0.0000000000 0.0000000000
-0.3815420342 0.3231496188 0.0000000000 0.0000000000 0.0000000000 -38.2405794336 0.0000000000 0.0000000000
-0.3945702548 0.3071063562 0.0000000000 0.0000000000 0.0000000000 17.0915912907 0.0000000000 0.0000000000
-0.4069243587 0.2905384076 0.0000000000 0.0000000000 0.0000000000 72.0976286342 0.0000000000 0.0000000000
-0.4185832392 0.2734740789 0.0000000000 0.0000000000 0.0000000000 126.3010943640 0.0000000000 0.0000000000
-0.4295269773 0.2559425244 0.0000000000 0.0000000000 0.0000000000 179.2327442149 0.0000000000 0.0000000000
-0.4397368757 0.2379736964 0.0000000000 0.0000000000 0.0000000000 230.4351596520 0.0000000000 0.0000000000
-0.4491954910 0.2195982943 0.0000000000 0.0000000000 0.0000000000 279.4670384007 0.0000000000 0.0000000000
-0.4578866634 0.2008477122 0.0000000000 0.0000000000 0.0000000000 325.9071862245 0.0000000000 0.0000000000
-0.4657955441 0.1817539851 0.0000000000 0.0000000000 0.0000000000 369.3582395714 0.0000000000 0.0000000000
-0.4729086209 0.1623497344 0.0000000000 0.0000000000 0.0000000000 409.4501305712 0.0000000000 0.0000000000
-0.4792137413 0.1426681119 0.0000000000 0.0000000000 0.0000000000 445.8432899432 0.0000000000 0.0000000000
-0.4847001330 0.1227427434 0.0000000000 0.0000000000 0.0000000000 478.2315731217 0.0000000000 0.0000000000
-0.4893584227 0.1026076709 0.0000000000 0.0000000000 0.0000000000 506.3448905651 0.0000000000 0.0000000000
-0.4931806517 0.0822972949 0.0000000000 0.0000000000 0.0000000000 529.9515232888 0.0000000000 0.0000000000
-0.4961602899 0.0618463154 0.0000000000 0.0000000000 0.0000000000 548.8601072403 0.0000000000 0.0000000000
-0.4982922465 0.0412896725 0.0000000000 0.0000000000 0.0000000000 562.9212736852 0.0000000000 0.0000000000
-0.4995728792 0.0206624869 0.0000000000 0.0000000000 0.0000000000 572.0289362702 0.0000000000 0.0000000000
-0.5000000000 -0.0000000002 0.0000000000 0.0000000000 0.0000000000 576.1212183834 0.0000000000 0.0000000000
-0.4995728792 -0.0206624873 0.0000000000 0.0000000000 0.0000000000 575.1810166759 0.0000000000 0.0000000000
-0.4982922465 -0.0412896729 0.0000000000 0.0000000000 0.0000000000 569.2361982024 0.0000000000 0.0000000000
-0.4961602898 -0.0618463158 0.0000000000 0.0000000000 0.0000000000 558.3594297209 0.0000000000 0.0000000000
-0.4931806517 -0.0822972954 0.0000000000 0.0000000000 0.0000000000 542.6676384766 0.0000000000 0.0000000000
-0.4893584226 -0.1026076713 0.0000000000 0.0000000000 0.0000000000 522.3211044325 0.0000000000 0.0000000000
-0.4847001329 -0.1227427438 0.0000000000 0.0000000000 0.0000000000 497.5221845483 0.0000000000 0.0000000000
-0.4792137412 -0.1426681123 0.0000000000 0.0000000000 0.0000000000 468.5136704030 0.0000000000 0.0000000000
-0.4729086208 -0.1623497348 0.0000000000 0.0000000000 0.0000000000 435.5767812027 0.0000000000 0.0000000000
-0.4657955439 -0.1817539855 0.0000000000 0.0000000000 0.0000000000 399.0287949950 0.0000000000 0.0000000000
-0.4578866632 -0.2008477125 0.0000000000 0.0000000000 0.0000000000 359.2203216525 0.0000000000 0.0000000000
-0.4491954908 -0.2195982946 0.0000000000 0.0000000000 0.0000000000 316.5322218994 0.0000000000 0.0000000000
-0.4397368755 -0.2379736967 0.0000000000 0.0000000000 0.0000000000 271.3721773501 0.0000000000 0.0000000000
-0.4295269771 -0.2559425248 0.0000000000 0.0000000000 0.0000000000 224.1709173119 0.0000000000 0.0000000000
-0.4185832390 -0.2734740793 0.0000000000 0.0000000000 0.0000000000 175.3781091498 0.0000000000 0.0000000000
-0.4069243585 -0.2905384079 0.0000000000 0.0000000000 0.0000000000 125.4579205381 0.0000000000 0.0000000000
-0.3945702545 -0.3071063565 0.0000000000 0.0000000000 0.0000000000 74.8842642483 0.0000000000 0.0000000000
-0.3815420339 -0.3231496191 0.0000000000 0.0000000000 0.0000000000 24.1357395533 0.0000000000 0.0000000000
-0.3678619552 -0.3386407860 0.0000000000 0.0000000000 0.0000000000 -26.3097106930 0.0000000000 0.0000000000
-0.3386407856 -0.3678619555 0.0000000000 0.0000000000 0.0000000000 -124.4167295443 0.0000000000 0.0000000000
-0.3231496187 -0.3815420343 0.0000000000 0.0000000000 0.0000000000 -171.1771748618 0.0000000000 0.0000000000
-0.3071063561 -0.3945702549 0.0000000000 0.0000000000 0.0000000000 -215.8444133116 0.0000000000 0.0000000000
-0.2905384075 -0.4069243588 0.0000000000 0.0000000000 0.0000000000 -258.0314635555 0.0000000000 0.0000000000
-0.2734740788 -0.4185832393 0.0000000000 0.0000000000 0.0000000000 -297.3877631936 0.0000000000 0.0000000000
-0.2559425243 -0.4295269773 0.0000000000 0.0000000000 0.0000000000 -333.6050480839 0.0000000000 0.0000000000
-0.2379736963 -0.4397368757 0.0000000000 0.0000000000 0.0000000000 -366.4228818645 0.0000000000 0.0000000000
-0.2195982942 -0.4491954911 0.0000000000 0.0000000000 0.0000000000 -395.6336569915 0.0000000000 0.0000000000
-0.2008477121 -0.4578866634 0.0000000000 0.0000000000 0.0000000000 -421.0868654390 0.0000000000 0.0000000000
-0.1817539850 -0.4657955441 0.0000000000 0.0000000000 0.0000000000 -442.6924200101 0.0000000000 0.0000000000
-0.1623497343 -0.4729086209 0.0000000000 0.0000000000 0.0000000000 -460.4228000126 0.0000000000 0.0000000000
-0.1426681118 -0.4792137413 0.0000000000 0.0000000000 0.0000000000 -474.3138021843 0.0000000000 0.0000000000
-0.1227427433 -0.4847001330 0.0000000000 0.0000000000 0.0000000000 -484.4637034406 0.0000000000 0.0000000000
-0.1026076708 -0.4893584227 0.0000000000 0.0000000000 0.0000000000 -491.0306894601 0.0000000000 0.0000000000
-0.0822972948 -0.4931806518 0.0000000000 0.0000000000 0.0000000000 -494.2284738751 0.0000000000 0.0000000000
-0.0618463153 -0.4961602899 0.0000000000 0.0000000000 0.0000000000 -494.3201253577 0.0000000000 0.0000000000
-0.0412896724 -0.4982922465 0.0000000000 0.0000000000 0.0000000000 -491.6102299123 0.0000000000 0.0000000000
-0.0206624868 -0.4995728792 0.0000000000 0.0000000000 0.0000000000 -486.4356337957 0.0000000000 0.0000000000
0.0000000003 -0.5000000000 0.0000000000 0.0000000000 0.0000000000 -479.1551287203 0.0000000000 0.0000000000
0.0206624874 -0.4995728792 0.0000000000 0.0000000000 0.0000000000 -470.1385377425 0.0000000000 0.0000000000
0.0412896730 -0.4982922465 0.0000000000 0.0000000000 0.0000000000 -459.7557296381 0.0000000000 0.0000000000
0.0618463159 -0.4961602898 0.0000000000 0.0000000000 0.0000000000 -448.3661049686 0.0000000000 0.0000000000
0.0822972955 -0.4931806516 0.0000000000 0.0000000000 0.0000000000 -436.3090744287 0.0000000000 0.0000000000
0.1026076714 -0.4893584226 0.0000000000 0.0000000000 0.0000000000 -423.8959367990 0.0000000000 0.0000000000
0.1227427439 -0.4847001329 0.0000000000 0.0000000000 0.0000000000 -411.4034694359 0.0000000000 0.0000000000
0.1426681124 -0.4792137411 0.0000000000 0.0000000000 0.0000000000 -399.0693028685 0.0000000000 0.0000000000
0.1623497349 -0.4729086207 0.0000000000 0.0000000000 0.0000000000 -387.0892065618 0.0000000000 0.0000000000
0.1817539856 -0.4657955439 0.0000000000 0.0000000000 0.0000000000 -375.6160327775 0.0000000000 0.0000000000
0.2008477126 -0.4578866632 0.0000000000 0.0000000000 0.0000000000 -364.7608864708 0.0000000000 0.0000000000
0.2195982947 -0.4491954908 0.0000000000 0.0000000000 0.0000000000 -354.5957707856 0.0000000000 0.0000000000
0.2379736968 -0.4397368754 0.0000000000 0.0000000000 0.0000000000 -345.1601308334 0.0000000000 0.0000000000
0.2559425248 -0.4295269770 0.0000000000 0.0000000000 0.0000000000 -336.4671326632 0.0000000000 0.0000000000
0.2734740794 -0.4185832389 0.0000000000 0.0000000000 0.0000000000 -328.5181354471 0.0000000000 0.0000000000
0.2905384080 -0.4069243584 0.0000000000 0.0000000000 0.0000000000 -321.3056662741 0.0000000000 0.0000000000
0.3071063566 -0.3945702545 0.0000000000 0.0000000000 0.0000000000 -314.8388813188 0.0000000000 0.0000000000
0.3231496192 -0.3815420339 0.0000000000 0.0000000000 0.0000000000 -309.1209160973 0.0000000000 0.0000000000
0.3386407861 -0.3678619551 0.0000000000 0.0000000000 0.0000000000 -304.1841840358 0.0000000000 0.0000000000
0.5497889042 -0.5101295529 0.0000000000 0.1053390263 -0.0236304440 -274.7902870244 0.0000000000 0.0000000000
0.5684787927 -0.4892155581 0.0000000000 0.0703692363 -0.0287168732 -273.6731563776 0.0000000000 0.0000000000
0.5863736122 -0.4676173510 0.0000000000 0.0426305461 -0.0352721950 -273.1196725927 0.0000000000 0.0000000000
0.6034483351 -0.4453651388 0.0000000000 0.0214791401 -0.0431280216 -273.1745107463 0.0000000000 0.0000000000
0.6196790810 -0.4224900431 0.0000000000 0.0059315676 -0.0519875581 -273.8525962282 0.0000000000 0.0000000000
0.6350431497 -0.3990240570 0.0000000000 -0.0052297294 -0.0614318867 -275.1390033277 0.0000000000 0.0000000000
0.6495190531 -0.3749999996 0.0000000000 -0.0133086231 -0.0709565009 -276.9950738976 0.0000000000 0.0000000000
0.6630865453 -0.3504514708 0.0000000000 -0.0195416720 -0.0800255922 -279.3696915642 0.0000000000 0.0000000000
0.6757266511 -0.3254128039 0.0000000000 -0.0249742114 -0.0881285205 -282.2110331093 0.0000000000 0.0000000000
0.6874216921 -0.2999190178 0.0000000000 -0.0303872784 -0.0948256261 -285.4757170141 0.0000000000 0.0000000000
0.6981553116 -0.2740057679 0.0000000000 -0.0362778179 -0.0997767258 -289.1341935988 0.0000000000 0.0000000000
0.7079124979 -0.2477092961 0.0000000000 -0.0428804881 -0.1027518431 -293.1727170984 0.0000000000 0.0000000000
0.7166796045 -0.2210663804 0.0000000000 -0.0502136945 -0.1036278205 -297.5927853718 0.0000000000 0.0000000000
0.7244443698 -0.1941142835 0.0000000000 -0.0581339970 -0.1023760221 -302.4088069206 0.0000000000 0.0000000000
0.7311959342 -0.1668907001 0.0000000000 -0.0663881277 -0.0990460347 -307.6444437245 0.0000000000 0.0000000000
0.7369248550 -0.1394337050 0.0000000000 -0.0746572287 -0.0937490481 -313.3278871180 0.0000000000 0.0000000000
0.7416231197 -0.1117816993 0.0000000000 -0.0825918686 -0.0866431607 -319.4863106646 0.0000000000 0.0000000000
0.7452841575 -0.0839733567 0.0000000000 -0.0898385958 -0.0779216087 -326.1398367461 0.0000000000 0.0000000000
0.7479028479 -0.0560475699 0.0000000000 -0.0960596438 -0.0678040021 -333.2954660165 0.0000000000 0.0000000000
0.7494755286 -0.0280433954 0.0000000000 -0.1009474641 -0.0565301019 -340.9414972483 0.0000000000 0.0000000000
0.7500000000 0.0000000003 0.0000000000 -0.1042354501 -0.0443554251 -349.0429874007 0.0000000000 0.0000000000
0.7494755286 0.0280433960 0.0000000000 -0.1057057982 -0.0315479424 -357.5387636026 0.0000000000 0.0000000000
0.7479028479 0.0560475705 0.0000000000 -0.1051950517 -0.0183852546 -366.3404036999 0.0000000000 0.0000000000
0.7452841574 0.0839733573 0.0000000000 -0.1025975377 -0.0051518050 -375.3334577426 0.0000000000 0.0000000000
0.7416231196 0.1117816999 0.0000000000 -0.0978666466 0.0078641317 -384.3810005620 0.0000000000 0.0000000000
0.7369248549 0.1394337056 0.0000000000 -0.0910136972 0.0203738000 -393.3294005134 0.0000000000 0.0000000000
0.7311959341 0.1668907007 0.0000000000 -0.0821039884 0.0320916798 -402.0159800683 0.0000000000 0.0000000000
0.7244443697 0.1941142840 0.0000000000 -0.0712495217 0.0427395856 -410.2780516166 0.0000000000 0.0000000000
0.7166796043 0.2210663810 0.0000000000 -0.0585978006 0.0520512402 -417.9626587883 0.0000000000 0.0000000000
0.7079124977 0.2477092967 0.0000000000 -0.0443160523 0.0597775813 -424.9362601388 0.0000000000 0.0000000000
0.6981553114 0.2740057685 0.0000000000 -0.0285702009 0.0656932965 -431.0935719562 0.0000000000 0.0000000000
0.6874216918 0.2999190184 0.0000000000 -0.0114980433 0.0696053165 -436.3648439054 0.0000000000 0.0000000000
0.6757266509 0.3254128045 0.0000000000 0.0068234596 0.0713641239 -440.7209652031 0.0000000000 0.0000000000
0.6630865451 0.3504514714 0.0000000000 0.0264157325 0.0708785687 -444.1759656746 0.0000000000 0.0000000000
0.6495190528 0.3750000001 0.0000000000 0.0474377970 0.0681342130 -446.7866493447 0.0000000000 0.0000000000
0.6350431493 0.3990240575 0.0000000000 0.0702207312 0.0632139073 -448.6492439922 0.0000000000 0.0000000000
0.6196790807 0.4224900437 0.0000000000 0.0952872492 0.0563173781 -449.8930620006 0.0000000000 0.0000000000
0.6034483348 0.4453651393 0.0000000000 0.1233437267 0.0477745774 -450.6713068247 0.0000000000 0.0000000000
0.5863736118 0.4676173515 0.0000000000 0.1552331167 0.0380463942 -451.1494251935 0.0000000000 0.0000000000
0.5684787923 0.4892155585 0.0000000000 0.1918441780 0.0277073396 -451.4919152671 0.0000000000 0.0000000000
0.5497889038 0.5101295534 0.0000000000 0.2339841118 0.0174088388 -451.8444693837 0.0000000000 0.0000000000
0.5079611787 0.5517929331 0.0000000000 0.3429951379 -0.0011403891 -453.1816250586 0.0000000000 0.0000000000
0.4847244283 0.5723130512 0.0000000000 0.4112518526 -0.0076496281 -454.3418557922 0.0000000000 0.0000000000
0.4606595344 0.5918553821 0.0000000000 0.4860402662 -0.0111166406 -455.8616010579 0.0000000000 0.0000000000
0.4358076115 0.6103865380 0.0000000000 0.5658321793 -0.0111530367 -457.7244096191 0.0000000000 0.0000000000
0.4102111185 0.6278748587 0.0000000000 0.6486793304 -0.0075616366 -459.8743080685 0.0000000000 0.0000000000
0.3839137867 0.6442904658 0.0000000000 0.7324069316 -0.0003241262 -462.2217296141 0.0000000000 0.0000000000
0.3569605447 0.6596053135 0.0000000000 0.8148105309 0.0104195320 -464.6472331171 0.0000000000 0.0000000000
0.3293974415 0.6737932365 0.0000000000 0.8938324431 0.0243970405 -467.0056854503 0.0000000000 0.0000000000
0.3012715684 0.6868299950 0.0000000000 0.9677025235 0.0412349244 -469.1324804425 0.0000000000 0.0000000000
0.2726309778 0.6986933161 0.0000000000 1.0350339190 0.0604944602 -470.8517666401 0.0000000000 0.0000000000
0.2435246018 0.7093629313 0.0000000000 1.0948693062 0.0817094962 -471.9855261294 0.0000000000 0.0000000000
0.2140021681 0.7188206119 0.0000000000 1.1466791115 0.1044215549 -472.3618902444 0.0000000000 0.0000000000
0.1841141152 0.7270501995 0.0000000000 1.1903195598 0.1282077700 -471.8213574726 0.0000000000 0.0000000000
0.1539115065 0.7340376340 0.0000000000 1.2259631238 0.1526989403 -470.2202992962 0.0000000000 0.0000000000
0.1234459426 0.7397709776 0.0000000000 1.2540156381 0.1775872411 -467.4319062615 0.0000000000 0.0000000000
0.0927694733 0.7442404348 0.0000000000 1.2750330083 0.2026250121 -463.3452615805 0.0000000000 0.0000000000
0.0619345090 0.7474383698 0.0000000000 1.2896471113 0.2276171220 -457.8634380136 0.0000000000 0.0000000000
0.0309937305 0.7493593188 0.0000000000 1.2985064620 0.2524096825 -450.9014471998 0.0000000000 0.0000000000
-0.0000000002 0.7500000000 0.0000000000 1.3022335583 0.2768775792 -442.3846422484 0.0000000000 0.0000000000
-0.0309937308 0.7493593188 0.0000000000 1.3013980826 0.3009126705 -432.2478965658 0.0000000000 0.0000000000
-0.0619345093 0.7474383697 0.0000000000 1.2965034884 0.3244138194 -420.4356331781 0.0000000000 0.0000000000
-0.0927694736 0.7442404348 0.0000000000 1.2879837988 0.3472793071 -406.9025991405 0.0000000000 0.0000000000
-0.1234459429 0.7397709775 0.0000000000 1.2762074374 0.3694017186 -391.6151776138 0.0000000000 0.0000000000
-0.1539115068 0.7340376340 0.0000000000 1.2614853157 0.3906650884 -374.5529951176 0.0000000000 0.0000000000
-0.1841141155 0.7270501994 0.0000000000 1.2440809910 0.4109439374 -355.7105940111 0.0000000000 0.0000000000
-0.2140021684 0.7188206118 0.0000000000 1.2242213207 0.4301037813 -335.0989802794 0.0000000000 0.0000000000
-0.2435246021 0.7093629312 0.0000000000 1.2021065788 0.4480027013 -312.7469076285 0.0000000000 0.0000000000
-0.2726309781 0.6986933160 0.0000000000 1.1779194330 0.4644936236 -288.7018093181 0.0000000000 0.0000000000
-0.3012715687 0.6868299949 0.0000000000 1.1518324989 0.4794270135 -263.0303326440 0.0000000000 0.0000000000
-0.3293974418 0.6737932363 0.0000000000 1.1240143997 0.4926537612 -235.8184649278 0.0000000000 0.0000000000
-0.3569605450 0.6596053133 0.0000000000 1.0946343932 0.5040280883 -207.1712641799 0.0000000000 0.0000000000
-0.3839137870 0.6442904657 0.0000000000 1.0638657042 0.5134103587 -177.2122235312 0.0000000000 0.0000000000
-0.4102111188 0.6278748586 0.0000000000 1.0318877292 0.5206697093 -146.0823078272 0.0000000000 0.0000000000
-0.4358076117 0.6103865378 0.0000000000 0.9988872902 0.5256864496 -113.9387052023 0.0000000000 0.0000000000
-0.4606595347 0.5918553819 0.0000000000 0.9650591056 0.5283541984 -80.9533375028 0.0000000000 0.0000000000
-0.4847244286 0.5723130510 0.0000000000 0.9306056280 0.5285817399 -47.3111722914 0.0000000000 0.0000000000
-0.5079611789 0.5517929329 0.0000000000 0.8957363829 0.5262945931 -13.2083767136 0.0000000000 0.0000000000
-0.5517929332 0.5079611785 0.0000000000 0.8256174728 0.5139694132 55.5503288230 0.0000000000 0.0000000000
-0.5723130513 0.4847244282 0.0000000000 0.7908114007 0.5038762628 89.7760155935 0.0000000000 0.0000000000
-0.5918553822 0.4606595343 0.0000000000 0.7564734862 0.4911593960 123.6061365634 0.0000000000 0.0000000000
-0.6103865381 0.4358076114 0.0000000000 0.7228281323 0.4758418187 156.8193331799 0.0000000000 0.0000000000
-0.6278748588 0.4102111184 0.0000000000 0.6900975088 0.4579669829 189.1955845447 0.0000000000 0.0000000000
-0.6442904659 0.3839137866 0.0000000000 0.6584996830 0.4375985568 220.5182887803 0.0000000000 0.0000000000
-0.6596053135 0.3569605446 0.0000000000 0.6282467676 0.4148199899 250.5762832571 0.0000000000 0.0000000000
-0.6737932365 0.3293974414 0.0000000000 0.5995431121 0.3897338873 279.1657861101 0.0000000000 0.0000000000
-0.6868299951 0.3012715682 0.0000000000 0.5725835620 0.3624612077 306.0922438445 0.0000000000 0.0000000000
-0.6986933161 0.2726309777 0.0000000000 0.5475518067 0.3331402999 331.1720722520 0.0000000000 0.0000000000
-0.7093629314 0.2435246016 0.0000000000 0.5246188317 0.3019257882 354.2342800174 0.0000000000 0.0000000000
-0.7188206119 0.2140021679 0.0000000000 0.5039414901 0.2689873217 375.1219659208 0.0000000000 0.0000000000
-0.7270501995 0.1841141151 0.0000000000 0.4856612011 0.2345081959 393.6936814868 0.0000000000 0.0000000000
-0.7340376341 0.1539115064 0.0000000000 0.4699027846 0.1986838609 409.8246511774 0.0000000000 0.0000000000
-0.7397709776 0.1234459424 0.0000000000 0.4567734318 0.1617203278 423.4078423593 0.0000000000 0.0000000000
-0.7442404348 0.0927694732 0.0000000000 0.4463618166 0.1238324875 434.3548774366 0.0000000000 0.0000000000
-0.7474383698 0.0619345088 0.0000000000 0.4387373458 0.0852423605 442.5967808454 0.0000000000 0.0000000000
-0.7493593188 0.0309937304 0.0000000000 0.4339495543 0.0461772973 448.0845557935 0.0000000000 0.0000000000
-0.7500000000 -0.0000000003 0.0000000000 0.4320276567 0.0068681497 450.7895893978 0.0000000000 0.0000000000
-0.7493593188 -0.0309937310 0.0000000000 0.4329802751 -0.0324525702 450.7038912431 0.0000000000 0.0000000000
-0.7474383697 -0.0619345094 0.0000000000 0.4367953599 -0.0715525365 447.8401705008 0.0000000000 0.0000000000
-0.7442404348 -0.0927694738 0.0000000000 0.4434403090 -0.1102014578 442.2317531679 0.0000000000 0.0000000000
-0.7397709775 -0.1234459430 0.0000000000 0.4528622803 -0.1481729252 433.9323360222 0.0000000000 0.0000000000
-0.7340376339 -0.1539115070 0.0000000000 0.4649886784 -0.1852462501 423.0155687580 0.0000000000 0.0000000000
-0.7270501994 -0.1841141157 0.0000000000 0.4797277944 -0.2212082765 409.5744582972 0.0000000000 0.0000000000
-0.7188206117 -0.2140021685 0.0000000000 0.4969695846 -0.2558551455 393.7205944353 0.0000000000 0.0000000000