 TITLE = "Tecplot data"
 VARIABLES = "X", "Y", "Z" "U", "V", "p", "dispX", "dispY"
 ZONE SOLUTIONTIME=99.900000, NODES=26114 , ELEMENTS=25916, DATAPACKING=POINT, ZONETYPE=FEQUADRILATERAL
0.3535533906 0.3535533906 0.0000000000 0.0000000000 0.0000000000 -430.1498760657 0.0000000000 0.0000000000
0.3535533908 -0.3535533903 0.0000000000 0.0000000000 0.0000000000 -336.2993799592 0.0000000000 0.0000000000
-0.3535533907 0.3535533905 0.0000000000 0.0000000000 0.0000000000 -113.8020067536 0.0000000000 0.0000000000
-0.3535533904 -0.3535533908 0.0000000000 0.0000000000 0.0000000000 -111.9454501006 0.0000000000 0.0000000000
0.5303300858 0.5303300859 0.0000000000 0.2529697768 -0.0118980020 -418.0103534812 0.0000000000 0.0000000000
0.5303300863 -0.5303300855 0.0000000000 0.1733614385 -0.0368790529 -310.3357983197 0.0000000000 0.0000000000
-0.5303300861 0.5303300857 0.0000000000 0.8432145436 0.5080595639 42.4647337272 0.0000000000 0.0000000000
-0.5303300856 -0.5303300862 0.0000000000 0.8557448939 -0.5271756819 52.3632310992 0.0000000000 0.0000000000
1.0606601717 1.0606601719 0.0000000000 1.1540587207 -0.0195621631 -202.1449660277 0.0000000000 0.0000000000
1.0606601725 -1.0606601710 0.0000000000 1.3152607993 0.0056328270 -277.4928581985 0.0000000000 0.0000000000
-1.0606601721 1.0606601715 0.0000000000 0.9379484661 0.1737768618 75.5561376727 0.0000000000 0.0000000000
-1.0606601712 -1.0606601723 0.0000000000 0.9480514605 -0.1848401539 85.7458181302 0.0000000000 0.0000000000
4.2000000000 3.3000000000 0.0000000000 1.0351943331 -0.0437877309 -6.4669517984 0.0000000000 0.0000000000
4.2000000000 -3.3000000000 0.0000000000 1.0413795669 -0.0080412298 5.3386161958 0.0000000000 0.0000000000
20.0000000000 4.7000000000 0.0000000000 1.0420521606 0.0129739371 -0.1139396655 0.0000000000 0.0000000000
20.0000000000 -4.7000000000 0.0000000000 1.0296871927 -0.0272635515 0.4574707093 0.0000000000 0.0000000000
-10.0000000000 15.0000000000 0.0000000000 1.0000000000 0.0000000000 20.4475931016 0.0000000000 0.0000000000
20.0000000000 15.0000000000 0.0000000000 1.0221993148 0.0000000000 0.0255846518 0.0000000000 0.0000000000
20.0000000000 -15.0000000000 0.0000000000 1.0222104634 0.0000000000 0.0239790468 0.0000000000 0.0000000000
-10.0000000000 -15.0000000000 0.0000000000 1.0000000000 0.0000000000 22.1297867391 0.0000000000 0.0000000000
0.3665259362 -0.3400863686 0.0000000000 0.0000000000 0.0000000000 -333.1757133197 0.0000000000 0.0000000000
0.3789858618 -0.3261437054 0.0000000000 0.0000000000 0.0000000000 -330.9742127522 0.0000000000 0.0000000000
0.3909157414 -0.3117449007 0.0000000000 0.0000000000 0.0000000000 -329.4382108006 0.0000000000 0.0000000000
0.4022988901 -0.2969100925 0.0000000000 0.0000000000 0.0000000000 -328.5787907994 0.0000000000 0.0000000000
0.4131193873 -0.2816600288 0.0000000000 0.0000000000 0.0000000000 -328.2700341115 0.0000000000 0.0000000000
0.4233620998 -0.2660160380 0.0000000000 0.0000000000 0.0000000000 -328.4141204041 0.0000000000 0.0000000000
0.4330127020 -0.2499999997 0.0000000000 0.0000000000 0.0000000000 -328.8901406862 0.0000000000 0.0000000000
0.4420576969 -0.2336343139 0.0000000000 0.0000000000 0.0000000000 -329.5880431620 0.0000000000 0.0000000000
0.4504844341 -0.2169418693 0.0000000000 0.0000000000 0.0000000000 -330.4045847286 0.0000000000 0.0000000000
0.4582811280 -0.1999460119 0.0000000000 0.0000000000 0.0000000000 -331.2528371903 0.0000000000 0.0000000000
0.4654368744 -0.1826705119 0.0000000000 0.0000000000 0.0000000000 -332.0627792035 0.0000000000 0.0000000000
0.4719416652 -0.1651395307 0.0000000000 0.0000000000 0.0000000000 -332.7837394515 0.0000000000 0.0000000000
0.4777864030 -0.1473775870 0.0000000000 0.0000000000 0.0000000000 -333.3845744929 0.0000000000 0.0000000000
0.4829629132 -0.1294095223 0.0000000000 0.0000000000 0.0000000000 -333.8541354822 0.0000000000 0.0000000000
0.4874639561 -0.1112604667 0.0000000000 0.0000000000 0.0000000000 -334.2011205831 0.0000000000 0.0000000000
0.4912832367 -0.0929558033 0.0000000000 0.0000000000 0.0000000000 -334.4536951635 0.0000000000 0.0000000000
0.4944154131 -0.0745211329 0.0000000000 0.0000000000 0.0000000000 -334.6584116756 0.0000000000 0.0000000000
0.4968561050 -0.0559822378 0.0000000000 0.0000000000 0.0000000000 -334.8782889387 0.0000000000 0.0000000000
0.4986018986 -0.0373650466 0.0000000000 0.0000000000 0.0000000000 -335.1898138551 0.0000000000 0.0000000000
0.4996503524 -0.0186955969 0.0000000000 0.0000000000 0.0000000000 -335.6788467746 0.0000000000 0.0000000000
0.5000000000 0.0000000002 0.0000000000 0.0000000000 0.0000000000 -336.4355264251 0.0000000000 0.0000000000
0.4996503524 0.0186955973 0.0000000000 0.0000000000 0.0000000000 -337.5484523600 0.0000000000 0.0000000000
0.4986018986 0.0373650470 0.0000000000 0.0000000000 0.0000000000 -339.0985276388 0.0000000000 0.0000000000
0.4968561049 0.0559822382 0.0000000000 0.0000000000 0.0000000000 -341.1529576335 0.0000000000 0.0000000000
0.4944154131 0.0745211333 0.0000000000 0.0000000000 0.0000000000 -343.7598880905 0.0000000000 0.0000000000
0.4912832366 0.0929558037 0.0000000000 0.0000000000 0.0000000000 -346.9442255022 0.0000000000 0.0000000000
0.4874639561 0.1112604671 0.0000000000 0.0000000000 0.0000000000 -350.7049622241 0.0000000000 0.0000000000
0.4829629131 0.1294095227 0.0000000000 0.0000000000 0.0000000000 -355.0144793504 0.0000000000 0.0000000000
0.4777864029 0.1473775873 0.0000000000 0.0000000000 0.0000000000 -359.8196581947 0.0000000000 0.0000000000
0.4719416651 0.1651395311 0.0000000000 0.0000000000 0.0000000000 -365.0453470009 0.0000000000 0.0000000000
0.4654368743 0.1826705123 0.0000000000 0.0000000000 0.0000000000 -370.5989461977 0.0000000000 0.0000000000
0.4582811279 0.1999460123 0.0000000000 0.0000000000 0.0000000000 -376.3776150312 0.0000000000 0.0000000000
0.4504844339 0.2169418697 0.0000000000 0.0000000000 0.0000000000 -382.2742541671 0.0000000000 0.0000000000
0.4420576967 0.2336343142 0.0000000000 0.0000000000 0.0000000000 -388.1877252043 0.0000000000 0.0000000000
0.4330127018 0.2500000001 0.0000000000 0.0000000000 0.0000000000 -394.0258652548 0.0000000000 0.0000000000
0.4233620996 0.2660160383 0.0000000000 0.0000000000 0.0000000000 -399.7202822147 0.0000000000 0.0000000000
0.4131193871 0.2816600291 0.0000000000 0.0000000000 0.0000000000 -405.2169507130 0.0000000000 0.0000000000
0.4022988898 0.2969100929 0.0000000000 0.0000000000 0.0000000000 -410.5072359534 0.0000000000 0.0000000000
0.3909157412 0.3117449010 0.0000000000 0.0000000000 0.0000000000 -415.5774875422 0.0000000000 0.0000000000
0.3789858615 0.3261437057 0.0000000000 0.0000000000 0.0000000000 -420.5102499601 0.0000000000 0.0000000000
0.3665259359 0.3400863689 0.0000000000 0.0000000000 0.0000000000 -425.2690877070 0.0000000000 0.0000000000
0.3386407858 0.3678619554 0.0000000000 0.0000000000 0.0000000000 -435.4773580638 0.0000000000 0.0000000000
0.3231496189 0.3815420341 0.0000000000 0.0000000000 0.0000000000 -441.1782472896 0.0000000000 0.0000000000
0.3071063563 0.3945702547 0.0000000000 0.0000000000 0.0000000000 -447.1873776337 0.0000000000 0.0000000000
0.2905384077 0.4069243587 0.0000000000 0.0000000000 0.0000000000 -453.7190690265 0.0000000000 0.0000000000
0.2734740790 0.4185832392 0.0000000000 0.0000000000 0.0000000000 -460.8251116447 0.0000000000 0.0000000000
0.2559425245 0.4295269772 0.0000000000 0.0000000000 0.0000000000 -468.5851810251 0.0000000000 0.0000000000
0.2379736965 0.4397368756 0.0000000000 0.0000000000 0.0000000000 -477.0123878161 0.0000000000 0.0000000000
0.2195982944 0.4491954910 0.0000000000 0.0000000000 0.0000000000 -486.1002529177 0.0000000000 0.0000000000
0.2008477123 0.4578866634 0.0000000000 0.0000000000 0.0000000000 -495.8000693055 0.0000000000 0.0000000000
0.1817539852 0.4657955441 0.0000000000 0.0000000000 0.0000000000 -506.0347891280 0.0000000000 0.0000000000
0.1623497345 0.4729086209 0.0000000000 0.0000000000 0.0000000000 -516.6917847352 0.0000000000 0.0000000000
0.1426681120 0.4792137413 0.0000000000 0.0000000000 0.0000000000 -527.6255837714 0.0000000000 0.0000000000
0.1227427435 0.4847001330 0.0000000000 0.0000000000 0.0000000000 -538.6543931962 0.0000000000 0.0000000000
0.1026076710 0.4893584227 0.0000000000 0.0000000000 0.0000000000 -549.5606870721 0.0000000000 0.0000000000
0.0822972951 0.4931806517 0.0000000000 0.0000000000 0.0000000000 -560.0914035949 0.0000000000 0.0000000000
0.0618463155 0.4961602899 0.0000000000 0.0000000000 0.0000000000 -569.9610374686 0.0000000000 0.0000000000
0.0412896726 0.4982922465 0.0000000000 0.0000000000 0.0000000000 -578.8561476892 0.0000000000 0.0000000000
0.0206624870 0.4995728792 0.0000000000 0.0000000000 0.0000000000 -586.4420227591 0.0000000000 0.0000000000
-0.0000000001 0.5000000000 0.0000000000 0.0000000000 0.0000000000 -592.3707313377 0.0000000000 0.0000000000
-0.0206624872 0.4995728792 0.0000000000 0.0000000000 0.0000000000 -596.2904162033 0.0000000000 0.0000000000
-0.0412896728 0.4982922465 0.0000000000 0.0000000000 0.0000000000 -597.8552210948 0.0000000000 0.0000000000
-0.0618463157 0.4961602899 0.0000000000 0.0000000000 0.0000000000 -596.7354272842 0.0000000000 0.0000000000
-0.0822972953 0.4931806517 0.0000000000 0.0000000000 0.0000000000 -592.6272696830 0.0000000000 0.0000000000
-0.1026076712 0.4893584226 0.0000000000 0.0000000000 0.0000000000 -585.2620096921 0.0000000000 0.0000000000
-0.1227427437 0.4847001329 0.0000000000 0.0000000000 0.0000000000 -574.4138855785 0.0000000000 0.0000000000
-0.1426681122 0.4792137412 0.0000000000 0.0000000000 0.0000000000 -559.9066748159 0.0000000000 0.0000000000
-0.1623497347 0.4729086208 0.0000000000 0.0000000000 0.0000000000 -541.6186995389 0.0000000000 0.0000000000
-0.1817539854 0.4657955440 0.0000000000 0.0000000000 0.0000000000 -519.4862140405 0.0000000000 0.0000000000
-0.2008477124 0.4578866633 0.0000000000 0.0000000000 0.0000000000 -493.5052024908 0.0000000000 0.0000000000
-0.2195982945 0.4491954909 0.0000000000 0.0000000000 0.0000000000 -463.7316892160 0.0000000000 0.0000000000
-0.2379736966 0.4397368755 0.0000000000 0.0000000000 0.0000000000 -430.2807134177 0.0000000000 0.0000000000
-0.2559425247 0.4295269771 0.0000000000 0.0000000000 0.0000000000 -393.3241462844 0.0000000000 0.0000000000
-0.2734740792 0.4185832391 0.0000000000 0.0000000000 0.0000000000 -353.0875310084 0.0000000000 0.0000000000
-0.2905384078 0.4069243586 0.0000000000 0.0000000000 0.0000000000 -309.8461108494 0.0000000000 0.0000000000
-0.3071063565 0.3945702546 0.0000000000 0.0000000000 0.0000000000 -263.9201852429 0.0000000000 0.0000000000
-0.3231496190 0.3815420340 0.0000000000 0.0000000000 0.0000000000 -215.6699107389 0.0000000000 0.0000000000
-0.3386407859 0.3678619552 0.0000000000 0.0000000000 0.0000000000 -165.4896532907 0.0000000000 0.0000000000
-0.3678619554 0.3386407857 0.0000000000 0.0000000000 0.0000000000 -61.0516149944 0.0000000000 0.0000000000
-0.3815420342 0.3231496188 0.0000000000 0.0000000000 0.0000000000 -7.6989571973 0.0000000000 0.0000000000
-0.3945702548 0.3071063562 0.0000000000 0.0000000000 0.0000000000 45.7857398302 0.0000000000 0.0000000000
-0.4069243587 0.2905384076 0.0000000000 0.0000000000 0.0000000000 98.9283226534 0.0000000000 0.0000000000
-0.4185832392 0.2734740789 0.0000000000 0.0000000000 0.0000000000 151.2561744153 0.0000000000 0.0000000000
-0.4295269773 0.2559425244 0.0000000000 0.0000000000 0.0000000000 202.3032861362 0.0000000000 0.0000000000
-0.4397368757 0.2379736964 0.0000000000 0.0000000000 0.0000000000 251.6149487700 0.0000000000 0.0000000000
-0.4491954910 0.2195982943 0.0000000000 0.0000000000 0.0000000000 298.7521037174 0.0000000000 0.0000000000
-0.4578866634 0.2008477122 0.0000000000 0.0000000000 0.0000000000 343.2953921983 0.0000000000 0.0000000000
-0.4657955441 0.1817539851 0.0000000000 0.0000000000 0.0000000000 384.8489317146 0.0000000000 0.0000000000
-0.4729086209 0.1623497344 0.0000000000 0.0000000000 0.0000000000 423.0438303620 0.0000000000 0.0000000000
-0.4792137413 0.1426681119 0.0000000000 0.0000000000 0.0000000000 457.5414343615 0.0000000000 0.0000000000
-0.4847001330 0.1227427434 0.0000000000 0.0000000000 0.0000000000 488.0362943017 0.0000000000 0.0000000000
-0.4893584227 0.1026076709 0.0000000000 0.0000000000 0.0000000000 514.2588314411 0.0000000000 0.0000000000
-0.4931806517 0.0822972949 0.0000000000 0.0000000000 0.0000000000 535.9776855946 0.0000000000 0.0000000000
-0.4961602899 0.0618463154 0.0000000000 0.0000000000 0.0000000000 553.0017287312 0.0000000000 0.0000000000
-0.4982922465 0.0412896725 0.0000000000 0.0000000000 0.0000000000 565.1817319686 0.0000000000 0.0000000000
-0.4995728792 0.0206624869 0.0000000000 0.0000000000 0.0000000000 572.4116771402 0.0000000000 0.0000000000
-0.5000000000 -0.0000000002 0.0000000000 0.0000000000 0.0000000000 574.6297070836 0.0000000000 0.0000000000
-0.4995728792 -0.0206624873 0.0000000000 0.0000000000 0.0000000000 571.8187110549 0.0000000000 0.0000000000
-0.4982922465 -0.0412896729 0.0000000000 0.0000000000 0.0000000000 564.0065432844 0.0000000000 0.0000000000
-0.4961602898 -0.0618463158 0.0000000000 0.0000000000 0.0000000000 551.2658737803 0.0000000000 0.0000000000
-0.4931806517 -0.0822972954 0.0000000000 0.0000000000 0.0000000000 533.7136712509 0.0000000000 0.0000000000
-0.4893584226 -0.1026076713 0.0000000000 0.0000000000 0.0000000000 511.5103186262 0.0000000000 0.0000000000
-0.4847001329 -0.1227427438 0.0000000000 0.0000000000 0.0000000000 484.8583622418 0.0000000000 0.0000000000
-0.4792137412 -0.1426681123 0.0000000000 0.0000000000 0.0000000000 454.0008963878 0.0000000000 0.0000000000
-0.4729086208 -0.1623497348 0.0000000000 0.0000000000 0.0000000000 419.2195856193 0.0000000000 0.0000000000
-0.4657955439 -0.1817539855 0.0000000000 0.0000000000 0.0000000000 380.8323279545 0.0000000000 0.0000000000
-0.4578866632 -0.2008477125 0.0000000000 0.0000000000 0.0000000000 339.1905627916 0.0000000000 0.0000000000
-0.4491954908 -0.2195982946 0.0000000000 0.0000000000 0.0000000000 294.6762280413 0.0000000000 0.0000000000
-0.4397368755 -0.2379736967 0.0000000000 0.0000000000 0.0000000000 247.6983716100 0.0000000000 0.0000000000
-0.4295269771 -0.2559425248 0.0000000000 0.0000000000 0.0000000000 198.6894230561 0.0000000000 0.0000000000
-0.4185832390 -0.2734740793 0.0000000000 0.0000000000 0.0000000000 148.1011321449 0.0000000000 0.0000000000
-0.4069243585 -0.2905384079 0.0000000000 0.0000000000 0.0000000000 96.4001823348 0.0000000000 0.0000000000
-0.3945702545 -0.3071063565 0.0000000000 0.0000000000 0.0000000000 44.0634892540 0.0000000000 0.0000000000
-0.3815420339 -0.3231496191 0.0000000000 0.0000000000 0.0000000000 -8.4268027503 0.0000000000 0.0000000000
-0.3678619552 -0.3386407860 0.0000000000 0.0000000000 0.0000000000 -60.5886084399 0.0000000000 0.0000000000
-0.3386407856 -0.3678619555 0.0000000000 0.0000000000 0.0000000000 -162.0322342060 0.0000000000 0.0000000000
-0.3231496187 -0.3815420343 0.0000000000 0.0000000000 0.0000000000 -210.4012128081 0.0000000000 0.0000000000
-0.3071063561 -0.3945702549 0.0000000000 0.0000000000 0.0000000000 -256.6280718734 0.0000000000 0.0000000000
-0.2905384075 -0.4069243588 0.0000000000 0.0000000000 0.0000000000 -300.3180712611 0.0000000000 0.0000000000
-0.2734740788 -0.4185832393 0.0000000000 0.0000000000 0.0000000000 -341.1121402585 0.0000000000 0.0000000000
-0.2559425243 -0.4295269773 0.0000000000 0.0000000000 0.0000000000 -378.6928089082 0.0000000000 0.0000000000
-0.2379736963 -0.4397368757 0.0000000000 0.0000000000 0.0000000000 -412.7898296931 0.0000000000 0.0000000000
-0.2195982942 -0.4491954911 0.0000000000 0.0000000000 0.0000000000 -443.1853180033 0.0000000000 0.0000000000
-0.2008477121 -0.4578866634 0.0000000000 0.0000000000 0.0000000000 -469.7182155067 0.0000000000 0.0000000000
-0.1817539850 -0.4657955441 0.0000000000 0.0000000000 0.0000000000 -492.2878611872 0.0000000000 0.0000000000
-0.1623497343 -0.4729086209 0.0000000000 0.0000000000 0.0000000000 -510.8564442100 0.0000000000 0.0000000000
-0.1426681118 -0.4792137413 0.0000000000 0.0000000000 0.0000000000 -525.4501152881 0.0000000000 0.0000000000
-0.1227427433 -0.4847001330 0.0000000000 0.0000000000 0.0000000000 -536.1585530345 0.0000000000 0.0000000000
-0.1026076708 -0.4893584227 0.0000000000 0.0000000000 0.0000000000 -543.1328227759 0.0000000000 0.0000000000
-0.0822972948 -0.4931806518 0.0000000000 0.0000000000 0.0000000000 -546.5814290980 0.0000000000 0.0000000000
-0.0618463153 -0.4961602899 0.0000000000 0.0000000000 0.0000000000 -546.7645504479 0.0000000000 0.0000000000
-0.0412896724 -0.4982922465 0.0000000000 0.0000000000 0.0000000000 -543.9865492100 0.0000000000 0.0000000000
-0.0206624868 -0.4995728792 0.0000000000 0.0000000000 0.0000000000 -538.5869693512 0.0000000000 0.0000000000
0.0000000003 -0.5000000000 0.0000000000 0.0000000000 0.0000000000 -530.9303495209 0.0000000000 0.0000000000
0.0206624874 -0.4995728792 0.0000000000 0.0000000000 0.0000000000 -521.3952892254 0.0000000000 0.0000000000
0.0412896730 -0.4982922465 0.0000000000 0.0000000000 0.0000000000 -510.3632741069 0.0000000000 0.0000000000
0.0618463159 -0.4961602898 0.0000000000 0.0000000000 0.0000000000 -498.2078182485 0.0000000000 0.0000000000
0.0822972955 -0.4931806516 0.0000000000 0.0000000000 0.0000000000 -485.2844298907 0.0000000000 0.0000000000
0.1026076714 -0.4893584226 0.0000000000 0.0000000000 0.0000000000 -471.9218986615 0.0000000000 0.0000000000
0.1227427439 -0.4847001329 0.0000000000 0.0000000000 0.0000000000 -458.4151545268 0.0000000000 0.0000000000
0.1426681124 -0.4792137411 0.0000000000 0.0000000000 0.0000000000 -445.0200813421 0.0000000000 0.0000000000
0.1623497349 -0.4729086207 0.0000000000 0.0000000000 0.0000000000 -431.9500542475 0.0000000000 0.0000000000
0.1817539856 -0.4657955439 0.0000000000 0.0000000000 0.0000000000 -419.3750459015 0.0000000000 0.0000000000
0.2008477126 -0.4578866632 0.0000000000 0.0000000000 0.0000000000 -407.4220442622 0.0000000000 0.0000000000
0.2195982947 -0.4491954908 0.0000000000 0.0000000000 0.0000000000 -396.1801908168 0.0000000000 0.0000000000
0.2379736968 -0.4397368754 0.0000000000 0.0000000000 0.0000000000 -385.7044602680 0.0000000000 0.0000000000
0.2559425248 -0.4295269770 0.0000000000 0.0000000000 0.0000000000 -376.0313224012 0.0000000000 0.0000000000
0.2734740794 -0.4185832389 0.0000000000 0.0000000000 0.0000000000 -367.1763500078 0.0000000000 0.0000000000
0.2905384080 -0.4069243584 0.0000000000 0.0000000000 0.0000000000 -359.1739562073 0.0000000000 0.0000000000
0.3071063566 -0.3945702545 0.0000000000 0.0000000000 0.0000000000 -352.0211900807 0.0000000000 0.0000000000
0.3231496192 -0.3815420339 0.0000000000 0.0000000000 0.0000000000 -345.8196669421 0.0000000000 0.0000000000
0.3386407861 -0.3678619551 0.0000000000 0.0000000000 0.0000000000 -340.4516753466 0.0000000000 0.0000000000
0.5497889042 -0.5101295529 0.0000000000 0.1292697493 -0.0458584355 -308.4575437340 0.0000000000 0.0000000000
0.5684787927 -0.4892155581 0.0000000000 0.0936040629 -0.0572252505 -307.1777392224 0.0000000000 0.0000000000
0.5863736122 -0.4676173510 0.0000000000 0.0660522660 -0.0708213187 -306.5739948840 0.0000000000 0.0000000000
0.6034483351 -0.4453651388 0.0000000000 0.0457951982 -0.0863313467 -306.6524734963 0.0000000000 0.0000000000
0.6196790810 -0.4224900431 0.0000000000 0.0316036396 -0.1032741847 -307.3781302919 0.0000000000 0.0000000000
0.6350431497 -0.3990240570 0.0000000000 0.0220040268 -0.1210382495 -308.6809748305 0.0000000000 0.0000000000
0.6495190531 -0.3749999996 0.0000000000 0.0154784015 -0.1389446748 -310.4667433518 0.0000000000 0.0000000000
0.6630865453 -0.3504514708 0.0000000000 0.0106454703 -0.1563177747 -312.6295474944 0.0000000000 0.0000000000
0.6757266511 -0.3254128039 0.0000000000 0.0063833425 -0.1725448525 -315.0622596071 0.0000000000 0.0000000000
0.6874216921 -0.2999190178 0.0000000000 0.0018813045 -0.1871155219 -317.6635178197 0.0000000000 0.0000000000
0.6981553116 -0.2740057679 0.0000000000 -0.0033679222 -0.1996394562 -320.3422848193 0.0000000000 0.0000000000
0.7079124979 -0.2477092961 0.0000000000 -0.0096122176 -0.2098469922 -323.0214188966 0.0000000000 0.0000000000
0.7166796045 -0.2210663804 0.0000000000 -0.0168978291 -0.2175786901 -325.6410657749 0.0000000000 0.0000000000
0.7244443698 -0.1941142835 0.0000000000 -0.0251256349 -0.2227692351 -328.1617934452 0.0000000000 0.0000000000
0.7311959342 -0.1668907001 0.0000000000 -0.0340986913 -0.2254295746 -330.5668881700 0.0000000000 0.0000000000
0.7369248550 -0.1394337050 0.0000000000 -0.0435593954 -0.2256298303 -332.8632012142 0.0000000000 0.0000000000
0.7416231197 -0.1117816993 0.0000000000 -0.0532172956 -0.2234844771 -335.0801852715 0.0000000000 0.0000000000
0.7452841575 -0.0839733567 0.0000000000 -0.0627693600 -0.2191404821 -337.2670711867 0.0000000000 0.0000000000
0.7479028479 -0.0560475699 0.0000000000 -0.0719143885 -0.2127684687 -339.4883910698 0.0000000000 0.0000000000
0.7494755286 -0.0280433954 0.0000000000 -0.0803628704 -0.2045565357 -341.8182222592 0.0000000000 0.0000000000
0.7500000000 0.0000000003 0.0000000000 -0.0878432495 -0.1947061365 -344.3336178849 0.0000000000 0.0000000000
0.7494755286 0.0280433960 0.0000000000 -0.0941053405 -0.1834294121 -347.1077221579 0.0000000000 0.0000000000
0.7479028479 0.0560475705 0.0000000000 -0.0989215768 -0.1709474903 -350.2030567207 0.0000000000 0.0000000000
0.7452841574 0.0839733573 0.0000000000 -0.1020868085 -0.1574894518 -353.6654206942 0.0000000000 0.0000000000
0.7416231196 0.1117816999 0.0000000000 -0.1034174571 -0.1432918000 -357.5187854103 0.0000000000 0.0000000000
0.7369248549 0.1394337056 0.0000000000 -0.1027508571 -0.1285983326 -361.7615021509 0.0000000000 0.0000000000
0.7311959341 0.1668907007 0.0000000000 -0.0999454817 -0.1136602457 -366.3640928307 0.0000000000 0.0000000000
0.7244443697 0.1941142840 0.0000000000 -0.0948823804 -0.0987361589 -371.2688644734 0.0000000000 0.0000000000
0.7166796043 0.2210663810 0.0000000000 -0.0874675473 -0.0840915737 -376.3915646962 0.0000000000 0.0000000000
0.7079124977 0.2477092967 0.0000000000 -0.0776342003 -0.0699971497 -381.6252439660 0.0000000000 0.0000000000
0.6981553114 0.2740057685 0.0000000000 -0.0653432551 -0.0567251351 -386.8463695637 0.0000000000 0.0000000000
0.6874216918 0.2999190184 0.0000000000 -0.0505798694 -0.0445433475 -391.9230197396 0.0000000000 0.0000000000
0.6757266509 0.3254128045 0.0000000000 -0.0333440073 -0.0337062103 -396.7246867925 0.0000000000 0.0000000000
0.6630865451 0.3504514714 0.0000000000 -0.0136336742 -0.0244424982 -401.1328929808 0.0000000000 0.0000000000
0.6495190528 0.3750000001 0.0000000000 0.0085791441 -0.0169396397 -405.0515580939 0.0000000000 0.0000000000
0.6350431493 0.3990240575 0.0000000000 0.0333777470 -0.0113247823 -408.4159261897 0.0000000000 0.0000000000
0.6196790807 0.4224900437 0.0000000000 0.0609304641 -0.0076435364 -411.1988948944 0.0000000000 0.0000000000
0.6034483348 0.4453651393 0.0000000000 0.0915133286 -0.0058385059 -413.4137908431 0.0000000000 0.0000000000
0.5863736118 0.4676173515 0.0000000000 0.1255159363 -0.0057313071 -415.1129632303 0.0000000000 0.0000000000
0.5684787923 0.4892155585 0.0000000000 0.1634207084 -0.0070131981 -416.3820289172 0.0000000000 0.0000000000
0.5497889038 0.5101295534 0.0000000000 0.2057483976 -0.0092495830 -417.3251064990 0.0000000000 0.0000000000
0.5079611787 0.5517929331 0.0000000000 0.3112833233 -0.0145774603 -418.8348824580 0.0000000000 0.0000000000
0.4847244283 0.5723130512 0.0000000000 0.3760685410 -0.0161695175 -419.5995680465 0.0000000000 0.0000000000
0.4606595344 0.5918553821 0.0000000000 0.4468654414 -0.0159118031 -420.4959813027 0.0000000000 0.0000000000
0.4358076115 0.6103865380 0.0000000000 0.5226792323 -0.0131876636 -421.5945166453 0.0000000000 0.0000000000
0.4102111185 0.6278748587 0.0000000000 0.6020154548 -0.0075716959 -422.9181092795 0.0000000000 0.0000000000
0.3839137867 0.6442904658 0.0000000000 0.6830133305 0.0011499340 -424.4442011461 0.0000000000 0.0000000000
0.3569605447 0.6596053135 0.0000000000 0.7636288143 0.0129872830 -426.1068078189 0.0000000000 0.0000000000
0.3293974415 0.6737932365 0.0000000000 0.8418291965 0.0277743907 -427.8004051757 0.0000000000 0.0000000000
0.3012715684 0.6868299950 0.0000000000 0.9157669653 0.0452087623 -429.3865310003 0.0000000000 0.0000000000
0.2726309778 0.6986933161 0.0000000000 0.9839115913 0.0648963310 -430.7030284001 0.0000000000 0.0000000000
0.2435246018 0.7093629313 0.0000000000 1.0451287208 0.0863967788 -431.5748886624 0.0000000000 0.0000000000
0.2140021681 0.7188206119 0.0000000000 1.0987057239 0.1092645853 -431.8250033106 0.0000000000 0.0000000000
0.1841141152 0.7270501995 0.0000000000 1.1443302619 0.1330818762 -431.2831741374 0.0000000000 0.0000000000
0.1539115065 0.7340376340 0.0000000000 1.1820339637 0.1574805893 -429.7923376559 0.0000000000 0.0000000000
0.1234459426 0.7397709776 0.0000000000 1.2121158031 0.1821534221 -427.2117816488 0.0000000000 0.0000000000
0.0927694733 0.7442404348 0.0000000000 1.2350592666 0.2068548400 -423.4178253506 0.0000000000 0.0000000000
0.0619345090 0.7474383698 0.0000000000 1.2514546108 0.2313946303 -418.3028214262 0.0000000000 0.0000000000
0.0309937305 0.7493593188 0.0000000000 1.2619335972 0.2556269215 -411.7734067099 0.0000000000 0.0000000000
-0.0000000002 0.7500000000 0.0000000000 1.2671201709 0.2794373775 -403.7487706765 0.0000000000 0.0000000000
-0.0309937308 0.7493593188 0.0000000000 1.2675973716 0.3027306877 -394.1594446207 0.0000000000 0.0000000000
-0.0619345093 0.7474383697 0.0000000000 1.2638886428 0.3254197500 -382.9468394304 0.0000000000 0.0000000000
-0.0927694736 0.7442404348 0.0000000000 1.2564506158 0.3474172645 -370.0635365900 0.0000000000 0.0000000000
-0.1234459429 0.7397709775 0.0000000000 1.2456741607 0.3686299280 -355.4741901382 0.0000000000 0.0000000000
-0.1539115068 0.7340376340 0.0000000000 1.2318907542 0.3889550617 -339.1568250859 0.0000000000 0.0000000000
-0.1841141155 0.7270501994 0.0000000000 1.2153817380 0.4082793049 -321.1043043537 0.0000000000 0.0000000000
-0.2140021684 0.7188206118 0.0000000000 1.1963886552 0.4264789336 -301.3257611372 0.0000000000 0.0000000000
-0.2435246021 0.7093629312 0.0000000000 1.1751234271 0.4434213645 -279.8478379027 0.0000000000 0.0000000000
-0.2726309781 0.6986933160 0.0000000000 1.1517776081 0.4589674545 -256.7156227733 0.0000000000 0.0000000000
-0.3012715687 0.6868299949 0.0000000000 1.1265303215 0.4729742756 -231.9932199242 0.0000000000 0.0000000000
-0.3293974418 0.6737932363 0.0000000000 1.0995547295 0.4852981142 -205.7639283057 0.0000000000 0.0000000000
-0.3569605450 0.6596053133 0.0000000000 1.0710230537 0.4957975084 -178.1300312605 0.0000000000 0.0000000000
-0.3839137870 0.6442904657 0.0000000000 1.0411102598 0.5043361938 -149.2122190105 0.0000000000 0.0000000000
-0.4102111188 0.6278748586 0.0000000000 1.0099965635 0.5107858646 -119.1486780566 0.0000000000 0.0000000000
-0.4358076117 0.6103865378 0.0000000000 0.9778689332 0.5150286958 -88.0938880106 0.0000000000 0.0000000000
-0.4606595347 0.5918553819 0.0000000000 0.9449217613 0.5169595902 -56.2171688350 0.0000000000 0.0000000000
-0.4847244286 0.5723130510 0.0000000000 0.9113568589 0.5164881332 -23.7010212551 0.0000000000 0.0000000000
-0.5079611789 0.5517929329 0.0000000000 0.8773829160 0.5135402497 9.2606988049 0.0000000000 0.0000000000
-0.5517929332 0.5079611785 0.0000000000 0.8090710004 0.5000084696 75.7004708362 0.0000000000 0.0000000000
-0.5723130513 0.4847244282 0.0000000000 0.7751746855 0.4893689194 108.7520505413 0.0000000000 0.0000000000
-0.5918553822 0.4606595343 0.0000000000 0.7417494673 0.4761429456 141.4005072909 0.0000000000 0.0000000000
-0.6103865381 0.4358076114 0.0000000000 0.7090189046 0.4603529259 173.4259171598 0.0000000000 0.0000000000
-0.6278748588 0.4102111184 0.0000000000 0.6772044070 0.4420416078 204.6095280131 0.0000000000 0.0000000000
-0.6442904659 0.3839137866 0.0000000000 0.6465233728 0.4212719076 234.7358500917 0.0000000000 0.0000000000
-0.6596053135 0.3569605446 0.0000000000 0.6171873389 0.3981264990 263.5946867718 0.0000000000 0.0000000000
-0.6737932365 0.3293974414 0.0000000000 0.5894001708 0.3727072067 290.9830873897 0.0000000000 0.0000000000
-0.6868299951 0.3012715682 0.0000000000 0.5633563174 0.3451342213 316.7072064647 0.0000000000 0.0000000000
-0.6986933161 0.2726309777 0.0000000000 0.5392391523 0.3155451484 340.5840561938 0.0000000000 0.0000000000
-0.7093629314 0.2435246016 0.0000000000 0.5172194191 0.2840939064 362.4431414032 0.0000000000 0.0000000000
-0.7188206119 0.2140021679 0.0000000000 0.4974537954 0.2509494847 382.1279677929 0.0000000000 0.0000000000
-0.7270501995 0.1841141151 0.0000000000 0.4800835848 0.2162945739 399.4974153471 0.0000000000 0.0000000000
-0.7340376341 0.1539115064 0.0000000000 0.4652335444 0.1803240810 414.4269690491 0.0000000000 0.0000000000
-0.7397709776 0.1234459424 0.0000000000 0.4530108515 0.1432435412 426.8097991902 0.0000000000 0.0000000000
-0.7442404348 0.0927694732 0.0000000000 0.4435042102 0.1052674405 436.5576837584 0.0000000000 0.0000000000
-0.7474383698 0.0619345088 0.0000000000 0.4367830981 0.0666174681 443.6017655943 0.0000000000 0.0000000000
-0.7493593188 0.0309937304 0.0000000000 0.4328971573 0.0275207162 447.8931389090 0.0000000000 0.0000000000
-0.7500000000 -0.0000000003 0.0000000000 0.4318757378 -0.0117921494 449.4032632118 0.0000000000 0.0000000000
-0.7493593188 -0.0309937310 0.0000000000 0.4337276138 -0.0510887325 448.1242093495 0.0000000000 0.0000000000
-0.7474383697 -0.0619345094 0.0000000000 0.4384408899 -0.0901367530 444.0687432189 0.0000000000 0.0000000000
-0.7442404348 -0.0927694738 0.0000000000 0.4459831057 -0.1287058944 437.2702496166 0.0000000000 0.0000000000
-0.7397709775 -0.1234459430 0.0000000000 0.4563015363 -0.1665696486 427.7824938695 0.0000000000 0.0000000000
-0.7340376339 -0.1539115070 0.0000000000 0.4693236709 -0.2035071513 415.6792132391 0.0000000000 0.0000000000
-0.7270501994 -0.1841141157 0.0000000000 0.4849578481 -0.2393049934 401.0535317827 0.0000000000 0.0000000000
-0.7188206117 -0.2140021685 0.0000000000 0.5030940334 -0.2737589863 384.0171971399 0.0000000000 0.0000000000