 TITLE = "Tecplot data"
 VARIABLES = "X", "Y", "Z" "U", "V", "p", "dispX", "dispY"
 ZONE SOLUTIONTIME=119.900000, NODES=26114 , ELEMENTS=25916, DATAPACKING=POINT, ZONETYPE=FEQUADRILATERAL
0.3535533906 0.3535533906 0.0000000000 0.0000000000 0.0000000000 -409.1370019066 0.0000000000 0.0000000000
0.3535533908 -0.3535533903 0.0000000000 0.0000000000 0.0000000000 -357.7882542710 0.0000000000 0.0000000000
-0.3535533907 0.3535533905 0.0000000000 0.0000000000 0.0000000000 -153.4342906775 0.0000000000 0.0000000000
-0.3535533904 -0.3535533908 0.0000000000 0.0000000000 0.0000000000 -73.9142712021 0.0000000000 0.0000000000
0.5303300858 0.5303300859 0.0000000000 0.2290932584 0.0381432632 -383.4584788917 0.0000000000 0.0000000000
0.5303300863 -0.5303300855 0.0000000000 0.1926110549 0.0223700978 -343.2773565724 0.0000000000 0.0000000000
-0.5303300861 0.5303300857 0.0000000000 0.8713976135 0.5361281093 23.1138674772 0.0000000000 0.0000000000
-0.5303300856 -0.5303300862 0.0000000000 0.8279381950 -0.4992051796 70.9873478426 0.0000000000 0.0000000000
1.0606601717 1.0606601719 0.0000000000 1.2964380830 -0.0786845591 -311.5529971270 0.0000000000 0.0000000000
1.0606601725 -1.0606601710 0.0000000000 1.1678505360 -0.0566074769 -163.9867567615 0.0000000000 0.0000000000
-1.0606601721 1.0606601715 0.0000000000 0.9542625345 0.1850227655 69.7984503068 0.0000000000 0.0000000000
-1.0606601712 -1.0606601723 0.0000000000 0.9320052502 -0.1735135297 91.4455338770 0.0000000000 0.0000000000
4.2000000000 3.3000000000 0.0000000000 1.0600258447 -0.0054167111 -0.5163241325 0.0000000000 0.0000000000
4.2000000000 -3.3000000000 0.0000000000 1.0174576728 0.0329171389 -1.7753299338 0.0000000000 0.0000000000
20.0000000000 4.7000000000 0.0000000000 1.0361000410 0.0297197616 0.5255783543 0.0000000000 0.0000000000
20.0000000000 -4.7000000000 0.0000000000 1.0332595748 -0.0090236589 -0.2708716692 0.0000000000 0.0000000000
-10.0000000000 15.0000000000 0.0000000000 1.0000000000 0.0000000000 18.8680631680 0.0000000000 0.0000000000
20.0000000000 15.0000000000 0.0000000000 1.0216317371 0.0000000000 0.0220023496 0.0000000000 0.0000000000
20.0000000000 -15.0000000000 0.0000000000 1.0216415008 0.0000000000 0.0236864578 0.0000000000 0.0000000000
-10.0000000000 -15.0000000000 0.0000000000 1.0000000000 0.0000000000 23.4175112184 0.0000000000 0.0000000000
0.3665259362 -0.3400863686 0.0000000000 0.0000000000 0.0000000000 -353.4901915346 0.0000000000 0.0000000000
0.3789858618 -0.3261437054 0.0000000000 0.0000000000 0.0000000000 -349.0891979356 0.0000000000 0.0000000000
0.3909157414 -0.3117449007 0.0000000000 0.0000000000 0.0000000000 -345.0161332731 0.0000000000 0.0000000000
0.4022988901 -0.2969100925 0.0000000000 0.0000000000 0.0000000000 -341.0946828292 0.0000000000 0.0000000000
0.4131193873 -0.2816600288 0.0000000000 0.0000000000 0.0000000000 -337.4984449123 0.0000000000 0.0000000000
0.4233620998 -0.2660160380 0.0000000000 0.0000000000 0.0000000000 -334.2417093919 0.0000000000 0.0000000000
0.4330127020 -0.2499999997 0.0000000000 0.0000000000 0.0000000000 -331.4277609493 0.0000000000 0.0000000000
0.4420576969 -0.2336343139 0.0000000000 0.0000000000 0.0000000000 -329.1213208894 0.0000000000 0.0000000000
0.4504844341 -0.2169418693 0.0000000000 0.0000000000 0.0000000000 -327.4008959746 0.0000000000 0.0000000000
0.4582811280 -0.1999460119 0.0000000000 0.0000000000 0.0000000000 -326.3265505866 0.0000000000 0.0000000000
0.4654368744 -0.1826705119 0.0000000000 0.0000000000 0.0000000000 -325.9486139024 0.0000000000 0.0000000000
0.4719416652 -0.1651395307 0.0000000000 0.0000000000 0.0000000000 -326.2984210441 0.0000000000 0.0000000000
0.4777864030 -0.1473775870 0.0000000000 0.0000000000 0.0000000000 -327.3889140916 0.0000000000 0.0000000000
0.4829629132 -0.1294095223 0.0000000000 0.0000000000 0.0000000000 -329.2118755474 0.0000000000 0.0000000000
0.4874639561 -0.1112604667 0.0000000000 0.0000000000 0.0000000000 -331.7380216066 0.0000000000 0.0000000000
0.4912832367 -0.0929558033 0.0000000000 0.0000000000 0.0000000000 -334.9169187976 0.0000000000 0.0000000000
0.4944154131 -0.0745211329 0.0000000000 0.0000000000 0.0000000000 -338.6781924815 0.0000000000 0.0000000000
0.4968561050 -0.0559822378 0.0000000000 0.0000000000 0.0000000000 -342.9333497992 0.0000000000 0.0000000000
0.4986018986 -0.0373650466 0.0000000000 0.0000000000 0.0000000000 -347.5785922801 0.0000000000 0.0000000000
0.4996503524 -0.0186955969 0.0000000000 0.0000000000 0.0000000000 -352.4984337832 0.0000000000 0.0000000000
0.5000000000 0.0000000002 0.0000000000 0.0000000000 0.0000000000 -357.5701176704 0.0000000000 0.0000000000
0.4996503524 0.0186955973 0.0000000000 0.0000000000 0.0000000000 -362.6686270802 0.0000000000 0.0000000000
0.4986018986 0.0373650470 0.0000000000 0.0000000000 0.0000000000 -367.6720168582 0.0000000000 0.0000000000
0.4968561049 0.0559822382 0.0000000000 0.0000000000 0.0000000000 -372.4667696210 0.0000000000 0.0000000000
0.4944154131 0.0745211333 0.0000000000 0.0000000000 0.0000000000 -376.9527173701 0.0000000000 0.0000000000
0.4912832366 0.0929558037 0.0000000000 0.0000000000 0.0000000000 -381.0473521771 0.0000000000 0.0000000000
0.4874639561 0.1112604671 0.0000000000 0.0000000000 0.0000000000 -384.6889218123 0.0000000000 0.0000000000
0.4829629131 0.1294095227 0.0000000000 0.0000000000 0.0000000000 -387.8387536223 0.0000000000 0.0000000000
0.4777864029 0.1473775873 0.0000000000 0.0000000000 0.0000000000 -390.4817015288 0.0000000000 0.0000000000
0.4719416651 0.1651395311 0.0000000000 0.0000000000 0.0000000000 -392.6268736389 0.0000000000 0.0000000000
0.4654368743 0.1826705123 0.0000000000 0.0000000000 0.0000000000 -394.3052898123 0.0000000000 0.0000000000
0.4582811279 0.1999460123 0.0000000000 0.0000000000 0.0000000000 -395.5713793045 0.0000000000 0.0000000000
0.4504844339 0.2169418697 0.0000000000 0.0000000000 0.0000000000 -396.4967869312 0.0000000000 0.0000000000
0.4420576967 0.2336343142 0.0000000000 0.0000000000 0.0000000000 -397.1778459703 0.0000000000 0.0000000000
0.4330127018 0.2500000001 0.0000000000 0.0000000000 0.0000000000 -397.7184988015 0.0000000000 0.0000000000
0.4233620996 0.2660160383 0.0000000000 0.0000000000 0.0000000000 -398.2562557326 0.0000000000 0.0000000000
0.4131193871 0.2816600291 0.0000000000 0.0000000000 0.0000000000 -398.9088616819 0.0000000000 0.0000000000
0.4022988898 0.2969100929 0.0000000000 0.0000000000 0.0000000000 -399.8585405656 0.0000000000 0.0000000000
0.3909157412 0.3117449010 0.0000000000 0.0000000000 0.0000000000 -401.1837605052 0.0000000000 0.0000000000
0.3789858615 0.3261437057 0.0000000000 0.0000000000 0.0000000000 -403.1412056059 0.0000000000 0.0000000000
0.3665259359 0.3400863689 0.0000000000 0.0000000000 0.0000000000 -405.6201952556 0.0000000000 0.0000000000
0.3386407858 0.3678619554 0.0000000000 0.0000000000 0.0000000000 -413.5985386500 0.0000000000 0.0000000000
0.3231496189 0.3815420341 0.0000000000 0.0000000000 0.0000000000 -419.4302545104 0.0000000000 0.0000000000
0.3071063563 0.3945702547 0.0000000000 0.0000000000 0.0000000000 -426.1143321952 0.0000000000 0.0000000000
0.2905384077 0.4069243587 0.0000000000 0.0000000000 0.0000000000 -433.9019841556 0.0000000000 0.0000000000
0.2734740790 0.4185832392 0.0000000000 0.0000000000 0.0000000000 -442.5977142649 0.0000000000 0.0000000000
0.2559425245 0.4295269772 0.0000000000 0.0000000000 0.0000000000 -452.2402827164 0.0000000000 0.0000000000
0.2379736965 0.4397368756 0.0000000000 0.0000000000 0.0000000000 -462.7341838216 0.0000000000 0.0000000000
0.2195982944 0.4491954910 0.0000000000 0.0000000000 0.0000000000 -474.0547511502 0.0000000000 0.0000000000
0.2008477123 0.4578866634 0.0000000000 0.0000000000 0.0000000000 -486.1236896959 0.0000000000 0.0000000000
0.1817539852 0.4657955441 0.0000000000 0.0000000000 0.0000000000 -498.8650697215 0.0000000000 0.0000000000
0.1623497345 0.4729086209 0.0000000000 0.0000000000 0.0000000000 -512.1592393079 0.0000000000 0.0000000000
0.1426681120 0.4792137413 0.0000000000 0.0000000000 0.0000000000 -525.8565750070 0.0000000000 0.0000000000
0.1227427435 0.4847001330 0.0000000000 0.0000000000 0.0000000000 -539.7619079743 0.0000000000 0.0000000000
0.1026076710 0.4893584227 0.0000000000 0.0000000000 0.0000000000 -553.6399552660 0.0000000000 0.0000000000
0.0822972951 0.4931806517 0.0000000000 0.0000000000 0.0000000000 -567.2133721168 0.0000000000 0.0000000000
0.0618463155 0.4961602899 0.0000000000 0.0000000000 0.0000000000 -580.1686867602 0.0000000000 0.0000000000
0.0412896726 0.4982922465 0.0000000000 0.0000000000 0.0000000000 -592.1612047464 0.0000000000 0.0000000000
0.0206624870 0.4995728792 0.0000000000 0.0000000000 0.0000000000 -602.8233773755 0.0000000000 0.0000000000
-0.0000000001 0.5000000000 0.0000000000 0.0000000000 0.0000000000 -611.7737260504 0.0000000000 0.0000000000
-0.0206624872 0.4995728792 0.0000000000 0.0000000000 0.0000000000 -618.6273385768 0.0000000000 0.0000000000
-0.0412896728 0.4982922465 0.0000000000 0.0000000000 0.0000000000 -623.0066902237 0.0000000000 0.0000000000
-0.0618463157 0.4961602899 0.0000000000 0.0000000000 0.0000000000 -624.5526715566 0.0000000000 0.0000000000
-0.0822972953 0.4931806517 0.0000000000 0.0000000000 0.0000000000 -622.9350834772 0.0000000000 0.0000000000
-0.1026076712 0.4893584226 0.0000000000 0.0000000000 0.0000000000 -617.8622466969 0.0000000000 0.0000000000
-0.1227427437 0.4847001329 0.0000000000 0.0000000000 0.0000000000 -609.0892871001 0.0000000000 0.0000000000
-0.1426681122 0.4792137412 0.0000000000 0.0000000000 0.0000000000 -596.4248605039 0.0000000000 0.0000000000
-0.1623497347 0.4729086208 0.0000000000 0.0000000000 0.0000000000 -579.7361508366 0.0000000000 0.0000000000
-0.1817539854 0.4657955440 0.0000000000 0.0000000000 0.0000000000 -558.9521119681 0.0000000000 0.0000000000
-0.2008477124 0.4578866633 0.0000000000 0.0000000000 0.0000000000 -534.0650079305 0.0000000000 0.0000000000
-0.2195982945 0.4491954909 0.0000000000 0.0000000000 0.0000000000 -505.1303870669 0.0000000000 0.0000000000
-0.2379736966 0.4397368755 0.0000000000 0.0000000000 0.0000000000 -472.2656715062 0.0000000000 0.0000000000
-0.2559425247 0.4295269771 0.0000000000 0.0000000000 0.0000000000 -435.6475672391 0.0000000000 0.0000000000
-0.2734740792 0.4185832391 0.0000000000 0.0000000000 0.0000000000 -395.5084972471 0.0000000000 0.0000000000
-0.2905384078 0.4069243586 0.0000000000 0.0000000000 0.0000000000 -352.1322395750 0.0000000000 0.0000000000
-0.3071063565 0.3945702546 0.0000000000 0.0000000000 0.0000000000 -305.8489214940 0.0000000000 0.0000000000
-0.3231496190 0.3815420340 0.0000000000 0.0000000000 0.0000000000 -257.0294928960 0.0000000000 0.0000000000
-0.3386407859 0.3678619552 0.0000000000 0.0000000000 0.0000000000 -206.0797880272 0.0000000000 0.0000000000
-0.3678619554 0.3386407857 0.0000000000 0.0000000000 0.0000000000 -99.5497394615 0.0000000000 0.0000000000
-0.3815420342 0.3231496188 0.0000000000 0.0000000000 0.0000000000 -44.8987318798 0.0000000000 0.0000000000
-0.3945702548 0.3071063562 0.0000000000 0.0000000000 0.0000000000 10.0365098661 0.0000000000 0.0000000000
-0.4069243587 0.2905384076 0.0000000000 0.0000000000 0.0000000000 64.7700727337 0.0000000000 0.0000000000
-0.4185832392 0.2734740789 0.0000000000 0.0000000000 0.0000000000 118.8178972732 0.0000000000 0.0000000000
-0.4295269773 0.2559425244 0.0000000000 0.0000000000 0.0000000000 171.7029016901 0.0000000000 0.0000000000
-0.4397368757 0.2379736964 0.0000000000 0.0000000000 0.0000000000 222.9597024249 0.0000000000 0.0000000000
-0.4491954910 0.2195982943 0.0000000000 0.0000000000 0.0000000000 272.1389737017 0.0000000000 0.0000000000
-0.4578866634 0.2008477122 0.0000000000 0.0000000000 0.0000000000 318.8114911098 0.0000000000 0.0000000000
-0.4657955441 0.1817539851 0.0000000000 0.0000000000 0.0000000000 362.5718915164 0.0000000000 0.0000000000
-0.4729086209 0.1623497344 0.0000000000 0.0000000000 0.0000000000 403.0421633147 0.0000000000 0.0000000000
-0.4792137413 0.1426681119 0.0000000000 0.0000000000 0.0000000000 439.8748647972 0.0000000000 0.0000000000
-0.4847001330 0.1227427434 0.0000000000 0.0000000000 0.0000000000 472.7560578766 0.0000000000 0.0000000000
-0.4893584227 0.1026076709 0.0000000000 0.0000000000 0.0000000000 501.4079397284 0.0000000000 0.0000000000
-0.4931806517 0.0822972949 0.0000000000 0.0000000000 0.0000000000 525.5911547578 0.0000000000 0.0000000000
-0.4961602899 0.0618463154 0.0000000000 0.0000000000 0.0000000000 545.1067716431 0.0000000000 0.0000000000
-0.4982922465 0.0412896725 0.0000000000 0.0000000000 0.0000000000 559.7979135673 0.0000000000 0.0000000000
-0.4995728792 0.0206624869 0.0000000000 0.0000000000 0.0000000000 569.5510330600 0.0000000000 0.0000000000
-0.5000000000 -0.0000000002 0.0000000000 0.0000000000 0.0000000000 574.2968256605 0.0000000000 0.0000000000
-0.4995728792 -0.0206624873 0.0000000000 0.0000000000 0.0000000000 574.0107787211 0.0000000000 0.0000000000
-0.4982922465 -0.0412896729 0.0000000000 0.0000000000 0.0000000000 568.7133531708 0.0000000000 0.0000000000
-0.4961602898 -0.0618463158 0.0000000000 0.0000000000 0.0000000000 558.4697971232 0.0000000000 0.0000000000
-0.4931806517 -0.0822972954 0.0000000000 0.0000000000 0.0000000000 543.3895910408 0.0000000000 0.0000000000
-0.4893584226 -0.1026076713 0.0000000000 0.0000000000 0.0000000000 523.6255249316 0.0000000000 0.0000000000
-0.4847001329 -0.1227427438 0.0000000000 0.0000000000 0.0000000000 499.3724088491 0.0000000000 0.0000000000
-0.4792137412 -0.1426681123 0.0000000000 0.0000000000 0.0000000000 470.8654188593 0.0000000000 0.0000000000
-0.4729086208 -0.1623497348 0.0000000000 0.0000000000 0.0000000000 438.3780815710 0.0000000000 0.0000000000
-0.4657955439 -0.1817539855 0.0000000000 0.0000000000 0.0000000000 402.2199012786 0.0000000000 0.0000000000
-0.4578866632 -0.2008477125 0.0000000000 0.0000000000 0.0000000000 362.7336346605 0.0000000000 0.0000000000
-0.4491954908 -0.2195982946 0.0000000000 0.0000000000 0.0000000000 320.2922188160 0.0000000000 0.0000000000
-0.4397368755 -0.2379736967 0.0000000000 0.0000000000 0.0000000000 275.2953592394 0.0000000000 0.0000000000
-0.4295269771 -0.2559425248 0.0000000000 0.0000000000 0.0000000000 228.1657852225 0.0000000000 0.0000000000
-0.4185832390 -0.2734740793 0.0000000000 0.0000000000 0.0000000000 179.3451813356 0.0000000000 0.0000000000
-0.4069243585 -0.2905384079 0.0000000000 0.0000000000 0.0000000000 129.2898052525 0.0000000000 0.0000000000
-0.3945702545 -0.3071063565 0.0000000000 0.0000000000 0.0000000000 78.4658045721 0.0000000000 0.0000000000
-0.3815420339 -0.3231496191 0.0000000000 0.0000000000 0.0000000000 27.3442487037 0.0000000000 0.0000000000
-0.3678619552 -0.3386407860 0.0000000000 0.0000000000 0.0000000000 -23.6041032634 0.0000000000 0.0000000000
-0.3386407856 -0.3678619555 0.0000000000 0.0000000000 0.0000000000 -123.1327228338 0.0000000000 0.0000000000
-0.3231496187 -0.3815420343 0.0000000000 0.0000000000 0.0000000000 -170.8231953600 0.0000000000 0.0000000000
-0.3071063561 -0.3945702549 0.0000000000 0.0000000000 0.0000000000 -216.5726083323 0.0000000000 0.0000000000
-0.2905384075 -0.4069243588 0.0000000000 0.0000000000 0.0000000000 -259.9969893495 0.0000000000 0.0000000000
-0.2734740788 -0.4185832393 0.0000000000 0.0000000000 0.0000000000 -300.7473145195 0.0000000000 0.0000000000
-0.2559425243 -0.4295269773 0.0000000000 0.0000000000 0.0000000000 -338.5151436656 0.0000000000 0.0000000000
-0.2379736963 -0.4397368757 0.0000000000 0.0000000000 0.0000000000 -373.0379070317 0.0000000000 0.0000000000
-0.2195982942 -0.4491954911 0.0000000000 0.0000000000 0.0000000000 -404.1036772844 0.0000000000 0.0000000000
-0.2008477121 -0.4578866634 0.0000000000 0.0000000000 0.0000000000 -431.5552402487 0.0000000000 0.0000000000
-0.1817539850 -0.4657955441 0.0000000000 0.0000000000 0.0000000000 -455.2932629724 0.0000000000 0.0000000000
-0.1623497343 -0.4729086209 0.0000000000 0.0000000000 0.0000000000 -475.2783520318 0.0000000000 0.0000000000
-0.1426681118 -0.4792137413 0.0000000000 0.0000000000 0.0000000000 -491.5318021775 0.0000000000 0.0000000000
-0.1227427433 -0.4847001330 0.0000000000 0.0000000000 0.0000000000 -504.1348594282 0.0000000000 0.0000000000
-0.1026076708 -0.4893584227 0.0000000000 0.0000000000 0.0000000000 -513.2263659472 0.0000000000 0.0000000000
-0.0822972948 -0.4931806518 0.0000000000 0.0000000000 0.0000000000 -518.9987186174 0.0000000000 0.0000000000
-0.0618463153 -0.4961602899 0.0000000000 0.0000000000 0.0000000000 -521.6921563843 0.0000000000 0.0000000000
-0.0412896724 -0.4982922465 0.0000000000 0.0000000000 0.0000000000 -521.5874921078 0.0000000000 0.0000000000
-0.0206624868 -0.4995728792 0.0000000000 0.0000000000 0.0000000000 -518.9975095510 0.0000000000 0.0000000000
0.0000000003 -0.5000000000 0.0000000000 0.0000000000 0.0000000000 -514.2573562197 0.0000000000 0.0000000000
0.0206624874 -0.4995728792 0.0000000000 0.0000000000 0.0000000000 -507.7143445933 0.0000000000 0.0000000000
0.0412896730 -0.4982922465 0.0000000000 0.0000000000 0.0000000000 -499.7176570334 0.0000000000 0.0000000000
0.0618463159 -0.4961602898 0.0000000000 0.0000000000 0.0000000000 -490.6084431718 0.0000000000 0.0000000000
0.0822972955 -0.4931806516 0.0000000000 0.0000000000 0.0000000000 -480.7108502512 0.0000000000 0.0000000000
0.1026076714 -0.4893584226 0.0000000000 0.0000000000 0.0000000000 -470.3243272387 0.0000000000 0.0000000000
0.1227427439 -0.4847001329 0.0000000000 0.0000000000 0.0000000000 -459.7176895744 0.0000000000 0.0000000000
0.1426681124 -0.4792137411 0.0000000000 0.0000000000 0.0000000000 -449.1247274671 0.0000000000 0.0000000000
0.1623497349 -0.4729086207 0.0000000000 0.0000000000 0.0000000000 -438.7419984555 0.0000000000 0.0000000000
0.1817539856 -0.4657955439 0.0000000000 0.0000000000 0.0000000000 -428.7270457457 0.0000000000 0.0000000000
0.2008477126 -0.4578866632 0.0000000000 0.0000000000 0.0000000000 -419.1996164997 0.0000000000 0.0000000000
0.2195982947 -0.4491954908 0.0000000000 0.0000000000 0.0000000000 -410.2392176555 0.0000000000 0.0000000000
0.2379736968 -0.4397368754 0.0000000000 0.0000000000 0.0000000000 -401.8919102822 0.0000000000 0.0000000000
0.2559425248 -0.4295269770 0.0000000000 0.0000000000 0.0000000000 -394.1592133543 0.0000000000 0.0000000000
0.2734740794 -0.4185832389 0.0000000000 0.0000000000 0.0000000000 -387.0277270476 0.0000000000 0.0000000000
0.2905384080 -0.4069243584 0.0000000000 0.0000000000 0.0000000000 -380.4180578964 0.0000000000 0.0000000000
0.3071063566 -0.3945702545 0.0000000000 0.0000000000 0.0000000000 -374.3110798691 0.0000000000 0.0000000000
0.3231496192 -0.3815420339 0.0000000000 0.0000000000 0.0000000000 -368.5138156343 0.0000000000 0.0000000000
0.3386407861 -0.3678619551 0.0000000000 0.0000000000 0.0000000000 -363.1573693165 0.0000000000 0.0000000000
0.5497889042 -0.5101295529 0.0000000000 0.1468913703 0.0257927573 -342.0208361736 0.0000000000 0.0000000000
0.5684787927 -0.4892155581 0.0000000000 0.1061100693 0.0298920274 -340.5895279663 0.0000000000 0.0000000000
0.5863736122 -0.4676173510 0.0000000000 0.0700929587 0.0349101542 -339.0477269878 0.0000000000 0.0000000000
0.6034483351 -0.4453651388 0.0000000000 0.0386262228 0.0409710397 -337.4350852897 0.0000000000 0.0000000000
0.6196790810 -0.4224900431 0.0000000000 0.0114772595 0.0481045459 -335.8239303899 0.0000000000 0.0000000000
0.6350431497 -0.3990240570 0.0000000000 -0.0116122059 0.0562716049 -334.3120121466 0.0000000000 0.0000000000
0.6495190531 -0.3749999996 0.0000000000 -0.0309369881 0.0653919016 -333.0110465276 0.0000000000 0.0000000000
0.6630865453 -0.3504514708 0.0000000000 -0.0468331518 0.0753683927 -332.0346011695 0.0000000000 0.0000000000
0.6757266511 -0.3254128039 0.0000000000 -0.0596709510 0.0861046666 -331.4872279295 0.0000000000 0.0000000000
0.6874216921 -0.2999190178 0.0000000000 -0.0698358637 0.0975133987 -331.4564202205 0.0000000000 0.0000000000
0.6981553116 -0.2740057679 0.0000000000 -0.0777020942 0.1095162484 -332.0078863669 0.0000000000 0.0000000000
0.7079124979 -0.2477092961 0.0000000000 -0.0836052171 0.1220372112 -333.1836613112 0.0000000000 0.0000000000
0.7166796045 -0.2210663804 0.0000000000 -0.0878204677 0.1349924267 -335.0019970735 0.0000000000 0.0000000000
0.7244443698 -0.1941142835 0.0000000000 -0.0905511212 0.1482796344 -337.4579068961 0.0000000000 0.0000000000
0.7311959342 -0.1668907001 0.0000000000 -0.0919284780 0.1617699266 -340.5235924813 0.0000000000 0.0000000000
0.7369248550 -0.1394337050 0.0000000000 -0.0920222318 0.1753034412 -344.1485293165 0.0000000000 0.0000000000
0.7416231197 -0.1117816993 0.0000000000 -0.0908581437 0.1886894913 -348.2594846852 0.0000000000 0.0000000000
0.7452841575 -0.0839733567 0.0000000000 -0.0884392121 0.2017106392 -352.7610406673 0.0000000000 0.0000000000
0.7479028479 -0.0560475699 0.0000000000 -0.0847667532 0.2141295802 -357.5372426989 0.0000000000 0.0000000000
0.7494755286 -0.0280433954 0.0000000000 -0.0798586419 0.2256974439 -362.4548325562 0.0000000000 0.0000000000
0.7500000000 0.0000000003 0.0000000000 -0.0737630295 0.2361622041 -367.3682384194 0.0000000000 0.0000000000
0.7494755286 0.0280433960 0.0000000000 -0.0665668519 0.2452762052 -372.1261771591 0.0000000000 0.0000000000
0.7479028479 0.0560475705 0.0000000000 -0.0583991992 0.2528022534 -376.5794499938 0.0000000000 0.0000000000
0.7452841574 0.0839733573 0.0000000000 -0.0494300692 0.2585181913 -380.5893265987 0.0000000000 0.0000000000
0.7416231196 0.1117816999 0.0000000000 -0.0398651627 0.2622203125 -384.0358266112 0.0000000000 0.0000000000
0.7369248549 0.1394337056 0.0000000000 -0.0299372584 0.2637263234 -386.8252088790 0.0000000000 0.0000000000
0.7311959341 0.1668907007 0.0000000000 -0.0198943657 0.2628787851 -388.8960436205 0.0000000000 0.0000000000
0.7244443697 0.1941142840 0.0000000000 -0.0099843523 0.2595500391 -390.2233493622 0.0000000000 0.0000000000
0.7166796043 0.2210663810 0.0000000000 -0.0004351180 0.2536495059 -390.8204182762 0.0000000000 0.0000000000
0.7079124977 0.2477092967 0.0000000000 0.0085712809 0.2451339503 -390.7381438765 0.0000000000 0.0000000000
0.6981553114 0.2740057685 0.0000000000 0.0169326484 0.2340208620 -390.0619285638 0.0000000000 0.0000000000
0.6874216918 0.2999190184 0.0000000000 0.0246706873 0.2204045200 -388.9065873272 0.0000000000 0.0000000000
0.6757266509 0.3254128045 0.0000000000 0.0319850465 0.2044735335 -387.4099997415 0.0000000000 0.0000000000
0.6630865451 0.3504514714 0.0000000000 0.0393126170 0.1865274637 -385.7263945720 0.0000000000 0.0000000000
0.6495190528 0.3750000001 0.0000000000 0.0473793682 0.1669883663 -384.0198228434 0.0000000000 0.0000000000
0.6350431493 0.3990240575 0.0000000000 0.0572230641 0.1464010651 -382.4575277959 0.0000000000 0.0000000000
0.6196790807 0.4224900437 0.0000000000 0.0701609265 0.1254150652 -381.2020112302 0.0000000000 0.0000000000
0.6034483348 0.4453651393 0.0000000000 0.0876838226 0.1047434187 -380.4005771741 0.0000000000 0.0000000000
0.5863736118 0.4676173515 0.0000000000 0.1112806434 0.0851009072 -380.1726886484 0.0000000000 0.0000000000
0.5684787923 0.4892155585 0.0000000000 0.1422261774 0.0671337787 -380.5981063396 0.0000000000 0.0000000000
0.5497889038 0.5101295534 0.0000000000 0.1813862029 0.0513607100 -381.7058563145 0.0000000000 0.0000000000
0.5079611787 0.5517929331 0.0000000000 0.2915411946 0.0267726803 -386.2202021198 0.0000000000 0.0000000000
0.4847244283 0.5723130512 0.0000000000 0.3631690296 0.0189819902 -389.5800668762 0.0000000000 0.0000000000
0.4606595344 0.5918553821 0.0000000000 0.4423619355 0.0148167994 -393.4881677571 0.0000000000 0.0000000000
0.4358076115 0.6103865380 0.0000000000 0.5271179052 0.0142897634 -397.8387978632 0.0000000000 0.0000000000
0.4102111185 0.6278748587 0.0000000000 0.6151922359 0.0173899989 -402.5230411569 0.0000000000 0.0000000000
0.3839137867 0.6442904658 0.0000000000 0.7042316160 0.0240571658 -407.4215448205 0.0000000000 0.0000000000
0.3569605447 0.6596053135 0.0000000000 0.7919045845 0.0341483594 -412.3977520690 0.0000000000 0.0000000000
0.3293974415 0.6737932365 0.0000000000 0.8760372139 0.0474185380 -417.2946041705 0.0000000000 0.0000000000
0.3012715684 0.6868299950 0.0000000000 0.9547437552 0.0635238899 -421.9365671474 0.0000000000 0.0000000000
0.2726309778 0.6986933161 0.0000000000 1.0265314188 0.0820462687 -426.1364182407 0.0000000000 0.0000000000
0.2435246018 0.7093629313 0.0000000000 1.0903605734 0.1025298127 -429.7046968434 0.0000000000 0.0000000000
0.2140021681 0.7188206119 0.0000000000 1.1456526133 0.1245193281 -432.4591699832 0.0000000000 0.0000000000
0.1841141152 0.7270501995 0.0000000000 1.1922502818 0.1475922695 -434.2321456751 0.0000000000 0.0000000000
0.1539115065 0.7340376340 0.0000000000 1.2303440329 0.1713798957 -434.8745649724 0.0000000000 0.0000000000
0.1234459426 0.7397709776 0.0000000000 1.2603812904 0.1955766993 -434.2569336783 0.0000000000 0.0000000000
0.0927694733 0.7442404348 0.0000000000 1.2829741155 0.2199396984 -432.2679212146 0.0000000000 0.0000000000
0.0619345090 0.7474383698 0.0000000000 1.2988167499 0.2442804649 -428.8117462691 0.0000000000 0.0000000000
0.0309937305 0.7493593188 0.0000000000 1.3086196524 0.2684530577 -423.8053835916 0.0000000000 0.0000000000
-0.0000000002 0.7500000000 0.0000000000 1.3130622893 0.2923406463 -417.1763328133 0.0000000000 0.0000000000
-0.0309937308 0.7493593188 0.0000000000 1.3127637353 0.3158428893 -408.8613410252 0.0000000000 0.0000000000
-0.0619345093 0.7474383697 0.0000000000 1.3082682364 0.3388653474 -398.8061653177 0.0000000000 0.0000000000
-0.0927694736 0.7442404348 0.0000000000 1.3000421079 0.3613115114 -386.9662457640 0.0000000000 0.0000000000
-0.1234459429 0.7397709775 0.0000000000 1.2884783547 0.3830775155 -373.3080403258 0.0000000000 0.0000000000
-0.1539115068 0.7340376340 0.0000000000 1.2739058963 0.4040492807 -357.8107350856 0.0000000000 0.0000000000
-0.1841141155 0.7270501994 0.0000000000 1.2566009616 0.4241016670 -340.4680611600 0.0000000000 0.0000000000
-0.2140021684 0.7188206118 0.0000000000 1.2367989241 0.4430991665 -321.2899988002 0.0000000000 0.0000000000
-0.2435246021 0.7093629312 0.0000000000 1.2147054604 0.4608976921 -300.3042097550 0.0000000000 0.0000000000
-0.2726309781 0.6986933160 0.0000000000 1.1905063978 0.4773470794 -277.5570977462 0.0000000000 0.0000000000
-0.3012715687 0.6868299949 0.0000000000 1.1643759637 0.4922939939 -253.1144467349 0.0000000000 0.0000000000
-0.3293974418 0.6737932363 0.0000000000 1.1364833822 0.5055850067 -227.0616249173 0.0000000000 0.0000000000
-0.3569605450 0.6596053133 0.0000000000 1.1069979042 0.5170696681 -199.5033693135 0.0000000000 0.0000000000
-0.3839137870 0.6442904657 0.0000000000 1.0760924322 0.5266034578 -170.5631830925 0.0000000000 0.0000000000
-0.4102111188 0.6278748586 0.0000000000 1.0439459312 0.5340505327 -140.3823875826 0.0000000000 0.0000000000
-0.4358076117 0.6103865378 0.0000000000 1.0107448237 0.5392862204 -109.1188753228 0.0000000000 0.0000000000
-0.4606595347 0.5918553819 0.0000000000 0.9766835504 0.5421992302 -76.9456112790 0.0000000000 0.0000000000
-0.4847244286 0.5723130510 0.0000000000 0.9419644637 0.5426935671 -44.0489277931 0.0000000000 0.0000000000
-0.5079611789 0.5517929329 0.0000000000 0.9067971944 0.5406901462 -10.6266559510 0.0000000000 0.0000000000
-0.5517929332 0.5079611785 0.0000000000 0.8359864880 0.5289658519 56.9578820546 0.0000000000 0.0000000000
-0.5723130513 0.4847244282 0.0000000000 0.8007879153 0.5191817713 90.6853426863 0.0000000000 0.0000000000
-0.5918553822 0.4606595343 0.0000000000 0.7660276015 0.5067747483 124.0730867714 0.0000000000 0.0000000000
-0.6103865381 0.4358076114 0.0000000000 0.7319310416 0.4917643761 156.8970033203 0.0000000000 0.0000000000
-0.6278748588 0.4102111184 0.0000000000 0.6987216464 0.4741909507 188.9341801331 0.0000000000 0.0000000000
-0.6442904659 0.3839137866 0.0000000000 0.6666188550 0.4541152386 219.9650072160 0.0000000000 0.0000000000
-0.6596053135 0.3569605446 0.0000000000 0.6358362646 0.4316180369 249.7752167120 0.0000000000 0.0000000000
-0.6737932365 0.3293974414 0.0000000000 0.6065798072 0.4067995418 278.1578418958 0.0000000000 0.0000000000
-0.6868299951 0.3012715682 0.0000000000 0.5790459952 0.3797785388 304.9150802286 0.0000000000 0.0000000000
-0.6986933161 0.2726309777 0.0000000000 0.5534202568 0.3506914303 329.8600478520 0.0000000000 0.0000000000
-0.7093629314 0.2435246016 0.0000000000 0.5298753779 0.3196911117 352.8184149431 0.0000000000 0.0000000000
-0.7188206119 0.2140021679 0.0000000000 0.5085700621 0.2869457096 373.6299127803 0.0000000000 0.0000000000
-0.7270501995 0.1841141151 0.0000000000 0.4896476186 0.2526371941 392.1497042786 0.0000000000 0.0000000000
-0.7340376341 0.1539115064 0.0000000000 0.4732347848 0.2169598766 408.2496100385 0.0000000000 0.0000000000
-0.7397709776 0.1234459424 0.0000000000 0.4594406847 0.1801188073 421.8191821724 0.0000000000 0.0000000000
-0.7442404348 0.0927694732 0.0000000000 0.4483559277 0.1423280885 432.7666184725 0.0000000000 0.0000000000
-0.7474383698 0.0619345088 0.0000000000 0.4400518481 0.1038091214 441.0195101958 0.0000000000 0.0000000000
-0.7493593188 0.0309937304 0.0000000000 0.4345798951 0.0647888061 446.5254194733 0.0000000000 0.0000000000
-0.7500000000 -0.0000000003 0.0000000000 0.4319711856 0.0254977168 449.2522864164 0.0000000000 0.0000000000
-0.7493593188 -0.0309937310 0.0000000000 0.4322362418 -0.0138317379 449.1886715458 0.0000000000 0.0000000000
-0.7474383697 -0.0619345094 0.0000000000 0.4353649247 -0.0529671608 446.3438378764 0.0000000000 0.0000000000
-0.7442404348 -0.0927694738 0.0000000000 0.4413265655 -0.0916780181 440.7476725860 0.0000000000 0.0000000000
-0.7397709775 -0.1234459430 0.0000000000 0.4500702841 -0.1297374911 432.4504432329 0.0000000000 0.0000000000
-0.7340376339 -0.1539115070 0.0000000000 0.4615254717 -0.1669243182 421.5223795376 0.0000000000 0.0000000000
-0.7270501994 -0.1841141157 0.0000000000 0.4756024206 -0.2030246087 408.0530758193 0.0000000000 0.0000000000
-0.7188206117 -0.2140021685 0.0000000000 0.4921930859 -0.2378336024 392.1507149969 0.0000000000 0.0000000000