 TITLE = "Tecplot data"
 VARIABLES = "X", "Y", "Z" "U", "V", "p", "dispX", "dispY"
 ZONE SOLUTIONTIME=69.900000, NODES=26114 , ELEMENTS=25916, DATAPACKING=POINT, ZONETYPE=FEQUADRILATERAL
0.3535533906 0.3535533906 0.0000000000 0.0000000000 0.0000000000 -374.0300914828 0.0000000000 0.0000000000
0.3535533908 -0.3535533903 0.0000000000 0.0000000000 0.0000000000 -310.4668798296 0.0000000000 0.0000000000
-0.3535533907 0.3535533905 0.0000000000 0.0000000000 0.0000000000 -93.8649671236 0.0000000000 0.0000000000
-0.3535533904 -0.3535533908 0.0000000000 0.0000000000 0.0000000000 -88.6542078099 0.0000000000 0.0000000000
0.5303300858 0.5303300859 0.0000000000 0.2086030605 0.0081104916 -361.4397244384 0.0000000000 0.0000000000
0.5303300863 -0.5303300855 0.0000000000 0.1514003374 -0.0356240954 -288.6402803993 0.0000000000 0.0000000000
-0.5303300861 0.5303300857 0.0000000000 0.8339901977 0.5089472698 58.1827930371 0.0000000000 0.0000000000
-0.5303300856 -0.5303300862 0.0000000000 0.8398218019 -0.5203288926 66.8829545131 0.0000000000 0.0000000000
1.0606601717 1.0606601719 0.0000000000 1.1706695116 0.0128373734 -209.7933944362 0.0000000000 0.0000000000
1.0606601725 -1.0606601710 0.0000000000 1.2819969234 -0.0489283511 -263.8695918623 0.0000000000 0.0000000000
-1.0606601721 1.0606601715 0.0000000000 0.9323710919 0.1794433552 87.1785945454 0.0000000000 0.0000000000
-1.0606601712 -1.0606601723 0.0000000000 0.9382107281 -0.1867101249 94.2577931717 0.0000000000 0.0000000000
4.2000000000 3.3000000000 0.0000000000 1.0490042652 -0.0405439652 -11.3769475331 0.0000000000 0.0000000000
4.2000000000 -3.3000000000 0.0000000000 1.0518194420 -0.0070707220 1.2341866397 0.0000000000 0.0000000000
20.0000000000 4.7000000000 0.0000000000 1.0833296194 0.0398611666 0.7815886849 0.0000000000 0.0000000000
20.0000000000 -4.7000000000 0.0000000000 1.0289551392 -0.0151709174 -0.1009015001 0.0000000000 0.0000000000
-10.0000000000 15.0000000000 0.0000000000 1.0000000000 0.0000000000 24.1629111401 0.0000000000 0.0000000000
20.0000000000 15.0000000000 0.0000000000 1.0264730785 0.0000000000 0.0072070742 0.0000000000 0.0000000000
20.0000000000 -15.0000000000 0.0000000000 1.0263152370 0.0000000000 0.0078938909 0.0000000000 0.0000000000
-10.0000000000 -15.0000000000 0.0000000000 1.0000000000 0.0000000000 24.6353728160 0.0000000000 0.0000000000
0.3665259362 -0.3400863686 0.0000000000 0.0000000000 0.0000000000 -307.4954350880 0.0000000000 0.0000000000
0.3789858618 -0.3261437054 0.0000000000 0.0000000000 0.0000000000 -305.2856710446 0.0000000000 0.0000000000
0.3909157414 -0.3117449007 0.0000000000 0.0000000000 0.0000000000 -303.5398855185 0.0000000000 0.0000000000
0.4022988901 -0.2969100925 0.0000000000 0.0000000000 0.0000000000 -302.2975740759 0.0000000000 0.0000000000
0.4131193873 -0.2816600288 0.0000000000 0.0000000000 0.0000000000 -301.4432091281 0.0000000000 0.0000000000
0.4233620998 -0.2660160380 0.0000000000 0.0000000000 0.0000000000 -300.9134111496 0.0000000000 0.0000000000
0.4330127020 -0.2499999997 0.0000000000 0.0000000000 0.0000000000 -300.6197800772 0.0000000000 0.0000000000
0.4420576969 -0.2336343139 0.0000000000 0.0000000000 0.0000000000 -300.4901251395 0.0000000000 0.0000000000
0.4504844341 -0.2169418693 0.0000000000 0.0000000000 0.0000000000 -300.4565535344 0.0000000000 0.0000000000
0.4582811280 -0.1999460119 0.0000000000 0.0000000000 0.0000000000 -300.4655020596 0.0000000000 0.0000000000
0.4654368744 -0.1826705119 0.0000000000 0.0000000000 0.0000000000 -300.4760801345 0.0000000000 0.0000000000
0.4719416652 -0.1651395307 0.0000000000 0.0000000000 0.0000000000 -300.4623459731 0.0000000000 0.0000000000
0.4777864030 -0.1473775870 0.0000000000 0.0000000000 0.0000000000 -300.4126316533 0.0000000000 0.0000000000
0.4829629132 -0.1294095223 0.0000000000 0.0000000000 0.0000000000 -300.3294261287 0.0000000000 0.0000000000
0.4874639561 -0.1112604667 0.0000000000 0.0000000000 0.0000000000 -300.2283376662 0.0000000000 0.0000000000
0.4912832367 -0.0929558033 0.0000000000 0.0000000000 0.0000000000 -300.1369052587 0.0000000000 0.0000000000
0.4944154131 -0.0745211329 0.0000000000 0.0000000000 0.0000000000 -300.0928768507 0.0000000000 0.0000000000
0.4968561050 -0.0559822378 0.0000000000 0.0000000000 0.0000000000 -300.1421063697 0.0000000000 0.0000000000
0.4986018986 -0.0373650466 0.0000000000 0.0000000000 0.0000000000 -300.3359883996 0.0000000000 0.0000000000
0.4996503524 -0.0186955969 0.0000000000 0.0000000000 0.0000000000 -300.7285298845 0.0000000000 0.0000000000
0.5000000000 0.0000000002 0.0000000000 0.0000000000 0.0000000000 -301.3731438716 0.0000000000 0.0000000000
0.4996503524 0.0186955973 0.0000000000 0.0000000000 0.0000000000 -302.3193438553 0.0000000000 0.0000000000
0.4986018986 0.0373650470 0.0000000000 0.0000000000 0.0000000000 -303.6095164096 0.0000000000 0.0000000000
0.4968561049 0.0559822382 0.0000000000 0.0000000000 0.0000000000 -305.2760173278 0.0000000000 0.0000000000
0.4944154131 0.0745211333 0.0000000000 0.0000000000 0.0000000000 -307.3387556082 0.0000000000 0.0000000000
0.4912832366 0.0929558037 0.0000000000 0.0000000000 0.0000000000 -309.8035505515 0.0000000000 0.0000000000
0.4874639561 0.1112604671 0.0000000000 0.0000000000 0.0000000000 -312.6612503507 0.0000000000 0.0000000000
0.4829629131 0.1294095227 0.0000000000 0.0000000000 0.0000000000 -315.8880189606 0.0000000000 0.0000000000
0.4777864029 0.1473775873 0.0000000000 0.0000000000 0.0000000000 -319.4462742090 0.0000000000 0.0000000000
0.4719416651 0.1651395311 0.0000000000 0.0000000000 0.0000000000 -323.2872520912 0.0000000000 0.0000000000
0.4654368743 0.1826705123 0.0000000000 0.0000000000 0.0000000000 -327.3532742822 0.0000000000 0.0000000000
0.4582811279 0.1999460123 0.0000000000 0.0000000000 0.0000000000 -331.5828330337 0.0000000000 0.0000000000
0.4504844339 0.2169418697 0.0000000000 0.0000000000 0.0000000000 -335.9123705203 0.0000000000 0.0000000000
0.4420576967 0.2336343142 0.0000000000 0.0000000000 0.0000000000 -340.2850801888 0.0000000000 0.0000000000
0.4330127018 0.2500000001 0.0000000000 0.0000000000 0.0000000000 -344.6474604986 0.0000000000 0.0000000000
0.4233620996 0.2660160383 0.0000000000 0.0000000000 0.0000000000 -348.9673669874 0.0000000000 0.0000000000
0.4131193871 0.2816600291 0.0000000000 0.0000000000 0.0000000000 -353.2121151280 0.0000000000 0.0000000000
0.4022988898 0.2969100929 0.0000000000 0.0000000000 0.0000000000 -357.3967409361 0.0000000000 0.0000000000
0.3909157412 0.3117449010 0.0000000000 0.0000000000 0.0000000000 -361.5010277232 0.0000000000 0.0000000000
0.3789858615 0.3261437057 0.0000000000 0.0000000000 0.0000000000 -365.6269307606 0.0000000000 0.0000000000
0.3665259359 0.3400863689 0.0000000000 0.0000000000 0.0000000000 -369.6900414696 0.0000000000 0.0000000000
0.3386407858 0.3678619554 0.0000000000 0.0000000000 0.0000000000 -378.8135074928 0.0000000000 0.0000000000
0.3231496189 0.3815420341 0.0000000000 0.0000000000 0.0000000000 -384.1033729043 0.0000000000 0.0000000000
0.3071063563 0.3945702547 0.0000000000 0.0000000000 0.0000000000 -389.7327263113 0.0000000000 0.0000000000
0.2905384077 0.4069243587 0.0000000000 0.0000000000 0.0000000000 -395.9372038185 0.0000000000 0.0000000000
0.2734740790 0.4185832392 0.0000000000 0.0000000000 0.0000000000 -402.7264662554 0.0000000000 0.0000000000
0.2559425245 0.4295269772 0.0000000000 0.0000000000 0.0000000000 -410.1885030151 0.0000000000 0.0000000000
0.2379736965 0.4397368756 0.0000000000 0.0000000000 0.0000000000 -418.3277200326 0.0000000000 0.0000000000
0.2195982944 0.4491954910 0.0000000000 0.0000000000 0.0000000000 -427.1492097368 0.0000000000 0.0000000000
0.2008477123 0.4578866634 0.0000000000 0.0000000000 0.0000000000 -436.6122494936 0.0000000000 0.0000000000
0.1817539852 0.4657955441 0.0000000000 0.0000000000 0.0000000000 -446.6553662957 0.0000000000 0.0000000000
0.1623497345 0.4729086209 0.0000000000 0.0000000000 0.0000000000 -457.1807907230 0.0000000000 0.0000000000
0.1426681120 0.4792137413 0.0000000000 0.0000000000 0.0000000000 -468.0603805774 0.0000000000 0.0000000000
0.1227427435 0.4847001330 0.0000000000 0.0000000000 0.0000000000 -479.1292005097 0.0000000000 0.0000000000
0.1026076710 0.4893584227 0.0000000000 0.0000000000 0.0000000000 -490.1867427263 0.0000000000 0.0000000000
0.0822972951 0.4931806517 0.0000000000 0.0000000000 0.0000000000 -500.9957743716 0.0000000000 0.0000000000
0.0618463155 0.4961602899 0.0000000000 0.0000000000 0.0000000000 -511.2851513227 0.0000000000 0.0000000000
0.0412896726 0.4982922465 0.0000000000 0.0000000000 0.0000000000 -520.7534586897 0.0000000000 0.0000000000
0.0206624870 0.4995728792 0.0000000000 0.0000000000 0.0000000000 -529.0752052048 0.0000000000 0.0000000000
-0.0000000001 0.5000000000 0.0000000000 0.0000000000 0.0000000000 -535.9083402601 0.0000000000 0.0000000000
-0.0206624872 0.4995728792 0.0000000000 0.0000000000 0.0000000000 -540.9032710359 0.0000000000 0.0000000000
-0.0412896728 0.4982922465 0.0000000000 0.0000000000 0.0000000000 -543.7126428959 0.0000000000 0.0000000000
-0.0618463157 0.4961602899 0.0000000000 0.0000000000 0.0000000000 -544.0015457502 0.0000000000 0.0000000000
-0.0822972953 0.4931806517 0.0000000000 0.0000000000 0.0000000000 -541.4575600672 0.0000000000 0.0000000000
-0.1026076712 0.4893584226 0.0000000000 0.0000000000 0.0000000000 -535.8002147916 0.0000000000 0.0000000000
-0.1227427437 0.4847001329 0.0000000000 0.0000000000 0.0000000000 -526.7894284867 0.0000000000 0.0000000000
-0.1426681122 0.4792137412 0.0000000000 0.0000000000 0.0000000000 -514.2326322336 0.0000000000 0.0000000000
-0.1623497347 0.4729086208 0.0000000000 0.0000000000 0.0000000000 -497.9903605710 0.0000000000 0.0000000000
-0.1817539854 0.4657955440 0.0000000000 0.0000000000 0.0000000000 -477.9802137410 0.0000000000 0.0000000000
-0.2008477124 0.4578866633 0.0000000000 0.0000000000 0.0000000000 -454.1791884494 0.0000000000 0.0000000000
-0.2195982945 0.4491954909 0.0000000000 0.0000000000 0.0000000000 -426.6244582232 0.0000000000 0.0000000000
-0.2379736966 0.4397368755 0.0000000000 0.0000000000 0.0000000000 -395.4127420592 0.0000000000 0.0000000000
-0.2559425247 0.4295269771 0.0000000000 0.0000000000 0.0000000000 -360.6984343511 0.0000000000 0.0000000000
-0.2734740792 0.4185832391 0.0000000000 0.0000000000 0.0000000000 -322.6906780630 0.0000000000 0.0000000000
-0.2905384078 0.4069243586 0.0000000000 0.0000000000 0.0000000000 -281.6495526906 0.0000000000 0.0000000000
-0.3071063565 0.3945702546 0.0000000000 0.0000000000 0.0000000000 -237.8815264476 0.0000000000 0.0000000000
-0.3231496190 0.3815420340 0.0000000000 0.0000000000 0.0000000000 -191.7343002724 0.0000000000 0.0000000000
-0.3386407859 0.3678619552 0.0000000000 0.0000000000 0.0000000000 -143.5911608602 0.0000000000 0.0000000000
-0.3678619554 0.3386407857 0.0000000000 0.0000000000 0.0000000000 -42.9919153969 0.0000000000 0.0000000000
-0.3815420342 0.3231496188 0.0000000000 0.0000000000 0.0000000000 8.5747506470 0.0000000000 0.0000000000
-0.3945702548 0.3071063562 0.0000000000 0.0000000000 0.0000000000 60.3709162650 0.0000000000 0.0000000000
-0.4069243587 0.2905384076 0.0000000000 0.0000000000 0.0000000000 111.9275136685 0.0000000000 0.0000000000
-0.4185832392 0.2734740789 0.0000000000 0.0000000000 0.0000000000 162.7760862605 0.0000000000 0.0000000000
-0.4295269773 0.2559425244 0.0000000000 0.0000000000 0.0000000000 212.4539608506 0.0000000000 0.0000000000
-0.4397368757 0.2379736964 0.0000000000 0.0000000000 0.0000000000 260.5090369719 0.0000000000 0.0000000000
-0.4491954910 0.2195982943 0.0000000000 0.0000000000 0.0000000000 306.5042283224 0.0000000000 0.0000000000
-0.4578866634 0.2008477122 0.0000000000 0.0000000000 0.0000000000 350.0215950271 0.0000000000 0.0000000000
-0.4657955441 0.1817539851 0.0000000000 0.0000000000 0.0000000000 390.6661941468 0.0000000000 0.0000000000
-0.4729086209 0.1623497344 0.0000000000 0.0000000000 0.0000000000 428.0696590730 0.0000000000 0.0000000000
-0.4792137413 0.1426681119 0.0000000000 0.0000000000 0.0000000000 461.8935035037 0.0000000000 0.0000000000
-0.4847001330 0.1227427434 0.0000000000 0.0000000000 0.0000000000 491.8321360257 0.0000000000 0.0000000000
-0.4893584227 0.1026076709 0.0000000000 0.0000000000 0.0000000000 517.6155672555 0.0000000000 0.0000000000
-0.4931806517 0.0822972949 0.0000000000 0.0000000000 0.0000000000 539.0117916267 0.0000000000 0.0000000000
-0.4961602899 0.0618463154 0.0000000000 0.0000000000 0.0000000000 555.8288284382 0.0000000000 0.0000000000
-0.4982922465 0.0412896725 0.0000000000 0.0000000000 0.0000000000 567.9164102314 0.0000000000 0.0000000000
-0.4995728792 0.0206624869 0.0000000000 0.0000000000 0.0000000000 575.1673099562 0.0000000000 0.0000000000
-0.5000000000 -0.0000000002 0.0000000000 0.0000000000 0.0000000000 577.5183012556 0.0000000000 0.0000000000
-0.4995728792 -0.0206624873 0.0000000000 0.0000000000 0.0000000000 574.9507483683 0.0000000000 0.0000000000
-0.4982922465 -0.0412896729 0.0000000000 0.0000000000 0.0000000000 567.4908236874 0.0000000000 0.0000000000
-0.4961602898 -0.0618463158 0.0000000000 0.0000000000 0.0000000000 555.2093520527 0.0000000000 0.0000000000
-0.4931806517 -0.0822972954 0.0000000000 0.0000000000 0.0000000000 538.2212815887 0.0000000000 0.0000000000
-0.4893584226 -0.1026076713 0.0000000000 0.0000000000 0.0000000000 516.6847814980 0.0000000000 0.0000000000
-0.4847001329 -0.1227427438 0.0000000000 0.0000000000 0.0000000000 490.7999678098 0.0000000000 0.0000000000
-0.4792137412 -0.1426681123 0.0000000000 0.0000000000 0.0000000000 460.8072587413 0.0000000000 0.0000000000
-0.4729086208 -0.1623497348 0.0000000000 0.0000000000 0.0000000000 426.9853620442 0.0000000000 0.0000000000
-0.4657955439 -0.1817539855 0.0000000000 0.0000000000 0.0000000000 389.6488974802 0.0000000000 0.0000000000
-0.4578866632 -0.2008477125 0.0000000000 0.0000000000 0.0000000000 349.1456583194 0.0000000000 0.0000000000
-0.4491954908 -0.2195982946 0.0000000000 0.0000000000 0.0000000000 305.8535165017 0.0000000000 0.0000000000
-0.4397368755 -0.2379736967 0.0000000000 0.0000000000 0.0000000000 260.1769768511 0.0000000000 0.0000000000
-0.4295269771 -0.2559425248 0.0000000000 0.0000000000 0.0000000000 212.5433865960 0.0000000000 0.0000000000
-0.4185832390 -0.2734740793 0.0000000000 0.0000000000 0.0000000000 163.3988075874 0.0000000000 0.0000000000
-0.4069243585 -0.2905384079 0.0000000000 0.0000000000 0.0000000000 113.2035602577 0.0000000000 0.0000000000
-0.3945702545 -0.3071063565 0.0000000000 0.0000000000 0.0000000000 62.4274508182 0.0000000000 0.0000000000
-0.3815420339 -0.3231496191 0.0000000000 0.0000000000 0.0000000000 11.5446967905 0.0000000000 0.0000000000
-0.3678619552 -0.3386407860 0.0000000000 0.0000000000 0.0000000000 -38.9714288814 0.0000000000 0.0000000000
-0.3386407856 -0.3678619555 0.0000000000 0.0000000000 0.0000000000 -137.0493034100 0.0000000000 0.0000000000
-0.3231496187 -0.3815420343 0.0000000000 0.0000000000 0.0000000000 -183.7207563431 0.0000000000 0.0000000000
-0.3071063561 -0.3945702549 0.0000000000 0.0000000000 0.0000000000 -228.2570837340 0.0000000000 0.0000000000
-0.2905384075 -0.4069243588 0.0000000000 0.0000000000 0.0000000000 -270.2773991640 0.0000000000 0.0000000000
-0.2734740788 -0.4185832393 0.0000000000 0.0000000000 0.0000000000 -309.4374487911 0.0000000000 0.0000000000
-0.2559425243 -0.4295269773 0.0000000000 0.0000000000 0.0000000000 -345.4354347643 0.0000000000 0.0000000000
-0.2379736963 -0.4397368757 0.0000000000 0.0000000000 0.0000000000 -378.0174715223 0.0000000000 0.0000000000
-0.2195982942 -0.4491954911 0.0000000000 0.0000000000 0.0000000000 -406.9824953797 0.0000000000 0.0000000000
-0.2008477121 -0.4578866634 0.0000000000 0.0000000000 0.0000000000 -432.1864255908 0.0000000000 0.0000000000
-0.1817539850 -0.4657955441 0.0000000000 0.0000000000 0.0000000000 -453.5453592101 0.0000000000 0.0000000000
-0.1623497343 -0.4729086209 0.0000000000 0.0000000000 0.0000000000 -471.0375764775 0.0000000000 0.0000000000
-0.1426681118 -0.4792137413 0.0000000000 0.0000000000 0.0000000000 -484.7041425048 0.0000000000 0.0000000000
-0.1227427433 -0.4847001330 0.0000000000 0.0000000000 0.0000000000 -494.6479186277 0.0000000000 0.0000000000
-0.1026076708 -0.4893584227 0.0000000000 0.0000000000 0.0000000000 -501.0308462062 0.0000000000 0.0000000000
-0.0822972948 -0.4931806518 0.0000000000 0.0000000000 0.0000000000 -504.0694375770 0.0000000000 0.0000000000
-0.0618463153 -0.4961602899 0.0000000000 0.0000000000 0.0000000000 -504.0285025437 0.0000000000 0.0000000000
-0.0412896724 -0.4982922465 0.0000000000 0.0000000000 0.0000000000 -501.2132475129 0.0000000000 0.0000000000
-0.0206624868 -0.4995728792 0.0000000000 0.0000000000 0.0000000000 -495.9600025192 0.0000000000 0.0000000000
0.0000000003 -0.5000000000 0.0000000000 0.0000000000 0.0000000000 -488.6259411135 0.0000000000 0.0000000000
0.0206624874 -0.4995728792 0.0000000000 0.0000000000 0.0000000000 -479.5782565033 0.0000000000 0.0000000000
0.0412896730 -0.4982922465 0.0000000000 0.0000000000 0.0000000000 -469.1833088322 0.0000000000 0.0000000000
0.0618463159 -0.4961602898 0.0000000000 0.0000000000 0.0000000000 -457.7962921762 0.0000000000 0.0000000000
0.0822972955 -0.4931806516 0.0000000000 0.0000000000 0.0000000000 -445.7518993945 0.0000000000 0.0000000000
0.1026076714 -0.4893584226 0.0000000000 0.0000000000 0.0000000000 -433.3564481713 0.0000000000 0.0000000000
0.1227427439 -0.4847001329 0.0000000000 0.0000000000 0.0000000000 -420.8816803323 0.0000000000 0.0000000000
0.1426681124 -0.4792137411 0.0000000000 0.0000000000 0.0000000000 -408.5606034677 0.0000000000 0.0000000000
0.1623497349 -0.4729086207 0.0000000000 0.0000000000 0.0000000000 -396.5851112731 0.0000000000 0.0000000000
0.1817539856 -0.4657955439 0.0000000000 0.0000000000 0.0000000000 -385.1062087794 0.0000000000 0.0000000000
0.2008477126 -0.4578866632 0.0000000000 0.0000000000 0.0000000000 -374.2353705899 0.0000000000 0.0000000000
0.2195982947 -0.4491954908 0.0000000000 0.0000000000 0.0000000000 -364.0502722314 0.0000000000 0.0000000000
0.2379736968 -0.4397368754 0.0000000000 0.0000000000 0.0000000000 -354.5980131732 0.0000000000 0.0000000000
0.2559425248 -0.4295269770 0.0000000000 0.0000000000 0.0000000000 -345.9094615416 0.0000000000 0.0000000000
0.2734740794 -0.4185832389 0.0000000000 0.0000000000 0.0000000000 -337.9934131455 0.0000000000 0.0000000000
0.2905384080 -0.4069243584 0.0000000000 0.0000000000 0.0000000000 -330.8738128236 0.0000000000 0.0000000000
0.3071063566 -0.3945702545 0.0000000000 0.0000000000 0.0000000000 -324.5278490535 0.0000000000 0.0000000000
0.3231496192 -0.3815420339 0.0000000000 0.0000000000 0.0000000000 -319.0313909249 0.0000000000 0.0000000000
0.3386407861 -0.3678619551 0.0000000000 0.0000000000 0.0000000000 -314.2275510788 0.0000000000 0.0000000000
0.5497889042 -0.5101295529 0.0000000000 0.1119823415 -0.0425386943 -287.3362173985 0.0000000000 0.0000000000
0.5684787927 -0.4892155581 0.0000000000 0.0798446929 -0.0511102849 -286.4465270273 0.0000000000 0.0000000000
0.5863736122 -0.4676173510 0.0000000000 0.0544756117 -0.0610655269 -286.0184677795 0.0000000000 0.0000000000
0.6034483351 -0.4453651388 0.0000000000 0.0350483551 -0.0720565024 -286.0330596138 0.0000000000 0.0000000000
0.6196790810 -0.4224900431 0.0000000000 0.0205257316 -0.0836675058 -286.4493187427 0.0000000000 0.0000000000
0.6350431497 -0.3990240570 0.0000000000 0.0097801855 -0.0954437316 -287.2095172060 0.0000000000 0.0000000000
0.6495190531 -0.3749999996 0.0000000000 0.0017143291 -0.1069279991 -288.2456603755 0.0000000000 0.0000000000
0.6630865453 -0.3504514708 0.0000000000 -0.0046419087 -0.1176958314 -289.4868150068 0.0000000000 0.0000000000
0.6757266511 -0.3254128039 0.0000000000 -0.0100715604 -0.1273819928 -290.8652720083 0.0000000000 0.0000000000
0.6874216921 -0.2999190178 0.0000000000 -0.0151498912 -0.1356956154 -292.3209739590 0.0000000000 0.0000000000
0.6981553116 -0.2740057679 0.0000000000 -0.0202546530 -0.1424246403 -293.8043933529 0.0000000000 0.0000000000
0.7079124979 -0.2477092961 0.0000000000 -0.0255951956 -0.1474323104 -295.2783239471 0.0000000000 0.0000000000
0.7166796045 -0.2210663804 0.0000000000 -0.0312490362 -0.1506489126 -296.7189344511 0.0000000000 0.0000000000
0.7244443698 -0.1941142835 0.0000000000 -0.0371978133 -0.1520614609 -298.1162051321 0.0000000000 0.0000000000
0.7311959342 -0.1668907001 0.0000000000 -0.0433582791 -0.1517031796 -299.4737104893 0.0000000000 0.0000000000
0.7369248550 -0.1394337050 0.0000000000 -0.0496068456 -0.1496438646 -300.8076752949 0.0000000000 0.0000000000
0.7416231197 -0.1117816993 0.0000000000 -0.0557978772 -0.1459816306 -302.1452816944 0.0000000000 0.0000000000
0.7452841575 -0.0839733567 0.0000000000 -0.0617766404 -0.1408361722 -303.5222868116 0.0000000000 0.0000000000
0.7479028479 -0.0560475699 0.0000000000 -0.0673879587 -0.1343434555 -304.9800845479 0.0000000000 0.0000000000
0.7494755286 -0.0280433954 0.0000000000 -0.0724815116 -0.1266516507 -306.5623948047 0.0000000000 0.0000000000
0.7500000000 0.0000000003 0.0000000000 -0.0769145447 -0.1179180948 -308.3117855437 0.0000000000 0.0000000000
0.7494755286 0.0280433960 0.0000000000 -0.0805526322 -0.1083070984 -310.2662321002 0.0000000000 0.0000000000
0.7479028479 0.0560475705 0.0000000000 -0.0832690651 -0.0979884559 -312.4559009123 0.0000000000 0.0000000000
0.7452841574 0.0839733573 0.0000000000 -0.0849434210 -0.0871365527 -314.9003194426 0.0000000000 0.0000000000
0.7416231196 0.1117816999 0.0000000000 -0.0854598581 -0.0759299725 -317.6060691151 0.0000000000 0.0000000000
0.7369248549 0.1394337056 0.0000000000 -0.0847056276 -0.0645514729 -320.5651212656 0.0000000000 0.0000000000
0.7311959341 0.1668907007 0.0000000000 -0.0825701687 -0.0531881322 -323.7539313441 0.0000000000 0.0000000000
0.7244443697 0.1941142840 0.0000000000 -0.0789449186 -0.0420313752 -327.1334116347 0.0000000000 0.0000000000
0.7166796043 0.2210663810 0.0000000000 -0.0737236376 -0.0312765030 -330.6499073138 0.0000000000 0.0000000000
0.7079124977 0.2477092967 0.0000000000 -0.0668026624 -0.0211212825 -334.2372884701 0.0000000000 0.0000000000
0.6981553114 0.2740057685 0.0000000000 -0.0580801284 -0.0117631211 -337.8202239523 0.0000000000 0.0000000000
0.6874216918 0.2999190184 0.0000000000 -0.0474529560 -0.0033943649 -341.3186100646 0.0000000000 0.0000000000
0.6757266509 0.3254128045 0.0000000000 -0.0348103811 0.0038047015 -344.6529898449 0.0000000000 0.0000000000
0.6630865451 0.3504514714 0.0000000000 -0.0200231533 0.0096754815 -347.7506343764 0.0000000000 0.0000000000
0.6495190528 0.3750000001 0.0000000000 -0.0029283322 0.0140934790 -350.5517948480 0.0000000000 0.0000000000
0.6350431493 0.3990240575 0.0000000000 0.0166890432 0.0169833232 -353.0155030210 0.0000000000 0.0000000000
0.6196790807 0.4224900437 0.0000000000 0.0391142645 0.0183356376 -355.1242213847 0.0000000000 0.0000000000
0.6034483348 0.4453651393 0.0000000000 0.0647159465 0.0182240674 -356.8866436048 0.0000000000 0.0000000000
0.5863736118 0.4676173515 0.0000000000 0.0939465796 0.0168196280 -358.3380223165 0.0000000000 0.0000000000
0.5684787923 0.4892155585 0.0000000000 0.1273231361 0.0143985124 -359.5375919457 0.0000000000 0.0000000000
0.5497889038 0.5101295534 0.0000000000 0.1653814690 0.0113394022 -360.5580511365 0.0000000000 0.0000000000
0.5079611787 0.5517929331 0.0000000000 0.2628490866 0.0049794203 -362.5685388149 0.0000000000 0.0000000000
0.4847244283 0.5723130512 0.0000000000 0.3239963773 0.0030293932 -363.7179117674 0.0000000000 0.0000000000
0.4606595344 0.5918553821 0.0000000000 0.3917007412 0.0029441640 -365.0541885064 0.0000000000 0.0000000000
0.4358076115 0.6103865380 0.0000000000 0.4651086475 0.0052910943 -366.6377015507 0.0000000000 0.0000000000
0.4102111185 0.6278748587 0.0000000000 0.5428630664 0.0104777246 -368.4913203844 0.0000000000 0.0000000000
0.3839137867 0.6442904658 0.0000000000 0.6232022043 0.0187246067 -370.5991684640 0.0000000000 0.0000000000
0.3569605447 0.6596053135 0.0000000000 0.7041156959 0.0300620966 -372.9055088786 0.0000000000 0.0000000000
0.3293974415 0.6737932365 0.0000000000 0.7835278967 0.0443472343 -375.3154131316 0.0000000000 0.0000000000
0.3012715684 0.6868299950 0.0000000000 0.8594772133 0.0612951717 -377.6984971824 0.0000000000 0.0000000000
0.2726309778 0.6986933161 0.0000000000 0.9302662567 0.0805198501 -379.8961598454 0.0000000000 0.0000000000
0.2435246018 0.7093629313 0.0000000000 0.9945660722 0.1015785660 -381.7316576663 0.0000000000 0.0000000000
0.2140021681 0.7188206119 0.0000000000 1.0514671617 0.1240149181 -383.0213556802 0.0000000000 0.0000000000
0.1841141152 0.7270501995 0.0000000000 1.1004791988 0.1473950816 -383.5851647271 0.0000000000 0.0000000000
0.1539115065 0.7340376340 0.0000000000 1.1414888554 0.1713338101 -383.2545844827 0.0000000000 0.0000000000
0.1234459426 0.7397709776 0.0000000000 1.1746897356 0.1955087279 -381.8776157893 0.0000000000 0.0000000000
0.0927694733 0.7442404348 0.0000000000 1.2004995086 0.2196636517 -379.3206754642 0.0000000000 0.0000000000
0.0619345090 0.7474383698 0.0000000000 1.2194774409 0.2436032638 -375.4682491545 0.0000000000 0.0000000000
0.0309937305 0.7493593188 0.0000000000 1.2322518231 0.2671821803 -370.2212591066 0.0000000000 0.0000000000
-0.0000000002 0.7500000000 0.0000000000 1.2394625924 0.2902914207 -363.4950620672 0.0000000000 0.0000000000
-0.0309937308 0.7493593188 0.0000000000 1.2417207438 0.3128447376 -355.2177525578 0.0000000000 0.0000000000
-0.0619345093 0.7474383697 0.0000000000 1.2395834420 0.3347664978 -345.3291505648 0.0000000000 0.0000000000
-0.0927694736 0.7442404348 0.0000000000 1.2335421812 0.3559820517 -333.7805861070 0.0000000000 0.0000000000
-0.1234459429 0.7397709775 0.0000000000 1.2240207351 0.3764109035 -320.5353995378 0.0000000000 0.0000000000
-0.1539115068 0.7340376340 0.0000000000 1.2113797106 0.3959625678 -305.5699651535 0.0000000000 0.0000000000
-0.1841141155 0.7270501994 0.0000000000 1.1959249750 0.4145347424 -288.8750051466 0.0000000000 0.0000000000
-0.2140021684 0.7188206118 0.0000000000 1.1779178450 0.4320133235 -270.4569705148 0.0000000000 0.0000000000
-0.2435246021 0.7093629312 0.0000000000 1.1575855460 0.4482737777 -250.3393039528 0.0000000000 0.0000000000
-0.2726309781 0.6986933160 0.0000000000 1.1351309831 0.4631834346 -228.5634496711 0.0000000000 0.0000000000
-0.3012715687 0.6868299949 0.0000000000 1.1107412892 0.4766043368 -205.1895247250 0.0000000000 0.0000000000
-0.3293974418 0.6737932363 0.0000000000 1.0845949141 0.4883963644 -180.2966092199 0.0000000000 0.0000000000
-0.3569605450 0.6596053133 0.0000000000 1.0568672200 0.4984204227 -153.9826460501 0.0000000000 0.0000000000
-0.3839137870 0.6442904657 0.0000000000 1.0277346690 0.5065415454 -126.3639645620 0.0000000000 0.0000000000
-0.4102111188 0.6278748586 0.0000000000 0.9973777542 0.5126318105 -97.5744579719 0.0000000000 0.0000000000
-0.4358076117 0.6103865378 0.0000000000 0.9659828492 0.5165730063 -67.7644532520 0.0000000000 0.0000000000
-0.4606595347 0.5918553819 0.0000000000 0.9337431547 0.5182590101 -37.0993162918 0.0000000000 0.0000000000
-0.4847244286 0.5723130510 0.0000000000 0.9008589098 0.5175978582 -5.7578359315 0.0000000000 0.0000000000
-0.5079611789 0.5517929329 0.0000000000 0.8675370149 0.5145135050 26.0695708719 0.0000000000 0.0000000000
-0.5517929332 0.5079611785 0.0000000000 0.8004358283 0.5008589807 90.3740619468 0.0000000000 0.0000000000
-0.5723130513 0.4847244282 0.0000000000 0.7670944754 0.4902278277 122.4300573008 0.0000000000 0.0000000000
-0.5918553822 0.4606595343 0.0000000000 0.7341882785 0.4770529350 154.1340519553 0.0000000000 0.0000000000
-0.6103865381 0.4358076114 0.0000000000 0.7019391969 0.4613536710 185.2680681543 0.0000000000 0.0000000000
-0.6278748588 0.4102111184 0.0000000000 0.6705671863 0.4431697084 215.6150198740 0.0000000000 0.0000000000
-0.6442904659 0.3839137866 0.0000000000 0.6402883453 0.4225608519 244.9608181096 0.0000000000 0.0000000000
-0.6596053135 0.3569605446 0.0000000000 0.6113130678 0.3996066509 273.0964180296 0.0000000000 0.0000000000
-0.6737932365 0.3293974414 0.0000000000 0.5838442312 0.3744058108 299.8197892160 0.0000000000 0.0000000000
-0.6868299951 0.3012715682 0.0000000000 0.5580754467 0.3470754225 324.9377927597 0.0000000000 0.0000000000
-0.6986933161 0.2726309777 0.0000000000 0.5341893945 0.3177500211 348.2679515742 0.0000000000 0.0000000000
-0.7093629314 0.2435246016 0.0000000000 0.5123562618 0.2865804912 369.6401026377 0.0000000000 0.0000000000
-0.7188206119 0.2140021679 0.0000000000 0.4927322980 0.2537328285 388.8979215591 0.0000000000 0.0000000000
-0.7270501995 0.1841141151 0.0000000000 0.4754584978 0.2193867730 405.9003109533 0.0000000000 0.0000000000
-0.7340376341 0.1539115064 0.0000000000 0.4606594198 0.1837343233 420.5226444685 0.0000000000 0.0000000000
-0.7397709776 0.1234459424 0.0000000000 0.4484421440 0.1469781482 432.6578585576 0.0000000000 0.0000000000
-0.7442404348 0.0927694732 0.0000000000 0.4388953693 0.1093299081 442.2173844156 0.0000000000 0.0000000000
-0.7474383698 0.0619345088 0.0000000000 0.4320886538 0.0710085055 449.1319128828 0.0000000000 0.0000000000
-0.7493593188 0.0309937304 0.0000000000 0.4280718001 0.0322382839 453.3519871887 0.0000000000 0.0000000000
-0.7500000000 -0.0000000003 0.0000000000 0.4268743974 -0.0067528035 454.8484219052 0.0000000000 0.0000000000
-0.7493593188 -0.0309937310 0.0000000000 0.4285055394 -0.0457350387 453.6125527898 0.0000000000 0.0000000000
-0.7474383697 -0.0619345094 0.0000000000 0.4329537336 -0.0844787888 449.6563227004 0.0000000000 0.0000000000
-0.7442404348 -0.0927694738 0.0000000000 0.4401870108 -0.1227563573 443.0122055171 0.0000000000 0.0000000000
-0.7397709775 -0.1234459430 0.0000000000 0.4501532289 -0.1603438335 433.7329652763 0.0000000000 0.0000000000
-0.7340376339 -0.1539115070 0.0000000000 0.4627805532 -0.1970229314 421.8912425326 0.0000000000 0.0000000000
-0.7270501994 -0.1841141157 0.0000000000 0.4779780939 -0.2325828034 407.5789620554 0.0000000000 0.0000000000
-0.7188206117 -0.2140021685 0.0000000000 0.4956366838 -0.2668218057 390.9065608744 0.0000000000 0.0000000000