 TITLE = "Tecplot data"
 VARIABLES = "X", "Y", "Z" "U", "V", "p", "dispX", "dispY"
 ZONE SOLUTIONTIME=29.900000, NODES=26114 , ELEMENTS=25916, DATAPACKING=POINT, ZONETYPE=FEQUADRILATERAL
0.3535533906 0.3535533906 0.0000000000 0.0000000000 0.0000000000 -252.8376349182 0.0000000000 0.0000000000
0.3535533908 -0.3535533903 0.0000000000 0.0000000000 0.0000000000 -253.8695091475 0.0000000000 0.0000000000
-0.3535533907 0.3535533905 0.0000000000 0.0000000000 0.0000000000 -50.3141854869 0.0000000000 0.0000000000
-0.3535533904 -0.3535533908 0.0000000000 0.0000000000 0.0000000000 -50.6081347412 0.0000000000 0.0000000000
0.5303300858 0.5303300859 0.0000000000 0.1178219573 0.0372342264 -238.8485474025 0.0000000000 0.0000000000
0.5303300863 -0.5303300855 0.0000000000 0.1183587417 -0.0372917300 -240.0260606341 0.0000000000 0.0000000000
-0.5303300861 0.5303300857 0.0000000000 0.8039692300 0.5055858291 87.3138187486 0.0000000000 0.0000000000
-0.5303300856 -0.5303300862 0.0000000000 0.8040847147 -0.5056177114 87.0907164586 0.0000000000 0.0000000000
1.0606601717 1.0606601719 0.0000000000 1.1586595220 0.1207997142 -204.3266641217 0.0000000000 0.0000000000
1.0606601725 -1.0606601710 0.0000000000 1.1579139340 -0.1192234222 -204.3067516450 0.0000000000 0.0000000000
-1.0606601721 1.0606601715 0.0000000000 0.9131639545 0.1919019306 101.9784334132 0.0000000000 0.0000000000
-1.0606601712 -1.0606601723 0.0000000000 0.9132641063 -0.1917708886 101.7476235731 0.0000000000 0.0000000000
4.2000000000 3.3000000000 0.0000000000 1.1023566502 -0.0164400618 -74.7615957599 0.0000000000 0.0000000000
4.2000000000 -3.3000000000 0.0000000000 1.1032192053 0.0176669702 -75.7186745199 0.0000000000 0.0000000000
20.0000000000 4.7000000000 0.0000000000 1.0088588465 -0.0082311053 -0.0127339104 0.0000000000 0.0000000000
20.0000000000 -4.7000000000 0.0000000000 1.0088391421 0.0083057280 -0.0139446313 0.0000000000 0.0000000000
-10.0000000000 15.0000000000 0.0000000000 1.0000000000 0.0000000000 6.6152031593 0.0000000000 0.0000000000
20.0000000000 15.0000000000 0.0000000000 1.0016824712 0.0000000000 -0.0036236496 0.0000000000 0.0000000000
20.0000000000 -15.0000000000 0.0000000000 1.0016815960 0.0000000000 -0.0023222866 0.0000000000 0.0000000000
-10.0000000000 -15.0000000000 0.0000000000 1.0000000000 0.0000000000 6.5853765434 0.0000000000 0.0000000000
0.3665259362 -0.3400863686 0.0000000000 0.0000000000 0.0000000000 -250.7629007230 0.0000000000 0.0000000000
0.3789858618 -0.3261437054 0.0000000000 0.0000000000 0.0000000000 -248.1737226449 0.0000000000 0.0000000000
0.3909157414 -0.3117449007 0.0000000000 0.0000000000 0.0000000000 -245.7018314362 0.0000000000 0.0000000000
0.4022988901 -0.2969100925 0.0000000000 0.0000000000 0.0000000000 -243.4604213393 0.0000000000 0.0000000000
0.4131193873 -0.2816600288 0.0000000000 0.0000000000 0.0000000000 -241.3441830254 0.0000000000 0.0000000000
0.4233620998 -0.2660160380 0.0000000000 0.0000000000 0.0000000000 -239.3493560292 0.0000000000 0.0000000000
0.4330127020 -0.2499999997 0.0000000000 0.0000000000 0.0000000000 -237.4360328549 0.0000000000 0.0000000000
0.4420576969 -0.2336343139 0.0000000000 0.0000000000 0.0000000000 -235.5914592850 0.0000000000 0.0000000000
0.4504844341 -0.2169418693 0.0000000000 0.0000000000 0.0000000000 -233.8019297980 0.0000000000 0.0000000000
0.4582811280 -0.1999460119 0.0000000000 0.0000000000 0.0000000000 -232.0656190906 0.0000000000 0.0000000000
0.4654368744 -0.1826705119 0.0000000000 0.0000000000 0.0000000000 -230.3859753523 0.0000000000 0.0000000000
0.4719416652 -0.1651395307 0.0000000000 0.0000000000 0.0000000000 -228.7736594297 0.0000000000 0.0000000000
0.4777864030 -0.1473775870 0.0000000000 0.0000000000 0.0000000000 -227.2440910428 0.0000000000 0.0000000000
0.4829629132 -0.1294095223 0.0000000000 0.0000000000 0.0000000000 -225.8167718626 0.0000000000 0.0000000000
0.4874639561 -0.1112604667 0.0000000000 0.0000000000 0.0000000000 -224.5135546234 0.0000000000 0.0000000000
0.4912832367 -0.0929558033 0.0000000000 0.0000000000 0.0000000000 -223.3573046390 0.0000000000 0.0000000000
0.4944154131 -0.0745211329 0.0000000000 0.0000000000 0.0000000000 -222.3703534210 0.0000000000 0.0000000000
0.4968561050 -0.0559822378 0.0000000000 0.0000000000 0.0000000000 -221.5731371430 0.0000000000 0.0000000000
0.4986018986 -0.0373650466 0.0000000000 0.0000000000 0.0000000000 -220.9829261382 0.0000000000 0.0000000000
0.4996503524 -0.0186955969 0.0000000000 0.0000000000 0.0000000000 -220.6127904289 0.0000000000 0.0000000000
0.5000000000 0.0000000002 0.0000000000 0.0000000000 0.0000000000 -220.4708094651 0.0000000000 0.0000000000
0.4996503524 0.0186955973 0.0000000000 0.0000000000 0.0000000000 -220.5596005291 0.0000000000 0.0000000000
0.4986018986 0.0373650470 0.0000000000 0.0000000000 0.0000000000 -220.8761575792 0.0000000000 0.0000000000
0.4968561049 0.0559822382 0.0000000000 0.0000000000 0.0000000000 -221.4120586695 0.0000000000 0.0000000000
0.4944154131 0.0745211333 0.0000000000 0.0000000000 0.0000000000 -222.1539447215 0.0000000000 0.0000000000
0.4912832366 0.0929558037 0.0000000000 0.0000000000 0.0000000000 -223.0843973847 0.0000000000 0.0000000000
0.4874639561 0.1112604671 0.0000000000 0.0000000000 0.0000000000 -224.1828864138 0.0000000000 0.0000000000
0.4829629131 0.1294095227 0.0000000000 0.0000000000 0.0000000000 -225.4272531717 0.0000000000 0.0000000000
0.4777864029 0.1473775873 0.0000000000 0.0000000000 0.0000000000 -226.7947155522 0.0000000000 0.0000000000
0.4719416651 0.1651395311 0.0000000000 0.0000000000 0.0000000000 -228.2640550080 0.0000000000 0.0000000000
0.4654368743 0.1826705123 0.0000000000 0.0000000000 0.0000000000 -229.8157946801 0.0000000000 0.0000000000
0.4582811279 0.1999460123 0.0000000000 0.0000000000 0.0000000000 -231.4359363441 0.0000000000 0.0000000000
0.4504844339 0.2169418697 0.0000000000 0.0000000000 0.0000000000 -233.1130710098 0.0000000000 0.0000000000
0.4420576967 0.2336343142 0.0000000000 0.0000000000 0.0000000000 -234.8469526173 0.0000000000 0.0000000000
0.4330127018 0.2500000001 0.0000000000 0.0000000000 0.0000000000 -236.6360051521 0.0000000000 0.0000000000
0.4233620996 0.2660160383 0.0000000000 0.0000000000 0.0000000000 -238.5017164608 0.0000000000 0.0000000000
0.4131193871 0.2816600291 0.0000000000 0.0000000000 0.0000000000 -240.4462733167 0.0000000000 0.0000000000
0.4022988898 0.2969100929 0.0000000000 0.0000000000 0.0000000000 -242.5284720905 0.0000000000 0.0000000000
0.3909157412 0.3117449010 0.0000000000 0.0000000000 0.0000000000 -244.7262194354 0.0000000000 0.0000000000
0.3789858615 0.3261437057 0.0000000000 0.0000000000 0.0000000000 -247.1830242319 0.0000000000 0.0000000000
0.3665259359 0.3400863689 0.0000000000 0.0000000000 0.0000000000 -249.7497005421 0.0000000000 0.0000000000
0.3386407858 0.3678619554 0.0000000000 0.0000000000 0.0000000000 -256.3333368176 0.0000000000 0.0000000000
0.3231496189 0.3815420341 0.0000000000 0.0000000000 0.0000000000 -260.5534971960 0.0000000000 0.0000000000
0.3071063563 0.3945702547 0.0000000000 0.0000000000 0.0000000000 -265.1676316716 0.0000000000 0.0000000000
0.2905384077 0.4069243587 0.0000000000 0.0000000000 0.0000000000 -270.4367832291 0.0000000000 0.0000000000
0.2734740790 0.4185832392 0.0000000000 0.0000000000 0.0000000000 -276.2921754892 0.0000000000 0.0000000000
0.2559425245 0.4295269772 0.0000000000 0.0000000000 0.0000000000 -282.8270730579 0.0000000000 0.0000000000
0.2379736965 0.4397368756 0.0000000000 0.0000000000 0.0000000000 -290.0254941494 0.0000000000 0.0000000000
0.2195982944 0.4491954910 0.0000000000 0.0000000000 0.0000000000 -297.9099811792 0.0000000000 0.0000000000
0.2008477123 0.4578866634 0.0000000000 0.0000000000 0.0000000000 -306.4555199242 0.0000000000 0.0000000000
0.1817539852 0.4657955441 0.0000000000 0.0000000000 0.0000000000 -315.6332498520 0.0000000000 0.0000000000
0.1623497345 0.4729086209 0.0000000000 0.0000000000 0.0000000000 -325.3803580284 0.0000000000 0.0000000000
0.1426681120 0.4792137413 0.0000000000 0.0000000000 0.0000000000 -335.6108071962 0.0000000000 0.0000000000
0.1227427435 0.4847001330 0.0000000000 0.0000000000 0.0000000000 -346.2033603646 0.0000000000 0.0000000000
0.1026076710 0.4893584227 0.0000000000 0.0000000000 0.0000000000 -357.0033783612 0.0000000000 0.0000000000
0.0822972951 0.4931806517 0.0000000000 0.0000000000 0.0000000000 -367.8188623770 0.0000000000 0.0000000000
0.0618463155 0.4961602899 0.0000000000 0.0000000000 0.0000000000 -378.4222368866 0.0000000000 0.0000000000
0.0412896726 0.4982922465 0.0000000000 0.0000000000 0.0000000000 -388.5518651112 0.0000000000 0.0000000000
0.0206624870 0.4995728792 0.0000000000 0.0000000000 0.0000000000 -397.9167217867 0.0000000000 0.0000000000
-0.0000000001 0.5000000000 0.0000000000 0.0000000000 0.0000000000 -406.2022390880 0.0000000000 0.0000000000
-0.0206624872 0.4995728792 0.0000000000 0.0000000000 0.0000000000 -413.0781122187 0.0000000000 0.0000000000
-0.0412896728 0.4982922465 0.0000000000 0.0000000000 0.0000000000 -418.2071707387 0.0000000000 0.0000000000
-0.0618463157 0.4961602899 0.0000000000 0.0000000000 0.0000000000 -421.2551824122 0.0000000000 0.0000000000
-0.0822972953 0.4931806517 0.0000000000 0.0000000000 0.0000000000 -421.9009438310 0.0000000000 0.0000000000
-0.1026076712 0.4893584226 0.0000000000 0.0000000000 0.0000000000 -419.8462404508 0.0000000000 0.0000000000
-0.1227427437 0.4847001329 0.0000000000 0.0000000000 0.0000000000 -414.8251596907 0.0000000000 0.0000000000
-0.1426681122 0.4792137412 0.0000000000 0.0000000000 0.0000000000 -406.6123750378 0.0000000000 0.0000000000
-0.1623497347 0.4729086208 0.0000000000 0.0000000000 0.0000000000 -395.0300784997 0.0000000000 0.0000000000
-0.1817539854 0.4657955440 0.0000000000 0.0000000000 0.0000000000 -379.9533648642 0.0000000000 0.0000000000
-0.2008477124 0.4578866633 0.0000000000 0.0000000000 0.0000000000 -361.3139712692 0.0000000000 0.0000000000
-0.2195982945 0.4491954909 0.0000000000 0.0000000000 0.0000000000 -339.1023788682 0.0000000000 0.0000000000
-0.2379736966 0.4397368755 0.0000000000 0.0000000000 0.0000000000 -313.3683605494 0.0000000000 0.0000000000
-0.2559425247 0.4295269771 0.0000000000 0.0000000000 0.0000000000 -284.2201146760 0.0000000000 0.0000000000
-0.2734740792 0.4185832391 0.0000000000 0.0000000000 0.0000000000 -251.8221529298 0.0000000000 0.0000000000
-0.2905384078 0.4069243586 0.0000000000 0.0000000000 0.0000000000 -216.3921160476 0.0000000000 0.0000000000
-0.3071063565 0.3945702546 0.0000000000 0.0000000000 0.0000000000 -178.1966807755 0.0000000000 0.0000000000
-0.3231496190 0.3815420340 0.0000000000 0.0000000000 0.0000000000 -137.5467066023 0.0000000000 0.0000000000
-0.3386407859 0.3678619552 0.0000000000 0.0000000000 0.0000000000 -94.7917631381 0.0000000000 0.0000000000
-0.3678619554 0.3386407857 0.0000000000 0.0000000000 0.0000000000 -4.5228231622 0.0000000000 0.0000000000
-0.3815420342 0.3231496188 0.0000000000 0.0000000000 0.0000000000 42.1533343408 0.0000000000 0.0000000000
-0.3945702548 0.3071063562 0.0000000000 0.0000000000 0.0000000000 89.2714713449 0.0000000000 0.0000000000
-0.4069243587 0.2905384076 0.0000000000 0.0000000000 0.0000000000 136.3810409638 0.0000000000 0.0000000000
-0.4185832392 0.2734740789 0.0000000000 0.0000000000 0.0000000000 183.0295323299 0.0000000000 0.0000000000
-0.4295269773 0.2559425244 0.0000000000 0.0000000000 0.0000000000 228.7678590127 0.0000000000 0.0000000000
-0.4397368757 0.2379736964 0.0000000000 0.0000000000 0.0000000000 273.1553662790 0.0000000000 0.0000000000
-0.4491954910 0.2195982943 0.0000000000 0.0000000000 0.0000000000 315.7644829681 0.0000000000 0.0000000000
-0.4578866634 0.2008477122 0.0000000000 0.0000000000 0.0000000000 356.1850501646 0.0000000000 0.0000000000
-0.4657955441 0.1817539851 0.0000000000 0.0000000000 0.0000000000 394.0283502277 0.0000000000 0.0000000000
-0.4729086209 0.1623497344 0.0000000000 0.0000000000 0.0000000000 428.9308451181 0.0000000000 0.0000000000
-0.4792137413 0.1426681119 0.0000000000 0.0000000000 0.0000000000 460.5576195024 0.0000000000 0.0000000000
-0.4847001330 0.1227427434 0.0000000000 0.0000000000 0.0000000000 488.6055153087 0.0000000000 0.0000000000
-0.4893584227 0.1026076709 0.0000000000 0.0000000000 0.0000000000 512.8059407189 0.0000000000 0.0000000000
-0.4931806517 0.0822972949 0.0000000000 0.0000000000 0.0000000000 532.9273368027 0.0000000000 0.0000000000
-0.4961602899 0.0618463154 0.0000000000 0.0000000000 0.0000000000 548.7772874499 0.0000000000 0.0000000000
-0.4982922465 0.0412896725 0.0000000000 0.0000000000 0.0000000000 560.2042615610 0.0000000000 0.0000000000
-0.4995728792 0.0206624869 0.0000000000 0.0000000000 0.0000000000 567.0989796862 0.0000000000 0.0000000000
-0.5000000000 -0.0000000002 0.0000000000 0.0000000000 0.0000000000 569.3954000165 0.0000000000 0.0000000000
-0.4995728792 -0.0206624873 0.0000000000 0.0000000000 0.0000000000 567.0713206859 0.0000000000 0.0000000000
-0.4982922465 -0.0412896729 0.0000000000 0.0000000000 0.0000000000 560.1485967928 0.0000000000 0.0000000000
-0.4961602898 -0.0618463158 0.0000000000 0.0000000000 0.0000000000 548.6929715586 0.0000000000 0.0000000000
-0.4931806517 -0.0822972954 0.0000000000 0.0000000000 0.0000000000 532.8135217743 0.0000000000 0.0000000000
-0.4893584226 -0.1026076713 0.0000000000 0.0000000000 0.0000000000 512.6617183399 0.0000000000 0.0000000000
-0.4847001329 -0.1227427438 0.0000000000 0.0000000000 0.0000000000 488.4301033580 0.0000000000 0.0000000000
-0.4792137412 -0.1426681123 0.0000000000 0.0000000000 0.0000000000 460.3505860118 0.0000000000 0.0000000000
-0.4729086208 -0.1623497348 0.0000000000 0.0000000000 0.0000000000 428.6923602967 0.0000000000 0.0000000000
-0.4657955439 -0.1817539855 0.0000000000 0.0000000000 0.0000000000 393.7594486089 0.0000000000 0.0000000000
-0.4578866632 -0.2008477125 0.0000000000 0.0000000000 0.0000000000 355.8878761519 0.0000000000 0.0000000000
-0.4491954908 -0.2195982946 0.0000000000 0.0000000000 0.0000000000 315.4424821454 0.0000000000 0.0000000000
-0.4397368755 -0.2379736967 0.0000000000 0.0000000000 0.0000000000 272.8133749405 0.0000000000 0.0000000000
-0.4295269771 -0.2559425248 0.0000000000 0.0000000000 0.0000000000 228.4120394931 0.0000000000 0.0000000000
-0.4185832390 -0.2734740793 0.0000000000 0.0000000000 0.0000000000 182.6671074247 0.0000000000 0.0000000000
-0.4069243585 -0.2905384079 0.0000000000 0.0000000000 0.0000000000 136.0198023344 0.0000000000 0.0000000000
-0.3945702545 -0.3071063565 0.0000000000 0.0000000000 0.0000000000 88.9190764663 0.0000000000 0.0000000000
-0.3815420339 -0.3231496191 0.0000000000 0.0000000000 0.0000000000 41.8164595802 0.0000000000 0.0000000000
-0.3678619552 -0.3386407860 0.0000000000 0.0000000000 0.0000000000 -4.8393526382 0.0000000000 0.0000000000
-0.3386407856 -0.3678619555 0.0000000000 0.0000000000 0.0000000000 -95.0639453320 0.0000000000 0.0000000000
-0.3231496187 -0.3815420343 0.0000000000 0.0000000000 0.0000000000 -137.8010578396 0.0000000000 0.0000000000
-0.3071063561 -0.3945702549 0.0000000000 0.0000000000 0.0000000000 -178.4399309096 0.0000000000 0.0000000000
-0.2905384075 -0.4069243588 0.0000000000 0.0000000000 0.0000000000 -216.6331216125 0.0000000000 0.0000000000
-0.2734740788 -0.4185832393 0.0000000000 0.0000000000 0.0000000000 -252.0710228852 0.0000000000 0.0000000000
-0.2559425243 -0.4295269773 0.0000000000 0.0000000000 0.0000000000 -284.4872834052 0.0000000000 0.0000000000
-0.2379736963 -0.4397368757 0.0000000000 0.0000000000 0.0000000000 -313.6637450103 0.0000000000 0.0000000000
-0.2195982942 -0.4491954911 0.0000000000 0.0000000000 0.0000000000 -339.4347120123 0.0000000000 0.0000000000
-0.2008477121 -0.4578866634 0.0000000000 0.0000000000 0.0000000000 -361.6903512233 0.0000000000 0.0000000000
-0.1817539850 -0.4657955441 0.0000000000 0.0000000000 0.0000000000 -380.3790147584 0.0000000000 0.0000000000
-0.1623497343 -0.4729086209 0.0000000000 0.0000000000 0.0000000000 -395.5082834928 0.0000000000 0.0000000000
-0.1426681118 -0.4792137413 0.0000000000 0.0000000000 0.0000000000 -407.1445512523 0.0000000000 0.0000000000
-0.1227427433 -0.4847001330 0.0000000000 0.0000000000 0.0000000000 -415.4110112078 0.0000000000 0.0000000000
-0.1026076708 -0.4893584227 0.0000000000 0.0000000000 0.0000000000 -420.4839682634 0.0000000000 0.0000000000
-0.0822972948 -0.4931806518 0.0000000000 0.0000000000 0.0000000000 -422.5874829600 0.0000000000 0.0000000000
-0.0618463153 -0.4961602899 0.0000000000 0.0000000000 0.0000000000 -421.9864507309 0.0000000000 0.0000000000
-0.0412896724 -0.4982922465 0.0000000000 0.0000000000 0.0000000000 -418.9783259906 0.0000000000 0.0000000000
-0.0206624868 -0.4995728792 0.0000000000 0.0000000000 0.0000000000 -413.8838071068 0.0000000000 0.0000000000
0.0000000003 -0.5000000000 0.0000000000 0.0000000000 0.0000000000 -407.0368864522 0.0000000000 0.0000000000
0.0206624874 -0.4995728792 0.0000000000 0.0000000000 0.0000000000 -398.7747406401 0.0000000000 0.0000000000
0.0412896730 -0.4982922465 0.0000000000 0.0000000000 0.0000000000 -389.4279534756 0.0000000000 0.0000000000
0.0618463159 -0.4961602898 0.0000000000 0.0000000000 0.0000000000 -379.3115724785 0.0000000000 0.0000000000
0.0822972955 -0.4931806516 0.0000000000 0.0000000000 0.0000000000 -368.7174026685 0.0000000000 0.0000000000
0.1026076714 -0.4893584226 0.0000000000 0.0000000000 0.0000000000 -357.9079353162 0.0000000000 0.0000000000
0.1227427439 -0.4847001329 0.0000000000 0.0000000000 0.0000000000 -347.1120308845 0.0000000000 0.0000000000
0.1426681124 -0.4792137411 0.0000000000 0.0000000000 0.0000000000 -336.5226755415 0.0000000000 0.0000000000
0.1623497349 -0.4729086207 0.0000000000 0.0000000000 0.0000000000 -326.2963268250 0.0000000000 0.0000000000
0.1817539856 -0.4657955439 0.0000000000 0.0000000000 0.0000000000 -316.5545623754 0.0000000000 0.0000000000
0.2008477126 -0.4578866632 0.0000000000 0.0000000000 0.0000000000 -307.3858360722 0.0000000000 0.0000000000
0.2195982947 -0.4491954908 0.0000000000 0.0000000000 0.0000000000 -298.8507363204 0.0000000000 0.0000000000
0.2379736968 -0.4397368754 0.0000000000 0.0000000000 0.0000000000 -290.9821726916 0.0000000000 0.0000000000
0.2559425248 -0.4295269770 0.0000000000 0.0000000000 0.0000000000 -283.7969996943 0.0000000000 0.0000000000
0.2734740794 -0.4185832389 0.0000000000 0.0000000000 0.0000000000 -277.2825952606 0.0000000000 0.0000000000
0.2905384080 -0.4069243584 0.0000000000 0.0000000000 0.0000000000 -271.4356315921 0.0000000000 0.0000000000
0.3071063566 -0.3945702545 0.0000000000 0.0000000000 0.0000000000 -266.1857397832 0.0000000000 0.0000000000
0.3231496192 -0.3815420339 0.0000000000 0.0000000000 0.0000000000 -261.5691524962 0.0000000000 0.0000000000
0.3386407861 -0.3678619551 0.0000000000 0.0000000000 0.0000000000 -257.3464147951 0.0000000000 0.0000000000
0.5497889042 -0.5101295529 0.0000000000 0.0857937081 -0.0409854135 -239.1478310276 0.0000000000 0.0000000000
0.5684787927 -0.4892155581 0.0000000000 0.0585331360 -0.0451050694 -238.3536715838 0.0000000000 0.0000000000
0.5863736122 -0.4676173510 0.0000000000 0.0360038916 -0.0493084177 -237.6564638678 0.0000000000 0.0000000000
0.6034483351 -0.4453651388 0.0000000000 0.0175578339 -0.0532940389 -237.0197783189 0.0000000000 0.0000000000
0.6196790810 -0.4224900431 0.0000000000 0.0025387438 -0.0568044978 -236.4110821345 0.0000000000 0.0000000000
0.6350431497 -0.3990240570 0.0000000000 -0.0096739889 -0.0596320859 -235.8037476079 0.0000000000 0.0000000000
0.6495190531 -0.3749999996 0.0000000000 -0.0196356115 -0.0616205368 -235.1777828284 0.0000000000 0.0000000000
0.6630865453 -0.3504514708 0.0000000000 -0.0278197755 -0.0626632266 -234.5203289342 0.0000000000 0.0000000000
0.6757266511 -0.3254128039 0.0000000000 -0.0346136539 -0.0626988520 -233.8256690065 0.0000000000 0.0000000000
0.6874216921 -0.2999190178 0.0000000000 -0.0403213964 -0.0617056140 -233.0948415803 0.0000000000 0.0000000000
0.6981553116 -0.2740057679 0.0000000000 -0.0451728481 -0.0596948280 -232.3349425621 0.0000000000 0.0000000000
0.7079124979 -0.2477092961 0.0000000000 -0.0493349008 -0.0567046600 -231.5581983973 0.0000000000 0.0000000000
0.7166796045 -0.2210663804 0.0000000000 -0.0529235207 -0.0527944390 -230.7808797672 0.0000000000 0.0000000000
0.7244443698 -0.1941142835 0.0000000000 -0.0560151760 -0.0480397757 -230.0221126748 0.0000000000 0.0000000000
0.7311959342 -0.1668907001 0.0000000000 -0.0586569622 -0.0425285497 -229.3026362998 0.0000000000 0.0000000000
0.7369248550 -0.1394337050 0.0000000000 -0.0608751390 -0.0363577206 -228.6435541868 0.0000000000 0.0000000000
0.7416231197 -0.1117816993 0.0000000000 -0.0626820523 -0.0296308544 -228.0651251424 0.0000000000 0.0000000000
0.7452841575 -0.0839733567 0.0000000000 -0.0640815644 -0.0224562355 -227.5856404109 0.0000000000 0.0000000000
0.7479028479 -0.0560475699 0.0000000000 -0.0650731698 -0.0149454305 -227.2204326407 0.0000000000 0.0000000000
0.7494755286 -0.0280433954 0.0000000000 -0.0656549792 -0.0072121840 -226.9810588352 0.0000000000 0.0000000000
0.7500000000 0.0000000003 0.0000000000 -0.0658257319 0.0006284604 -226.8746935005 0.0000000000 0.0000000000
0.7494755286 0.0280433960 0.0000000000 -0.0655859509 0.0084608987 -226.9037596236 0.0000000000 0.0000000000
0.7479028479 0.0560475705 0.0000000000 -0.0649383130 0.0161696425 -227.0658144334 0.0000000000 0.0000000000
0.7452841574 0.0839733573 0.0000000000 -0.0638872521 0.0236400006 -227.3536949628 0.0000000000 0.0000000000
0.7416231196 0.1117816999 0.0000000000 -0.0624377648 0.0307588341 -227.7559160642 0.0000000000 0.0000000000
0.7369248549 0.1394337056 0.0000000000 -0.0605933387 0.0374154607 -228.2573016577 0.0000000000 0.0000000000
0.7311959341 0.1668907007 0.0000000000 -0.0583528743 0.0435027942 -228.8398194463 0.0000000000 0.0000000000
0.7244443697 0.1941142840 0.0000000000 -0.0557064324 0.0489188197 -229.4835810039 0.0000000000 0.0000000000
0.7166796043 0.2210663810 0.0000000000 -0.0526296172 0.0535685222 -230.1679636779 0.0000000000 0.0000000000
0.7079124977 0.2477092967 0.0000000000 -0.0490764155 0.0573663929 -230.8728084784 0.0000000000 0.0000000000
0.6981553114 0.2740057685 0.0000000000 -0.0449703802 0.0602396381 -231.5796487174 0.0000000000 0.0000000000
0.6874216918 0.2999190184 0.0000000000 -0.0401942081 0.0621321893 -232.2729263505 0.0000000000 0.0000000000
0.6757266509 0.3254128045 0.0000000000 -0.0345780463 0.0630095504 -232.9411542025 0.0000000000 0.0000000000
0.6630865451 0.3504514714 0.0000000000 -0.0278873076 0.0628644095 -233.5779790712 0.0000000000 0.0000000000
0.6495190528 0.3750000001 0.0000000000 -0.0198113746 0.0617227676 -234.1830896000 0.0000000000 0.0000000000
0.6350431493 0.3990240575 0.0000000000 -0.0099552734 0.0596501136 -234.7628938729 0.0000000000 0.0000000000
0.6196790807 0.4224900437 0.0000000000 0.0021629487 0.0567569168 -235.3308710301 0.0000000000 0.0000000000
0.6034483348 0.4453651393 0.0000000000 0.0171060353 0.0532024942 -235.9074971733 0.0000000000 0.0000000000
0.5863736118 0.4676173515 0.0000000000 0.0354996118 0.0491962044 -236.5196550126 0.0000000000 0.0000000000
0.5684787923 0.4892155585 0.0000000000 0.0580007104 0.0449950444 -237.1994480759 0.0000000000 0.0000000000
0.5497889038 0.5101295534 0.0000000000 0.0852519142 0.0408972555 -237.9777830861 0.0000000000 0.0000000000
0.5079611787 0.5517929331 0.0000000000 0.1606116220 0.0341266657 -240.1501923124 0.0000000000 0.0000000000
0.4847244283 0.5723130512 0.0000000000 0.2108016932 0.0324666109 -241.6362761218 0.0000000000 0.0000000000
0.4606595344 0.5918553821 0.0000000000 0.2683345745 0.0327146805 -243.4167920901 0.0000000000 0.0000000000
0.4358076115 0.6103865380 0.0000000000 0.3327330133 0.0352740374 -245.5268426319 0.0000000000 0.0000000000
0.4102111185 0.6278748587 0.0000000000 0.4030661782 0.0404675394 -247.9877642880 0.0000000000 0.0000000000
0.3839137867 0.6442904658 0.0000000000 0.4779747997 0.0485075400 -250.8021496035 0.0000000000 0.0000000000
0.3569605447 0.6596053135 0.0000000000 0.5557458136 0.0594712337 -253.9469362933 0.0000000000 0.0000000000
0.3293974415 0.6737932365 0.0000000000 0.6344323167 0.0732878243 -257.3667191315 0.0000000000 0.0000000000
0.3012715684 0.6868299950 0.0000000000 0.7120052907 0.0897420575 -260.9695105570 0.0000000000 0.0000000000
0.2726309778 0.6986933161 0.0000000000 0.7865158947 0.1084953438 -264.6266593370 0.0000000000 0.0000000000
0.2435246018 0.7093629313 0.0000000000 0.8562438093 0.1291213952 -268.1777081120 0.0000000000 0.0000000000
0.2140021681 0.7188206119 0.0000000000 0.9198099839 0.1511498745 -271.4395978944 0.0000000000 0.0000000000
0.1841141152 0.7270501995 0.0000000000 0.9762403096 0.1741101785 -274.2183899716 0.0000000000 0.0000000000
0.1539115065 0.7340376340 0.0000000000 1.0249773746 0.1975683159 -276.3211093643 0.0000000000 0.0000000000
0.1234459426 0.7397709776 0.0000000000 1.0658472035 0.2211522947 -277.5655981015 0.0000000000 0.0000000000
0.0927694733 0.7442404348 0.0000000000 1.0989943106 0.2445644667 -277.7871539687 0.0000000000 0.0000000000
0.0619345090 0.7474383698 0.0000000000 1.1248006235 0.2675819644 -276.8417635192 0.0000000000 0.0000000000
0.0309937305 0.7493593188 0.0000000000 1.1438024346 0.2900481124 -274.6065359115 0.0000000000 0.0000000000
-0.0000000002 0.7500000000 0.0000000000 1.1566158992 0.3118583792 -270.9783411133 0.0000000000 0.0000000000
-0.0309937308 0.7493593188 0.0000000000 1.1638772161 0.3329442397 -265.8716826888 0.0000000000 0.0000000000
-0.0619345093 0.7474383697 0.0000000000 1.1661996559 0.3532575909 -259.2166221868 0.0000000000 0.0000000000
-0.0927694736 0.7442404348 0.0000000000 1.1641466524 0.3727574444 -250.9572622918 0.0000000000 0.0000000000
-0.1234459429 0.7397709775 0.0000000000 1.1582184128 0.3913997514 -241.0509968796 0.0000000000 0.0000000000
-0.1539115068 0.7340376340 0.0000000000 1.1488487672 0.4091305365 -229.4685070161 0.0000000000 0.0000000000
-0.1841141155 0.7270501994 0.0000000000 1.1364089878 0.4258820688 -216.1943407499 0.0000000000 0.0000000000
-0.2140021684 0.7188206118 0.0000000000 1.1212157482 0.4415715608 -201.2278528298 0.0000000000 0.0000000000
-0.2435246021 0.7093629312 0.0000000000 1.1035410201 0.4561018028 -184.5842773150 0.0000000000 0.0000000000
-0.2726309781 0.6986933160 0.0000000000 1.0836223425 0.4693631624 -166.2957383436 0.0000000000 0.0000000000
-0.3012715687 0.6868299949 0.0000000000 1.0616724582 0.4812364596 -146.4120525557 0.0000000000 0.0000000000
-0.3293974418 0.6737932363 0.0000000000 1.0378877509 0.4915963204 -125.0012271623 0.0000000000 0.0000000000
-0.3569605450 0.6596053133 0.0000000000 1.0124552304 0.5003147133 -102.1496024222 0.0000000000 0.0000000000
-0.3839137870 0.6442904657 0.0000000000 0.9855580246 0.5072644572 -77.9616228482 0.0000000000 0.0000000000
-0.4102111188 0.6278748586 0.0000000000 0.9573794633 0.5123225555 -52.5592472555 0.0000000000 0.0000000000
-0.4358076117 0.6103865378 0.0000000000 0.9281059064 0.5153732665 -26.0810248429 0.0000000000 0.0000000000
-0.4606595347 0.5918553819 0.0000000000 0.8979284934 0.5163108569 1.3191254122 0.0000000000 0.0000000000
-0.4847244286 0.5723130510 0.0000000000 0.8670439989 0.5150420109 29.4733898621 0.0000000000 0.0000000000
-0.5079611789 0.5517929329 0.0000000000 0.8356549601 0.5114878877 58.2017463214 0.0000000000 0.0000000000
-0.5517929332 0.5079611785 0.0000000000 0.7721990839 0.4972907284 116.6108603495 0.0000000000 0.0000000000
-0.5723130513 0.4847244282 0.0000000000 0.7405599915 0.4865760735 145.8878279259 0.0000000000 0.0000000000
-0.5918553822 0.4606595343 0.0000000000 0.7092691425 0.4734346836 174.9355133869 0.0000000000 0.0000000000
-0.6103865381 0.4358076114 0.0000000000 0.6785438041 0.4578791543 203.5427012825 0.0000000000 0.0000000000
-0.6278748588 0.4102111184 0.0000000000 0.6485995696 0.4399420331 231.4983239215 0.0000000000 0.0000000000
-0.6442904659 0.3839137866 0.0000000000 0.6196485503 0.4196757423 258.5935881663 0.0000000000 0.0000000000
-0.6596053135 0.3569605446 0.0000000000 0.5918975542 0.3971522699 284.6240505172 0.0000000000 0.0000000000
-0.6737932365 0.3293974414 0.0000000000 0.5655462853 0.3724626453 309.3916197428 0.0000000000 0.0000000000
-0.6868299951 0.3012715682 0.0000000000 0.5407855957 0.3457162202 332.7064691220 0.0000000000 0.0000000000
-0.6986933161 0.2726309777 0.0000000000 0.5177958143 0.3170397686 354.3888431474 0.0000000000 0.0000000000
-0.7093629314 0.2435246016 0.0000000000 0.4967451740 0.2865764233 374.2707460291 0.0000000000 0.0000000000
-0.7188206119 0.2140021679 0.0000000000 0.4777883521 0.2544844629 392.1975011904 0.0000000000 0.0000000000
-0.7270501995 0.1841141151 0.0000000000 0.4610651368 0.2209359617 408.0291722219 0.0000000000 0.0000000000
-0.7340376341 0.1539115064 0.0000000000 0.4466992276 0.1861153189 421.6418363663 0.0000000000 0.0000000000
-0.7397709776 0.1234459424 0.0000000000 0.4347971747 0.1502176796 432.9287021248 0.0000000000 0.0000000000
-0.7442404348 0.0927694732 0.0000000000 0.4254474599 0.1134472652 441.8010632223 0.0000000000 0.0000000000
-0.7474383698 0.0619345088 0.0000000000 0.4187197230 0.0760156304 448.1890819312 0.0000000000 0.0000000000
-0.7493593188 0.0309937304 0.0000000000 0.4146641381 0.0381398688 452.0423970518 0.0000000000 0.0000000000
-0.7500000000 -0.0000000003 0.0000000000 0.4133109521 0.0000407875 453.3305552849 0.0000000000 0.0000000000
-0.7493593188 -0.0309937310 0.0000000000 0.4146702040 -0.0380589355 452.0432703092 0.0000000000 0.0000000000
-0.7474383697 -0.0619345094 0.0000000000 0.4187316379 -0.0759365987 448.1905139326 0.0000000000 0.0000000000
-0.7442404348 -0.0927694738 0.0000000000 0.4254648163 -0.1133713284 441.8024404355 0.0000000000 0.0000000000
-0.7397709775 -0.1234459430 0.0000000000 0.4348194262 -0.1501459272 432.9291409116 0.0000000000 0.0000000000
-0.7340376339 -0.1539115070 0.0000000000 0.4467257592 -0.1860487097 421.6402201885 0.0000000000 0.0000000000
-0.7270501994 -0.1841141157 0.0000000000 0.4610953480 -0.2208753096 408.0241915455 0.0000000000 0.0000000000
-0.7188206117 -0.2140021685 0.0000000000 0.4778217432 -0.2544304346 392.1876893899 0.0000000000 0.0000000000