 TITLE = "Tecplot data"
 VARIABLES = "X", "Y", "Z" "U", "V", "p", "dispX", "dispY"
 ZONE SOLUTIONTIME=19.900000, NODES=26114 , ELEMENTS=25916, DATAPACKING=POINT, ZONETYPE=FEQUADRILATERAL
0.3535533906 0.3535533906 0.0000000000 0.0000000000 0.0000000000 -267.0219150566 0.0000000000 0.0000000000
0.3535533908 -0.3535533903 0.0000000000 0.0000000000 0.0000000000 -266.8845561258 0.0000000000 0.0000000000
-0.3535533907 0.3535533905 0.0000000000 0.0000000000 0.0000000000 -58.7839122742 0.0000000000 0.0000000000
-0.3535533904 -0.3535533908 0.0000000000 0.0000000000 0.0000000000 -58.4997992837 0.0000000000 0.0000000000
0.5303300858 0.5303300859 0.0000000000 0.1241850916 0.0368659206 -252.6448892284 0.0000000000 0.0000000000
0.5303300863 -0.5303300855 0.0000000000 0.1238372008 -0.0366637487 -252.6057310354 0.0000000000 0.0000000000
-0.5303300861 0.5303300857 0.0000000000 0.8098383162 0.5075591501 81.4777106503 0.0000000000 0.0000000000
-0.5303300856 -0.5303300862 0.0000000000 0.8097170945 -0.5074822843 81.6751243497 0.0000000000 0.0000000000
1.0606601717 1.0606601719 0.0000000000 1.1757003709 0.1124538684 -215.7622462865 0.0000000000 0.0000000000
1.0606601725 -1.0606601710 0.0000000000 1.1748011834 -0.1127167974 -215.2881232101 0.0000000000 0.0000000000
-1.0606601721 1.0606601715 0.0000000000 0.9176791696 0.1906351173 97.7580379490 0.0000000000 0.0000000000
-1.0606601712 -1.0606601723 0.0000000000 0.9176982737 -0.1905339781 97.7445574685 0.0000000000 0.0000000000
4.2000000000 3.3000000000 0.0000000000 1.0915626229 -0.0353980962 -66.0919010617 0.0000000000 0.0000000000
4.2000000000 -3.3000000000 0.0000000000 1.0913485064 0.0356115574 -66.1234172149 0.0000000000 0.0000000000
20.0000000000 4.7000000000 0.0000000000 0.9996996004 -0.0059270725 0.0013994201 0.0000000000 0.0000000000
20.0000000000 -4.7000000000 0.0000000000 0.9997116329 0.0059248731 0.0024533698 0.0000000000 0.0000000000
-10.0000000000 15.0000000000 0.0000000000 1.0000000000 0.0000000000 7.2883258977 0.0000000000 0.0000000000
20.0000000000 15.0000000000 0.0000000000 1.0023286306 0.0000000000 -0.0115402097 0.0000000000 0.0000000000
20.0000000000 -15.0000000000 0.0000000000 1.0023286739 0.0000000000 -0.0112218323 0.0000000000 0.0000000000
-10.0000000000 -15.0000000000 0.0000000000 1.0000000000 0.0000000000 7.2958016228 0.0000000000 0.0000000000
0.3665259362 -0.3400863686 0.0000000000 0.0000000000 0.0000000000 -263.7166487220 0.0000000000 0.0000000000
0.3789858618 -0.3261437054 0.0000000000 0.0000000000 0.0000000000 -261.0726189142 0.0000000000 0.0000000000
0.3909157414 -0.3117449007 0.0000000000 0.0000000000 0.0000000000 -258.5589878534 0.0000000000 0.0000000000
0.4022988901 -0.2969100925 0.0000000000 0.0000000000 0.0000000000 -256.2834817972 0.0000000000 0.0000000000
0.4131193873 -0.2816600288 0.0000000000 0.0000000000 0.0000000000 -254.1413225985 0.0000000000 0.0000000000
0.4233620998 -0.2660160380 0.0000000000 0.0000000000 0.0000000000 -252.1260332813 0.0000000000 0.0000000000
0.4330127020 -0.2499999997 0.0000000000 0.0000000000 0.0000000000 -250.1965467582 0.0000000000 0.0000000000
0.4420576969 -0.2336343139 0.0000000000 0.0000000000 0.0000000000 -248.3383946521 0.0000000000 0.0000000000
0.4504844341 -0.2169418693 0.0000000000 0.0000000000 0.0000000000 -246.5367704497 0.0000000000 0.0000000000
0.4582811280 -0.1999460119 0.0000000000 0.0000000000 0.0000000000 -244.7889451600 0.0000000000 0.0000000000
0.4654368744 -0.1826705119 0.0000000000 0.0000000000 0.0000000000 -243.0979486872 0.0000000000 0.0000000000
0.4719416652 -0.1651395307 0.0000000000 0.0000000000 0.0000000000 -241.4744208925 0.0000000000 0.0000000000
0.4777864030 -0.1473775870 0.0000000000 0.0000000000 0.0000000000 -239.9342004404 0.0000000000 0.0000000000
0.4829629132 -0.1294095223 0.0000000000 0.0000000000 0.0000000000 -238.4975818229 0.0000000000 0.0000000000
0.4874639561 -0.1112604667 0.0000000000 0.0000000000 0.0000000000 -237.1875261777 0.0000000000 0.0000000000
0.4912832367 -0.0929558033 0.0000000000 0.0000000000 0.0000000000 -236.0282216964 0.0000000000 0.0000000000
0.4944154131 -0.0745211329 0.0000000000 0.0000000000 0.0000000000 -235.0434259174 0.0000000000 0.0000000000
0.4968561050 -0.0559822378 0.0000000000 0.0000000000 0.0000000000 -234.2549779390 0.0000000000 0.0000000000
0.4986018986 -0.0373650466 0.0000000000 0.0000000000 0.0000000000 -233.6814027453 0.0000000000 0.0000000000
0.4996503524 -0.0186955969 0.0000000000 0.0000000000 0.0000000000 -233.3367599185 0.0000000000 0.0000000000
0.5000000000 0.0000000002 0.0000000000 0.0000000000 0.0000000000 -233.2297566234 0.0000000000 0.0000000000
0.4996503524 0.0186955973 0.0000000000 0.0000000000 0.0000000000 -233.3632072005 0.0000000000 0.0000000000
0.4986018986 0.0373650470 0.0000000000 0.0000000000 0.0000000000 -233.7338379279 0.0000000000 0.0000000000
0.4968561049 0.0559822382 0.0000000000 0.0000000000 0.0000000000 -234.3324978670 0.0000000000 0.0000000000
0.4944154131 0.0745211333 0.0000000000 0.0000000000 0.0000000000 -235.1446786118 0.0000000000 0.0000000000
0.4912832366 0.0929558037 0.0000000000 0.0000000000 0.0000000000 -236.1514663381 0.0000000000 0.0000000000
0.4874639561 0.1112604671 0.0000000000 0.0000000000 0.0000000000 -237.3305909538 0.0000000000 0.0000000000
0.4829629131 0.1294095227 0.0000000000 0.0000000000 0.0000000000 -238.6580285411 0.0000000000 0.0000000000
0.4777864029 0.1473775873 0.0000000000 0.0000000000 0.0000000000 -240.1091359663 0.0000000000 0.0000000000
0.4719416651 0.1651395311 0.0000000000 0.0000000000 0.0000000000 -241.6609630686 0.0000000000 0.0000000000
0.4654368743 0.1826705123 0.0000000000 0.0000000000 0.0000000000 -243.2925530806 0.0000000000 0.0000000000
0.4582811279 0.1999460123 0.0000000000 0.0000000000 0.0000000000 -244.9887736973 0.0000000000 0.0000000000
0.4504844339 0.2169418697 0.0000000000 0.0000000000 0.0000000000 -246.7375205105 0.0000000000 0.0000000000
0.4420576967 0.2336343142 0.0000000000 0.0000000000 0.0000000000 -248.5383217818 0.0000000000 0.0000000000
0.4330127018 0.2500000001 0.0000000000 0.0000000000 0.0000000000 -250.3899108906 0.0000000000 0.0000000000
0.4233620996 0.2660160383 0.0000000000 0.0000000000 0.0000000000 -252.3145483261 0.0000000000 0.0000000000
0.4131193871 0.2816600291 0.0000000000 0.0000000000 0.0000000000 -254.3157314354 0.0000000000 0.0000000000
0.4022988898 0.2969100929 0.0000000000 0.0000000000 0.0000000000 -256.4538647424 0.0000000000 0.0000000000
0.3909157412 0.3117449010 0.0000000000 0.0000000000 0.0000000000 -258.7088965861 0.0000000000 0.0000000000
0.3789858615 0.3261437057 0.0000000000 0.0000000000 0.0000000000 -261.2264613106 0.0000000000 0.0000000000
0.3665259359 0.3400863689 0.0000000000 0.0000000000 0.0000000000 -263.8592316971 0.0000000000 0.0000000000
0.3386407858 0.3678619554 0.0000000000 0.0000000000 0.0000000000 -270.6102356400 0.0000000000 0.0000000000
0.3231496189 0.3815420341 0.0000000000 0.0000000000 0.0000000000 -274.9381582784 0.0000000000 0.0000000000
0.3071063563 0.3945702547 0.0000000000 0.0000000000 0.0000000000 -279.6743225135 0.0000000000 0.0000000000
0.2905384077 0.4069243587 0.0000000000 0.0000000000 0.0000000000 -285.0813711657 0.0000000000 0.0000000000
0.2734740790 0.4185832392 0.0000000000 0.0000000000 0.0000000000 -291.0902606015 0.0000000000 0.0000000000
0.2559425245 0.4295269772 0.0000000000 0.0000000000 0.0000000000 -297.7938870604 0.0000000000 0.0000000000
0.2379736965 0.4397368756 0.0000000000 0.0000000000 0.0000000000 -305.1751985624 0.0000000000 0.0000000000
0.2195982944 0.4491954910 0.0000000000 0.0000000000 0.0000000000 -313.2552728323 0.0000000000 0.0000000000
0.2008477123 0.4578866634 0.0000000000 0.0000000000 0.0000000000 -322.0070790601 0.0000000000 0.0000000000
0.1817539852 0.4657955441 0.0000000000 0.0000000000 0.0000000000 -331.3991567583 0.0000000000 0.0000000000
0.1623497345 0.4729086209 0.0000000000 0.0000000000 0.0000000000 -341.3653726794 0.0000000000 0.0000000000
0.1426681120 0.4792137413 0.0000000000 0.0000000000 0.0000000000 -351.8155760178 0.0000000000 0.0000000000
0.1227427435 0.4847001330 0.0000000000 0.0000000000 0.0000000000 -362.6235926116 0.0000000000 0.0000000000
0.1026076710 0.4893584227 0.0000000000 0.0000000000 0.0000000000 -373.6290821683 0.0000000000 0.0000000000
0.0822972951 0.4931806517 0.0000000000 0.0000000000 0.0000000000 -384.6337141106 0.0000000000 0.0000000000
0.0618463155 0.4961602899 0.0000000000 0.0000000000 0.0000000000 -395.4031481919 0.0000000000 0.0000000000
0.0412896726 0.4982922465 0.0000000000 0.0000000000 0.0000000000 -405.6687899123 0.0000000000 0.0000000000
0.0206624870 0.4995728792 0.0000000000 0.0000000000 0.0000000000 -415.1327281797 0.0000000000 0.0000000000
-0.0000000001 0.5000000000 0.0000000000 0.0000000000 0.0000000000 -423.4738538230 0.0000000000 0.0000000000
-0.0206624872 0.4995728792 0.0000000000 0.0000000000 0.0000000000 -430.3559285847 0.0000000000 0.0000000000
-0.0412896728 0.4982922465 0.0000000000 0.0000000000 0.0000000000 -435.4366940978 0.0000000000 0.0000000000
-0.0618463157 0.4961602899 0.0000000000 0.0000000000 0.0000000000 -438.3778723294 0.0000000000 0.0000000000
-0.0822972953 0.4931806517 0.0000000000 0.0000000000 0.0000000000 -438.8554002281 0.0000000000 0.0000000000
-0.1026076712 0.4893584226 0.0000000000 0.0000000000 0.0000000000 -436.5694744576 0.0000000000 0.0000000000
-0.1227427437 0.4847001329 0.0000000000 0.0000000000 0.0000000000 -431.2538887374 0.0000000000 0.0000000000
-0.1426681122 0.4792137412 0.0000000000 0.0000000000 0.0000000000 -422.6842855747 0.0000000000 0.0000000000
-0.1623497347 0.4729086208 0.0000000000 0.0000000000 0.0000000000 -410.6850076579 0.0000000000 0.0000000000
-0.1817539854 0.4657955440 0.0000000000 0.0000000000 0.0000000000 -395.1343628985 0.0000000000 0.0000000000
-0.2008477124 0.4578866633 0.0000000000 0.0000000000 0.0000000000 -375.9682183558 0.0000000000 0.0000000000
-0.2195982945 0.4491954909 0.0000000000 0.0000000000 0.0000000000 -353.1819414224 0.0000000000 0.0000000000
-0.2379736966 0.4397368755 0.0000000000 0.0000000000 0.0000000000 -326.8307826678 0.0000000000 0.0000000000
-0.2559425247 0.4295269771 0.0000000000 0.0000000000 0.0000000000 -297.0288488951 0.0000000000 0.0000000000
-0.2734740792 0.4185832391 0.0000000000 0.0000000000 0.0000000000 -263.9468408844 0.0000000000 0.0000000000
-0.2905384078 0.4069243586 0.0000000000 0.0000000000 0.0000000000 -227.8087337796 0.0000000000 0.0000000000
-0.3071063565 0.3945702546 0.0000000000 0.0000000000 0.0000000000 -188.8875656212 0.0000000000 0.0000000000
-0.3231496190 0.3815420340 0.0000000000 0.0000000000 0.0000000000 -147.5004831976 0.0000000000 0.0000000000
-0.3386407859 0.3678619552 0.0000000000 0.0000000000 0.0000000000 -104.0031856577 0.0000000000 0.0000000000
-0.3678619554 0.3386407857 0.0000000000 0.0000000000 0.0000000000 -12.2571387873 0.0000000000 0.0000000000
-0.3815420342 0.3231496188 0.0000000000 0.0000000000 0.0000000000 35.1428356997 0.0000000000 0.0000000000
-0.3945702548 0.3071063562 0.0000000000 0.0000000000 0.0000000000 82.9682285124 0.0000000000 0.0000000000
-0.4069243587 0.2905384076 0.0000000000 0.0000000000 0.0000000000 130.7638831122 0.0000000000 0.0000000000
-0.4185832392 0.2734740789 0.0000000000 0.0000000000 0.0000000000 178.0730415207 0.0000000000 0.0000000000
-0.4295269773 0.2559425244 0.0000000000 0.0000000000 0.0000000000 224.4427303691 0.0000000000 0.0000000000
-0.4397368757 0.2379736964 0.0000000000 0.0000000000 0.0000000000 269.4287602592 0.0000000000 0.0000000000
-0.4491954910 0.2195982943 0.0000000000 0.0000000000 0.0000000000 312.6003660938 0.0000000000 0.0000000000
-0.4578866634 0.2008477122 0.0000000000 0.0000000000 0.0000000000 353.5445221254 0.0000000000 0.0000000000
-0.4657955441 0.1817539851 0.0000000000 0.0000000000 0.0000000000 391.8699564708 0.0000000000 0.0000000000
-0.4729086209 0.1623497344 0.0000000000 0.0000000000 0.0000000000 427.2108748605 0.0000000000 0.0000000000
-0.4792137413 0.1426681119 0.0000000000 0.0000000000 0.0000000000 459.2303896557 0.0000000000 0.0000000000
-0.4847001330 0.1227427434 0.0000000000 0.0000000000 0.0000000000 487.6236411653 0.0000000000 0.0000000000
-0.4893584227 0.1026076709 0.0000000000 0.0000000000 0.0000000000 512.1205944933 0.0000000000 0.0000000000
-0.4931806517 0.0822972949 0.0000000000 0.0000000000 0.0000000000 532.4884953037 0.0000000000 0.0000000000
-0.4961602899 0.0618463154 0.0000000000 0.0000000000 0.0000000000 548.5339702998 0.0000000000 0.0000000000
-0.4982922465 0.0412896725 0.0000000000 0.0000000000 0.0000000000 560.1047615052 0.0000000000 0.0000000000
-0.4995728792 0.0206624869 0.0000000000 0.0000000000 0.0000000000 567.0910866383 0.0000000000 0.0000000000
-0.5000000000 -0.0000000002 0.0000000000 0.0000000000 0.0000000000 569.4266205739 0.0000000000 0.0000000000
-0.4995728792 -0.0206624873 0.0000000000 0.0000000000 0.0000000000 567.0890949131 0.0000000000 0.0000000000
-0.4982922465 -0.0412896729 0.0000000000 0.0000000000 0.0000000000 560.1005141094 0.0000000000 0.0000000000
-0.4961602898 -0.0618463158 0.0000000000 0.0000000000 0.0000000000 548.5269875765 0.0000000000 0.0000000000
-0.4931806517 -0.0822972954 0.0000000000 0.0000000000 0.0000000000 532.4781779104 0.0000000000 0.0000000000
-0.4893584226 -0.1026076713 0.0000000000 0.0000000000 0.0000000000 512.1063659715 0.0000000000 0.0000000000
-0.4847001329 -0.1227427438 0.0000000000 0.0000000000 0.0000000000 487.6051342065 0.0000000000 0.0000000000
-0.4792137412 -0.1426681123 0.0000000000 0.0000000000 0.0000000000 459.2076703134 0.0000000000 0.0000000000
-0.4729086208 -0.1623497348 0.0000000000 0.0000000000 0.0000000000 427.1846941654 0.0000000000 0.0000000000
-0.4657955439 -0.1817539855 0.0000000000 0.0000000000 0.0000000000 391.8420117903 0.0000000000 0.0000000000
-0.4578866632 -0.2008477125 0.0000000000 0.0000000000 0.0000000000 353.5177011151 0.0000000000 0.0000000000
-0.4491954908 -0.2195982946 0.0000000000 0.0000000000 0.0000000000 312.5789351422 0.0000000000 0.0000000000
-0.4397368755 -0.2379736967 0.0000000000 0.0000000000 0.0000000000 269.4184492632 0.0000000000 0.0000000000
-0.4295269771 -0.2559425248 0.0000000000 0.0000000000 0.0000000000 224.4506606735 0.0000000000 0.0000000000
-0.4185832390 -0.2734740793 0.0000000000 0.0000000000 0.0000000000 178.1074495045 0.0000000000 0.0000000000
-0.4069243585 -0.2905384079 0.0000000000 0.0000000000 0.0000000000 130.8336135999 0.0000000000 0.0000000000
-0.3945702545 -0.3071063565 0.0000000000 0.0000000000 0.0000000000 83.0820121386 0.0000000000 0.0000000000
-0.3815420339 -0.3231496191 0.0000000000 0.0000000000 0.0000000000 35.3084178804 0.0000000000 0.0000000000
-0.3678619552 -0.3386407860 0.0000000000 0.0000000000 0.0000000000 -12.0338958888 0.0000000000 0.0000000000
-0.3386407856 -0.3678619555 0.0000000000 0.0000000000 0.0000000000 -103.6581353328 0.0000000000 0.0000000000
-0.3231496187 -0.3815420343 0.0000000000 0.0000000000 0.0000000000 -147.0976761895 0.0000000000 0.0000000000
-0.3071063561 -0.3945702549 0.0000000000 0.0000000000 0.0000000000 -188.4331305959 0.0000000000 0.0000000000
-0.2905384075 -0.4069243588 0.0000000000 0.0000000000 0.0000000000 -227.3111076962 0.0000000000 0.0000000000
-0.2734740788 -0.4185832393 0.0000000000 0.0000000000 0.0000000000 -263.4159203719 0.0000000000 0.0000000000
-0.2559425243 -0.4295269773 0.0000000000 0.0000000000 0.0000000000 -296.4750877112 0.0000000000 0.0000000000
-0.2379736963 -0.4397368757 0.0000000000 0.0000000000 0.0000000000 -326.2643725384 0.0000000000 0.0000000000
-0.2195982942 -0.4491954911 0.0000000000 0.0000000000 0.0000000000 -352.6121682624 0.0000000000 0.0000000000
-0.2008477121 -0.4578866634 0.0000000000 0.0000000000 0.0000000000 -375.4030325475 0.0000000000 0.0000000000
-0.1817539850 -0.4657955441 0.0000000000 0.0000000000 0.0000000000 -394.5801569922 0.0000000000 0.0000000000
-0.1623497343 -0.4729086209 0.0000000000 0.0000000000 0.0000000000 -410.1465660063 0.0000000000 0.0000000000
-0.1426681118 -0.4792137413 0.0000000000 0.0000000000 0.0000000000 -422.1648583226 0.0000000000 0.0000000000
-0.1227427433 -0.4847001330 0.0000000000 0.0000000000 0.0000000000 -430.7553440967 0.0000000000 0.0000000000
-0.1026076708 -0.4893584227 0.0000000000 0.0000000000 0.0000000000 -436.0924913278 0.0000000000 0.0000000000
-0.0822972948 -0.4931806518 0.0000000000 0.0000000000 0.0000000000 -438.3996762049 0.0000000000 0.0000000000
-0.0618463153 -0.4961602899 0.0000000000 0.0000000000 0.0000000000 -437.9423303910 0.0000000000 0.0000000000
-0.0412896724 -0.4982922465 0.0000000000 0.0000000000 0.0000000000 -435.0196852725 0.0000000000 0.0000000000
-0.0206624868 -0.4995728792 0.0000000000 0.0000000000 0.0000000000 -429.9554224067 0.0000000000 0.0000000000
0.0000000003 -0.5000000000 0.0000000000 0.0000000000 0.0000000000 -423.0876315452 0.0000000000 0.0000000000
0.0206624874 -0.4995728792 0.0000000000 0.0000000000 0.0000000000 -414.7585531602 0.0000000000 0.0000000000
0.0412896730 -0.4982922465 0.0000000000 0.0000000000 0.0000000000 -405.3046051207 0.0000000000 0.0000000000
0.0618463159 -0.4961602898 0.0000000000 0.0000000000 0.0000000000 -395.0472054117 0.0000000000 0.0000000000
0.0822972955 -0.4931806516 0.0000000000 0.0000000000 0.0000000000 -384.2848097341 0.0000000000 0.0000000000
0.1026076714 -0.4893584226 0.0000000000 0.0000000000 0.0000000000 -373.2865763370 0.0000000000 0.0000000000
0.1227427439 -0.4847001329 0.0000000000 0.0000000000 0.0000000000 -362.2877959651 0.0000000000 0.0000000000
0.1426681124 -0.4792137411 0.0000000000 0.0000000000 0.0000000000 -351.4874173548 0.0000000000 0.0000000000
0.1623497349 -0.4729086207 0.0000000000 0.0000000000 0.0000000000 -341.0472104326 0.0000000000 0.0000000000
0.1817539856 -0.4657955439 0.0000000000 0.0000000000 0.0000000000 -331.0932776252 0.0000000000 0.0000000000
0.2008477126 -0.4578866632 0.0000000000 0.0000000000 0.0000000000 -321.7177736496 0.0000000000 0.0000000000
0.2195982947 -0.4491954908 0.0000000000 0.0000000000 0.0000000000 -312.9841499188 0.0000000000 0.0000000000
0.2379736968 -0.4397368754 0.0000000000 0.0000000000 0.0000000000 -304.9275207187 0.0000000000 0.0000000000
0.2559425248 -0.4295269770 0.0000000000 0.0000000000 0.0000000000 -297.5662655837 0.0000000000 0.0000000000
0.2734740794 -0.4185832389 0.0000000000 0.0000000000 0.0000000000 -290.8891298746 0.0000000000 0.0000000000
0.2905384080 -0.4069243584 0.0000000000 0.0000000000 0.0000000000 -284.8933743486 0.0000000000 0.0000000000
0.3071063566 -0.3945702545 0.0000000000 0.0000000000 0.0000000000 -279.5100990553 0.0000000000 0.0000000000
0.3231496192 -0.3815420339 0.0000000000 0.0000000000 0.0000000000 -274.7745978995 0.0000000000 0.0000000000
0.3386407861 -0.3678619551 0.0000000000 0.0000000000 0.0000000000 -270.4505328613 0.0000000000 0.0000000000
0.5497889042 -0.5101295529 0.0000000000 0.0902213346 -0.0404940736 -251.6982853512 0.0000000000 0.0000000000
0.5684787927 -0.4892155581 0.0000000000 0.0620579933 -0.0447783540 -250.8845202744 0.0000000000 0.0000000000
0.5863736122 -0.4676173510 0.0000000000 0.0387742193 -0.0491693666 -250.1774590848 0.0000000000 0.0000000000
0.6034483351 -0.4453651388 0.0000000000 0.0197112622 -0.0533589925 -249.5399940050 0.0000000000 0.0000000000
0.6196790810 -0.4224900431 0.0000000000 0.0041944152 -0.0570817305 -248.9385165962 0.0000000000 0.0000000000
0.6350431497 -0.3990240570 0.0000000000 -0.0084199824 -0.0601210509 -248.3450535114 0.0000000000 0.0000000000
0.6495190531 -0.3749999996 0.0000000000 -0.0187115494 -0.0623117748 -247.7381161263 0.0000000000 0.0000000000
0.6630865453 -0.3504514708 0.0000000000 -0.0271769046 -0.0635388656 -247.1033355428 0.0000000000 0.0000000000
0.6757266511 -0.3254128039 0.0000000000 -0.0342228254 -0.0637335588 -246.4335997502 0.0000000000 0.0000000000
0.6874216921 -0.2999190178 0.0000000000 -0.0401685611 -0.0628678399 -245.7287757775 0.0000000000 0.0000000000
0.6981553116 -0.2740057679 0.0000000000 -0.0452541323 -0.0609482118 -244.9950951157 0.0000000000 0.0000000000
0.7079124979 -0.2477092961 0.0000000000 -0.0496518239 -0.0580094865 -244.2442822741 0.0000000000 0.0000000000
0.7166796045 -0.2210663804 0.0000000000 -0.0534787344 -0.0541090902 -243.4924931602 0.0000000000 0.0000000000
0.7244443698 -0.1941142835 0.0000000000 -0.0568089540 -0.0493221401 -242.7591177683 0.0000000000 0.0000000000
0.7311959342 -0.1668907001 0.0000000000 -0.0596845480 -0.0437373710 -242.0654953850 0.0000000000 0.0000000000
0.7369248550 -0.1394337050 0.0000000000 -0.0621249785 -0.0374538719 -241.4335902189 0.0000000000 0.0000000000
0.7416231197 -0.1117816993 0.0000000000 -0.0641348812 -0.0305785236 -240.8846786369 0.0000000000 0.0000000000
0.7452841575 -0.0839733567 0.0000000000 -0.0657102821 -0.0232239998 -240.4381030857 0.0000000000 0.0000000000
0.7479028479 -0.0560475699 0.0000000000 -0.0668434016 -0.0155071948 -240.1101498495 0.0000000000 0.0000000000
0.7494755286 -0.0280433954 0.0000000000 -0.0675262086 -0.0075479537 -239.9131063518 0.0000000000 0.0000000000
0.7500000000 0.0000000003 0.0000000000 -0.0677528616 0.0005319968 -239.8545478673 0.0000000000 0.0000000000
0.7494755286 0.0280433960 0.0000000000 -0.0675211435 0.0086099974 -239.9368931852 0.0000000000 0.0000000000
0.7479028479 0.0560475705 0.0000000000 -0.0668329492 0.0165633511 -240.1572546664 0.0000000000 0.0000000000
0.7452841574 0.0839733573 0.0000000000 -0.0656938489 0.0242702190 -240.5075916286 0.0000000000 0.0000000000
0.7416231196 0.1117816999 0.0000000000 -0.0641117033 0.0316105754 -240.9751586113 0.0000000000 0.0000000000
0.7369248549 0.1394337056 0.0000000000 -0.0620942629 0.0384672867 -241.5432235272 0.0000000000 0.0000000000
0.7311959341 0.1668907007 0.0000000000 -0.0596456435 0.0447273983 -242.1920165317 0.0000000000 0.0000000000
0.7244443697 0.1941142840 0.0000000000 -0.0567615295 0.0502837299 -242.8998600262 0.0000000000 0.0000000000
0.7166796043 0.2210663810 0.0000000000 -0.0534229328 0.0550369045 -243.6444243808 0.0000000000 0.0000000000
0.7079124977 0.2477092967 0.0000000000 -0.0495883484 0.0588979499 -244.4040528992 0.0000000000 0.0000000000
0.6981553114 0.2740057685 0.0000000000 -0.0451842110 0.0617916094 -245.1591024683 0.0000000000 0.0000000000
0.6874216918 0.2999190184 0.0000000000 -0.0400937309 0.0636604755 -245.8932512615 0.0000000000 0.0000000000
0.6757266509 0.3254128045 0.0000000000 -0.0341444849 0.0644699892 -246.5947284433 0.0000000000 0.0000000000
0.6630865451 0.3504514714 0.0000000000 -0.0270956182 0.0642142277 -247.2574187696 0.0000000000 0.0000000000
0.6495190528 0.3750000001 0.0000000000 -0.0186261536 0.0629222130 -247.8817833254 0.0000000000 0.0000000000
0.6350431493 0.3990240575 0.0000000000 -0.0083266519 0.0606642269 -248.4755166932 0.0000000000 0.0000000000
0.6196790807 0.4224900437 0.0000000000 0.0043028502 0.0575573482 -249.0538381587 0.0000000000 0.0000000000
0.6034483348 0.4453651393 0.0000000000 0.0198453436 0.0537691991 -249.6393112169 0.0000000000 0.0000000000
0.5863736118 0.4676173515 0.0000000000 0.0389467954 0.0495188004 -250.2611006344 0.0000000000 0.0000000000
0.5684787923 0.4892155585 0.0000000000 0.0622817804 0.0450735951 -250.9536023381 0.0000000000 0.0000000000
0.5497889038 0.5101295534 0.0000000000 0.0905042830 0.0407422924 -251.7497597460 0.0000000000 0.0000000000
0.5079611787 0.5517929331 0.0000000000 0.1683526297 0.0335554552 -253.9844675537 0.0000000000 0.0000000000
0.4847244283 0.5723130512 0.0000000000 0.2200465363 0.0317361535 -255.5176354246 0.0000000000 0.0000000000
0.4606595344 0.5918553821 0.0000000000 0.2791573577 0.0318724647 -257.3552347834 0.0000000000 0.0000000000
0.4358076115 0.6103865380 0.0000000000 0.3451407348 0.0343674364 -259.5311766374 0.0000000000 0.0000000000
0.4102111185 0.6278748587 0.0000000000 0.4169896101 0.0395398315 -262.0644276252 0.0000000000 0.0000000000
0.3839137867 0.6442904658 0.0000000000 0.4932676507 0.0475942159 -264.9538791492 0.0000000000 0.0000000000
0.3569605447 0.6596053135 0.0000000000 0.5721929249 0.0585971638 -268.1714173519 0.0000000000 0.0000000000
0.3293974415 0.6737932365 0.0000000000 0.6517661601 0.0724658901 -271.6554482245 0.0000000000 0.0000000000
0.3012715684 0.6868299950 0.0000000000 0.7299284660 0.0889736310 -275.3071631384 0.0000000000 0.0000000000
0.2726309778 0.6986933161 0.0000000000 0.8047261393 0.1077725858 -278.9912011497 0.0000000000 0.0000000000
0.2435246018 0.7093629313 0.0000000000 0.8744576324 0.1284309014 -282.5413241532 0.0000000000 0.0000000000
0.2140021681 0.7188206119 0.0000000000 0.9377815708 0.1504768961 -285.7702912804 0.0000000000 0.0000000000
0.1841141152 0.7270501995 0.0000000000 0.9937735956 0.1734425716 -288.4819220052 0.0000000000 0.0000000000
0.1539115065 0.7340376340 0.0000000000 1.0419307359 0.1968995378 -290.4828908489 0.0000000000 0.0000000000
0.1234459426 0.7397709776 0.0000000000 1.0821315967 0.2204830661 -291.5922122282 0.0000000000 0.0000000000
0.0927694733 0.7442404348 0.0000000000 1.1145665993 0.2439030576 -291.6473415593 0.0000000000 0.0000000000
0.0619345090 0.7474383698 0.0000000000 1.1396541566 0.2669433275 -290.5068603226 0.0000000000 0.0000000000
0.0309937305 0.7493593188 0.0000000000 1.1579567870 0.2894522382 -288.0504670781 0.0000000000 0.0000000000
-0.0000000002 0.7500000000 0.0000000000 1.1701072302 0.3113282796 -284.1773318540 0.0000000000 0.0000000000
-0.0309937308 0.7493593188 0.0000000000 1.1767501471 0.3325039089 -278.8038447918 0.0000000000 0.0000000000
-0.0619345093 0.7474383697 0.0000000000 1.1785010597 0.3529301950 -271.8615436066 0.0000000000 0.0000000000
-0.0927694736 0.7442404348 0.0000000000 1.1759213628 0.3725638810 -263.2956816817 0.0000000000 0.0000000000
-0.1234459429 0.7397709775 0.0000000000 1.1695066194 0.3913576276 -253.0646013829 0.0000000000 0.0000000000
-0.1539115068 0.7340376340 0.0000000000 1.1596847507 0.4092535481 -241.1398577544 0.0000000000 0.0000000000
-0.1841141155 0.7270501994 0.0000000000 1.1468208272 0.4261797239 -227.5069086571 0.0000000000 0.0000000000
-0.2140021684 0.7188206118 0.0000000000 1.1312256696 0.4420491731 -212.1661366840 0.0000000000 0.0000000000
-0.2435246021 0.7093629312 0.0000000000 1.1131661185 0.4567606801 -195.1339732983 0.0000000000 0.0000000000
-0.2726309781 0.6986933160 0.0000000000 1.0928754774 0.4702009245 -176.4439331726 0.0000000000 0.0000000000
-0.3012715687 0.6868299949 0.0000000000 1.0705631876 0.4822474303 -156.1474175790 0.0000000000 0.0000000000
-0.3293974418 0.6737932363 0.0000000000 1.0464232166 0.4927719542 -134.3141969397 0.0000000000 0.0000000000
-0.3569605450 0.6596053133 0.0000000000 1.0206409489 0.5016440275 -111.0325270420 0.0000000000 0.0000000000
-0.3839137870 0.6442904657 0.0000000000 0.9933985621 0.5087344497 -86.4088880392 0.0000000000 0.0000000000
-0.4102111188 0.6278748586 0.0000000000 0.9648789921 0.5139185975 -60.5673600320 0.0000000000 0.0000000000
-0.4358076117 0.6103865378 0.0000000000 0.9352686480 0.5170794639 -33.6486650469 0.0000000000 0.0000000000
-0.4606595347 0.5918553819 0.0000000000 0.9047590619 0.5181103773 -5.8089144265 0.0000000000 0.0000000000
-0.4847244286 0.5723130510 0.0000000000 0.8735476576 0.5169173773 22.7818951529 0.0000000000 0.0000000000
-0.5079611789 0.5517929329 0.0000000000 0.8418378055 0.5134212389 51.9415930314 0.0000000000 0.0000000000
-0.5517929332 0.5079611785 0.0000000000 0.7777624998 0.4992860527 111.1894823208 0.0000000000 0.0000000000
-0.5723130513 0.4847244282 0.0000000000 0.7458268991 0.4885756606 140.8699337283 0.0000000000 0.0000000000
-0.5918553822 0.4606595343 0.0000000000 0.7142497860 0.4754211736 170.3080244020 0.0000000000 0.0000000000
-0.6103865381 0.4358076114 0.0000000000 0.6832494957 0.4598357023 199.2908133578 0.0000000000 0.0000000000
-0.6278748588 0.4102111184 0.0000000000 0.6530426579 0.4418524260 227.6056198358 0.0000000000 0.0000000000
-0.6442904659 0.3839137866 0.0000000000 0.6238423756 0.4215244996 255.0421535713 0.0000000000 0.0000000000
-0.6596053135 0.3569605446 0.0000000000 0.5958563935 0.3989247303 281.3945915497 0.0000000000 0.0000000000
-0.6737932365 0.3293974414 0.0000000000 0.5692852906 0.3741450417 306.4635808179 0.0000000000 0.0000000000
-0.6868299951 0.3012715682 0.0000000000 0.5443207278 0.3472957429 330.0581497300 0.0000000000 0.0000000000
-0.6986933161 0.2726309777 0.0000000000 0.5211437728 0.3185046202 351.9975127687 0.0000000000 0.0000000000
-0.7093629314 0.2435246016 0.0000000000 0.4999233257 0.2879158647 372.1127565559 0.0000000000 0.0000000000
-0.7188206119 0.2140021679 0.0000000000 0.4808146586 0.2556888518 390.2483964949 0.0000000000 0.0000000000
-0.7270501995 0.1841141151 0.0000000000 0.4639580817 0.2219967853 406.2637947186 0.0000000000 0.0000000000
-0.7340376341 0.1539115064 0.0000000000 0.4494777440 0.1870252205 420.0344305924 0.0000000000 0.0000000000
-0.7397709776 0.1234459424 0.0000000000 0.4374805732 0.1509704800 431.4530154900 0.0000000000 0.0000000000
-0.7442404348 0.0927694732 0.0000000000 0.4280553574 0.1140379789 440.4304441597 0.0000000000 0.0000000000
-0.7474383698 0.0619345088 0.0000000000 0.4212719712 0.0764404782 446.8965757203 0.0000000000 0.0000000000
-0.7493593188 0.0309937304 0.0000000000 0.4171807526 0.0383962860 450.8008396217 0.0000000000 0.0000000000
-0.7500000000 -0.0000000003 0.0000000000 0.4158120409 0.0001274279 452.1126653827 0.0000000000 0.0000000000
-0.7493593188 -0.0309937310 0.0000000000 0.4171758957 -0.0381421976 450.8217405844 0.0000000000 0.0000000000
-0.7474383697 -0.0619345094 0.0000000000 0.4212620104 -0.0761886710 446.9381016176 0.0000000000 0.0000000000
-0.7442404348 -0.0927694738 0.0000000000 0.4280398253 -0.1137899049 440.4920583520 0.0000000000 0.0000000000
-0.7397709775 -0.1234459430 0.0000000000 0.4374588344 -0.1507274962 431.5339494729 0.0000000000 0.0000000000
-0.7340376339 -0.1539115070 0.0000000000 0.4494490659 -0.1867885656 420.1337208949 0.0000000000 0.0000000000
-0.7270501994 -0.1841141157 0.0000000000 0.4639217191 -0.2217675687 406.3803223048 0.0000000000 0.0000000000
-0.7188206117 -0.2140021685 0.0000000000 0.4807699409 -0.2554680553 390.3809218884 0.0000000000 0.0000000000