 TITLE = "Tecplot data"
 VARIABLES = "X", "Y", "Z" "U", "V", "p", "dispX", "dispY"
 ZONE SOLUTIONTIME=149.900000, NODES=26114 , ELEMENTS=25916, DATAPACKING=POINT, ZONETYPE=FEQUADRILATERAL
0.3535533906 0.3535533906 0.0000000000 0.0000000000 0.0000000000 -388.6812163439 0.0000000000 0.0000000000
0.3535533908 -0.3535533903 0.0000000000 0.0000000000 0.0000000000 -379.3288902552 0.0000000000 0.0000000000
-0.3535533907 0.3535533905 0.0000000000 0.0000000000 0.0000000000 -144.3977459514 0.0000000000 0.0000000000
-0.3535533904 -0.3535533908 0.0000000000 0.0000000000 0.0000000000 -83.8362273572 0.0000000000 0.0000000000
0.5303300858 0.5303300859 0.0000000000 0.2128686105 0.0395874362 -362.3419484350 0.0000000000 0.0000000000
0.5303300863 -0.5303300855 0.0000000000 0.2102513399 0.0224309945 -366.1148712128 0.0000000000 0.0000000000
-0.5303300861 0.5303300857 0.0000000000 0.8684549308 0.5349358190 29.7273010568 0.0000000000 0.0000000000
-0.5303300856 -0.5303300862 0.0000000000 0.8310188438 -0.5004212191 63.3771747168 0.0000000000 0.0000000000
1.0606601717 1.0606601719 0.0000000000 1.3075765985 -0.0615581956 -306.7353490091 0.0000000000 0.0000000000
1.0606601725 -1.0606601710 0.0000000000 1.1569633139 -0.0380338421 -169.1678213692 0.0000000000 0.0000000000
-1.0606601721 1.0606601715 0.0000000000 0.9533163780 0.1854685206 73.4683082933 0.0000000000 0.0000000000
-1.0606601712 -1.0606601723 0.0000000000 0.9330076185 -0.1730145759 86.7677123181 0.0000000000 0.0000000000
4.2000000000 3.3000000000 0.0000000000 1.0561051475 0.0001025815 1.0246253909 0.0000000000 0.0000000000
4.2000000000 -3.3000000000 0.0000000000 1.0214297250 0.0375951096 -3.6932844209 0.0000000000 0.0000000000
20.0000000000 4.7000000000 0.0000000000 1.0336911382 0.0291298630 0.5055161836 0.0000000000 0.0000000000
20.0000000000 -4.7000000000 0.0000000000 1.0353294951 -0.0089236626 -0.2793969254 0.0000000000 0.0000000000
-10.0000000000 15.0000000000 0.0000000000 1.0000000000 0.0000000000 19.3050929876 0.0000000000 0.0000000000
20.0000000000 15.0000000000 0.0000000000 1.0214874747 0.0000000000 0.0214401360 0.0000000000 0.0000000000
20.0000000000 -15.0000000000 0.0000000000 1.0214922143 0.0000000000 0.0233764067 0.0000000000 0.0000000000
-10.0000000000 -15.0000000000 0.0000000000 1.0000000000 0.0000000000 22.2627758867 0.0000000000 0.0000000000
0.3665259362 -0.3400863686 0.0000000000 0.0000000000 0.0000000000 -374.7435159514 0.0000000000 0.0000000000
0.3789858618 -0.3261437054 0.0000000000 0.0000000000 0.0000000000 -370.0273912115 0.0000000000 0.0000000000
0.3909157414 -0.3117449007 0.0000000000 0.0000000000 0.0000000000 -365.4769174268 0.0000000000 0.0000000000
0.4022988901 -0.2969100925 0.0000000000 0.0000000000 0.0000000000 -360.9487863094 0.0000000000 0.0000000000
0.4131193873 -0.2816600288 0.0000000000 0.0000000000 0.0000000000 -356.5774772880 0.0000000000 0.0000000000
0.4233620998 -0.2660160380 0.0000000000 0.0000000000 0.0000000000 -352.3830802730 0.0000000000 0.0000000000
0.4330127020 -0.2499999997 0.0000000000 0.0000000000 0.0000000000 -348.4655388561 0.0000000000 0.0000000000
0.4420576969 -0.2336343139 0.0000000000 0.0000000000 0.0000000000 -344.9023905538 0.0000000000 0.0000000000
0.4504844341 -0.2169418693 0.0000000000 0.0000000000 0.0000000000 -341.7880672614 0.0000000000 0.0000000000
0.4582811280 -0.1999460119 0.0000000000 0.0000000000 0.0000000000 -339.2055248921 0.0000000000 0.0000000000
0.4654368744 -0.1826705119 0.0000000000 0.0000000000 0.0000000000 -337.2302307804 0.0000000000 0.0000000000
0.4719416652 -0.1651395307 0.0000000000 0.0000000000 0.0000000000 -335.9199634694 0.0000000000 0.0000000000
0.4777864030 -0.1473775870 0.0000000000 0.0000000000 0.0000000000 -335.3128506674 0.0000000000 0.0000000000
0.4829629132 -0.1294095223 0.0000000000 0.0000000000 0.0000000000 -335.4233238661 0.0000000000 0.0000000000
0.4874639561 -0.1112604667 0.0000000000 0.0000000000 0.0000000000 -336.2410671872 0.0000000000 0.0000000000
0.4912832367 -0.0929558033 0.0000000000 0.0000000000 0.0000000000 -337.7305777045 0.0000000000 0.0000000000
0.4944154131 -0.0745211329 0.0000000000 0.0000000000 0.0000000000 -339.8324586247 0.0000000000 0.0000000000
0.4968561050 -0.0559822378 0.0000000000 0.0000000000 0.0000000000 -342.4658001223 0.0000000000 0.0000000000
0.4986018986 -0.0373650466 0.0000000000 0.0000000000 0.0000000000 -345.5317990538 0.0000000000 0.0000000000
0.4996503524 -0.0186955969 0.0000000000 0.0000000000 0.0000000000 -348.9183059215 0.0000000000 0.0000000000
0.5000000000 0.0000000002 0.0000000000 0.0000000000 0.0000000000 -352.5051263297 0.0000000000 0.0000000000
0.4996503524 0.0186955973 0.0000000000 0.0000000000 0.0000000000 -356.1697598203 0.0000000000 0.0000000000
0.4986018986 0.0373650470 0.0000000000 0.0000000000 0.0000000000 -359.7932262253 0.0000000000 0.0000000000
0.4968561049 0.0559822382 0.0000000000 0.0000000000 0.0000000000 -363.2656464433 0.0000000000 0.0000000000
0.4944154131 0.0745211333 0.0000000000 0.0000000000 0.0000000000 -366.4911397513 0.0000000000 0.0000000000
0.4912832366 0.0929558037 0.0000000000 0.0000000000 0.0000000000 -369.3918869818 0.0000000000 0.0000000000
0.4874639561 0.1112604671 0.0000000000 0.0000000000 0.0000000000 -371.9108660110 0.0000000000 0.0000000000
0.4829629131 0.1294095227 0.0000000000 0.0000000000 0.0000000000 -374.0137170142 0.0000000000 0.0000000000
0.4777864029 0.1473775873 0.0000000000 0.0000000000 0.0000000000 -375.6888510270 0.0000000000 0.0000000000
0.4719416651 0.1651395311 0.0000000000 0.0000000000 0.0000000000 -376.9477938708 0.0000000000 0.0000000000
0.4654368743 0.1826705123 0.0000000000 0.0000000000 0.0000000000 -377.8229001491 0.0000000000 0.0000000000
0.4582811279 0.1999460123 0.0000000000 0.0000000000 0.0000000000 -378.3685671424 0.0000000000 0.0000000000
0.4504844339 0.2169418697 0.0000000000 0.0000000000 0.0000000000 -378.6558035995 0.0000000000 0.0000000000
0.4420576967 0.2336343142 0.0000000000 0.0000000000 0.0000000000 -378.7788682612 0.0000000000 0.0000000000
0.4330127018 0.2500000001 0.0000000000 0.0000000000 0.0000000000 -378.8402279630 0.0000000000 0.0000000000
0.4233620996 0.2660160383 0.0000000000 0.0000000000 0.0000000000 -378.9731430969 0.0000000000 0.0000000000
0.4131193871 0.2816600291 0.0000000000 0.0000000000 0.0000000000 -379.2940388219 0.0000000000 0.0000000000
0.4022988898 0.2969100929 0.0000000000 0.0000000000 0.0000000000 -379.9758181507 0.0000000000 0.0000000000
0.3909157412 0.3117449010 0.0000000000 0.0000000000 0.0000000000 -381.0976245468 0.0000000000 0.0000000000
0.3789858615 0.3261437057 0.0000000000 0.0000000000 0.0000000000 -382.8943544676 0.0000000000 0.0000000000
0.3665259359 0.3400863689 0.0000000000 0.0000000000 0.0000000000 -385.2666860018 0.0000000000 0.0000000000
0.3386407858 0.3678619554 0.0000000000 0.0000000000 0.0000000000 -393.0789960131 0.0000000000 0.0000000000
0.3231496189 0.3815420341 0.0000000000 0.0000000000 0.0000000000 -398.8288481237 0.0000000000 0.0000000000
0.3071063563 0.3945702547 0.0000000000 0.0000000000 0.0000000000 -405.4375029205 0.0000000000 0.0000000000
0.2905384077 0.4069243587 0.0000000000 0.0000000000 0.0000000000 -413.1282106318 0.0000000000 0.0000000000
0.2734740790 0.4185832392 0.0000000000 0.0000000000 0.0000000000 -421.7163937142 0.0000000000 0.0000000000
0.2559425245 0.4295269772 0.0000000000 0.0000000000 0.0000000000 -431.2361990281 0.0000000000 0.0000000000
0.2379736965 0.4397368756 0.0000000000 0.0000000000 0.0000000000 -441.6020641819 0.0000000000 0.0000000000
0.2195982944 0.4491954910 0.0000000000 0.0000000000 0.0000000000 -452.7944481666 0.0000000000 0.0000000000
0.2008477123 0.4578866634 0.0000000000 0.0000000000 0.0000000000 -464.7445377689 0.0000000000 0.0000000000
0.1817539852 0.4657955441 0.0000000000 0.0000000000 0.0000000000 -477.3836572508 0.0000000000 0.0000000000
0.1623497345 0.4729086209 0.0000000000 0.0000000000 0.0000000000 -490.6001051970 0.0000000000 0.0000000000
0.1426681120 0.4792137413 0.0000000000 0.0000000000 0.0000000000 -504.2509164337 0.0000000000 0.0000000000
0.1227427435 0.4847001330 0.0000000000 0.0000000000 0.0000000000 -518.1472983635 0.0000000000 0.0000000000
0.1026076710 0.4893584227 0.0000000000 0.0000000000 0.0000000000 -532.0594552463 0.0000000000 0.0000000000
0.0822972951 0.4931806517 0.0000000000 0.0000000000 0.0000000000 -545.7148867775 0.0000000000 0.0000000000
0.0618463155 0.4961602899 0.0000000000 0.0000000000 0.0000000000 -558.8040245236 0.0000000000 0.0000000000
0.0412896726 0.4982922465 0.0000000000 0.0000000000 0.0000000000 -570.9850926880 0.0000000000 0.0000000000
0.0206624870 0.4995728792 0.0000000000 0.0000000000 0.0000000000 -581.8922973839 0.0000000000 0.0000000000
-0.0000000001 0.5000000000 0.0000000000 0.0000000000 0.0000000000 -591.1446959726 0.0000000000 0.0000000000
-0.0206624872 0.4995728792 0.0000000000 0.0000000000 0.0000000000 -598.3566535294 0.0000000000 0.0000000000
-0.0412896728 0.4982922465 0.0000000000 0.0000000000 0.0000000000 -603.1487124478 0.0000000000 0.0000000000
-0.0618463157 0.4961602899 0.0000000000 0.0000000000 0.0000000000 -605.1587172102 0.0000000000 0.0000000000
-0.0822972953 0.4931806517 0.0000000000 0.0000000000 0.0000000000 -604.0524637210 0.0000000000 0.0000000000
-0.1026076712 0.4893584226 0.0000000000 0.0000000000 0.0000000000 -599.5334961235 0.0000000000 0.0000000000
-0.1227427437 0.4847001329 0.0000000000 0.0000000000 0.0000000000 -591.3516019780 0.0000000000 0.0000000000
-0.1426681122 0.4792137412 0.0000000000 0.0000000000 0.0000000000 -579.3097510312 0.0000000000 0.0000000000
-0.1623497347 0.4729086208 0.0000000000 0.0000000000 0.0000000000 -563.2692992598 0.0000000000 0.0000000000
-0.1817539854 0.4657955440 0.0000000000 0.0000000000 0.0000000000 -543.1534168250 0.0000000000 0.0000000000
-0.2008477124 0.4578866633 0.0000000000 0.0000000000 0.0000000000 -518.9487874863 0.0000000000 0.0000000000
-0.2195982945 0.4491954909 0.0000000000 0.0000000000 0.0000000000 -490.7057106493 0.0000000000 0.0000000000
-0.2379736966 0.4397368755 0.0000000000 0.0000000000 0.0000000000 -458.5367863773 0.0000000000 0.0000000000
-0.2559425247 0.4295269771 0.0000000000 0.0000000000 0.0000000000 -422.6143899037 0.0000000000 0.0000000000
-0.2734740792 0.4185832391 0.0000000000 0.0000000000 0.0000000000 -383.1671412160 0.0000000000 0.0000000000
-0.2905384078 0.4069243586 0.0000000000 0.0000000000 0.0000000000 -340.4755558122 0.0000000000 0.0000000000
-0.3071063565 0.3945702546 0.0000000000 0.0000000000 0.0000000000 -294.8670325018 0.0000000000 0.0000000000
-0.3231496190 0.3815420340 0.0000000000 0.0000000000 0.0000000000 -246.7103060932 0.0000000000 0.0000000000
-0.3386407859 0.3678619552 0.0000000000 0.0000000000 0.0000000000 -196.4094783525 0.0000000000 0.0000000000
-0.3678619554 0.3386407857 0.0000000000 0.0000000000 0.0000000000 -91.1309648584 0.0000000000 0.0000000000
-0.3815420342 0.3231496188 0.0000000000 0.0000000000 0.0000000000 -37.0812119613 0.0000000000 0.0000000000
-0.3945702548 0.3071063562 0.0000000000 0.0000000000 0.0000000000 17.2694915709 0.0000000000 0.0000000000
-0.4069243587 0.2905384076 0.0000000000 0.0000000000 0.0000000000 71.4351554584 0.0000000000 0.0000000000
-0.4185832392 0.2734740789 0.0000000000 0.0000000000 0.0000000000 124.9314039911 0.0000000000 0.0000000000
-0.4295269773 0.2559425244 0.0000000000 0.0000000000 0.0000000000 177.2806365337 0.0000000000 0.0000000000
-0.4397368757 0.2379736964 0.0000000000 0.0000000000 0.0000000000 228.0167811871 0.0000000000 0.0000000000
-0.4491954910 0.2195982943 0.0000000000 0.0000000000 0.0000000000 276.6896837230 0.0000000000 0.0000000000
-0.4578866634 0.2008477122 0.0000000000 0.0000000000 0.0000000000 322.8691767455 0.0000000000 0.0000000000
-0.4657955441 0.1817539851 0.0000000000 0.0000000000 0.0000000000 366.1488614783 0.0000000000 0.0000000000
-0.4729086209 0.1623497344 0.0000000000 0.0000000000 0.0000000000 406.1496164389 0.0000000000 0.0000000000
-0.4792137413 0.1426681119 0.0000000000 0.0000000000 0.0000000000 442.5228311444 0.0000000000 0.0000000000
-0.4847001330 0.1227427434 0.0000000000 0.0000000000 0.0000000000 474.9533524691 0.0000000000 0.0000000000
-0.4893584227 0.1026076709 0.0000000000 0.0000000000 0.0000000000 503.1621266347 0.0000000000 0.0000000000
-0.4931806517 0.0822972949 0.0000000000 0.0000000000 0.0000000000 526.9085196201 0.0000000000 0.0000000000
-0.4961602899 0.0618463154 0.0000000000 0.0000000000 0.0000000000 545.9923010989 0.0000000000 0.0000000000
-0.4982922465 0.0412896725 0.0000000000 0.0000000000 0.0000000000 560.2552803391 0.0000000000 0.0000000000
-0.4995728792 0.0206624869 0.0000000000 0.0000000000 0.0000000000 569.5825857763 0.0000000000 0.0000000000
-0.5000000000 -0.0000000002 0.0000000000 0.0000000000 0.0000000000 573.9035827396 0.0000000000 0.0000000000
-0.4995728792 -0.0206624873 0.0000000000 0.0000000000 0.0000000000 573.1924258904 0.0000000000 0.0000000000
-0.4982922465 -0.0412896729 0.0000000000 0.0000000000 0.0000000000 567.4682444274 0.0000000000 0.0000000000
-0.4961602898 -0.0618463158 0.0000000000 0.0000000000 0.0000000000 556.7949591690 0.0000000000 0.0000000000
-0.4931806517 -0.0822972954 0.0000000000 0.0000000000 0.0000000000 541.2807314540 0.0000000000 0.0000000000
-0.4893584226 -0.1026076713 0.0000000000 0.0000000000 0.0000000000 521.0770445714 0.0000000000 0.0000000000
-0.4847001329 -0.1227427438 0.0000000000 0.0000000000 0.0000000000 496.3774192459 0.0000000000 0.0000000000
-0.4792137412 -0.1426681123 0.0000000000 0.0000000000 0.0000000000 467.4157656071 0.0000000000 0.0000000000
-0.4729086208 -0.1623497348 0.0000000000 0.0000000000 0.0000000000 434.4643750310 0.0000000000 0.0000000000
-0.4657955439 -0.1817539855 0.0000000000 0.0000000000 0.0000000000 397.8315562069 0.0000000000 0.0000000000
-0.4578866632 -0.2008477125 0.0000000000 0.0000000000 0.0000000000 357.8589206984 0.0000000000 0.0000000000
-0.4491954908 -0.2195982946 0.0000000000 0.0000000000 0.0000000000 314.9183241157 0.0000000000 0.0000000000
-0.4397368755 -0.2379736967 0.0000000000 0.0000000000 0.0000000000 269.4084698347 0.0000000000 0.0000000000
-0.4295269771 -0.2559425248 0.0000000000 0.0000000000 0.0000000000 221.7511830849 0.0000000000 0.0000000000
-0.4185832390 -0.2734740793 0.0000000000 0.0000000000 0.0000000000 172.3873643564 0.0000000000 0.0000000000
-0.4069243585 -0.2905384079 0.0000000000 0.0000000000 0.0000000000 121.7726326452 0.0000000000 0.0000000000
-0.3945702545 -0.3071063565 0.0000000000 0.0000000000 0.0000000000 70.3726713592 0.0000000000 0.0000000000
-0.3815420339 -0.3231496191 0.0000000000 0.0000000000 0.0000000000 18.6582929968 0.0000000000 0.0000000000
-0.3678619552 -0.3386407860 0.0000000000 0.0000000000 0.0000000000 -32.8997566099 0.0000000000 0.0000000000
-0.3386407856 -0.3678619555 0.0000000000 0.0000000000 0.0000000000 -133.6969916514 0.0000000000 0.0000000000
-0.3231496187 -0.3815420343 0.0000000000 0.0000000000 0.0000000000 -182.0448224946 0.0000000000 0.0000000000
-0.3071063561 -0.3945702549 0.0000000000 0.0000000000 0.0000000000 -228.4652629203 0.0000000000 0.0000000000
-0.2905384075 -0.4069243588 0.0000000000 0.0000000000 0.0000000000 -272.5725104724 0.0000000000 0.0000000000
-0.2734740788 -0.4185832393 0.0000000000 0.0000000000 0.0000000000 -314.0152213655 0.0000000000 0.0000000000
-0.2559425243 -0.4295269773 0.0000000000 0.0000000000 0.0000000000 -352.4821176141 0.0000000000 0.0000000000
-0.2379736963 -0.4397368757 0.0000000000 0.0000000000 0.0000000000 -387.7072577400 0.0000000000 0.0000000000
-0.2195982942 -0.4491954911 0.0000000000 0.0000000000 0.0000000000 -419.4748091238 0.0000000000 0.0000000000
-0.2008477121 -0.4578866634 0.0000000000 0.0000000000 0.0000000000 -447.6231398567 0.0000000000 0.0000000000
-0.1817539850 -0.4657955441 0.0000000000 0.0000000000 0.0000000000 -472.0480328945 0.0000000000 0.0000000000
-0.1623497343 -0.4729086209 0.0000000000 0.0000000000 0.0000000000 -492.7048189085 0.0000000000 0.0000000000
-0.1426681118 -0.4792137413 0.0000000000 0.0000000000 0.0000000000 -509.6092301052 0.0000000000 0.0000000000
-0.1227427433 -0.4847001330 0.0000000000 0.0000000000 0.0000000000 -522.8367993067 0.0000000000 0.0000000000
-0.1026076708 -0.4893584227 0.0000000000 0.0000000000 0.0000000000 -532.5206692703 0.0000000000 0.0000000000
-0.0822972948 -0.4931806518 0.0000000000 0.0000000000 0.0000000000 -538.8477386855 0.0000000000 0.0000000000
-0.0618463153 -0.4961602899 0.0000000000 0.0000000000 0.0000000000 -542.0531513714 0.0000000000 0.0000000000
-0.0412896724 -0.4982922465 0.0000000000 0.0000000000 0.0000000000 -542.4132325951 0.0000000000 0.0000000000
-0.0206624868 -0.4995728792 0.0000000000 0.0000000000 0.0000000000 -540.2370795657 0.0000000000 0.0000000000
0.0000000003 -0.5000000000 0.0000000000 0.0000000000 0.0000000000 -535.8571211516 0.0000000000 0.0000000000
0.0206624874 -0.4995728792 0.0000000000 0.0000000000 0.0000000000 -529.6190461543 0.0000000000 0.0000000000
0.0412896730 -0.4982922465 0.0000000000 0.0000000000 0.0000000000 -521.8715810818 0.0000000000 0.0000000000
0.0618463159 -0.4961602898 0.0000000000 0.0000000000 0.0000000000 -512.9566039770 0.0000000000 0.0000000000
0.0822972955 -0.4931806516 0.0000000000 0.0000000000 0.0000000000 -503.2001266114 0.0000000000 0.0000000000
0.1026076714 -0.4893584226 0.0000000000 0.0000000000 0.0000000000 -492.9045165331 0.0000000000 0.0000000000
0.1227427439 -0.4847001329 0.0000000000 0.0000000000 0.0000000000 -482.3424366617 0.0000000000 0.0000000000
0.1426681124 -0.4792137411 0.0000000000 0.0000000000 0.0000000000 -471.7523968937 0.0000000000 0.0000000000
0.1623497349 -0.4729086207 0.0000000000 0.0000000000 0.0000000000 -461.3364528800 0.0000000000 0.0000000000
0.1817539856 -0.4657955439 0.0000000000 0.0000000000 0.0000000000 -451.2586035871 0.0000000000 0.0000000000
0.2008477126 -0.4578866632 0.0000000000 0.0000000000 0.0000000000 -441.6458009041 0.0000000000 0.0000000000
0.2195982947 -0.4491954908 0.0000000000 0.0000000000 0.0000000000 -432.5860259790 0.0000000000 0.0000000000
0.2379736968 -0.4397368754 0.0000000000 0.0000000000 0.0000000000 -424.1334684393 0.0000000000 0.0000000000
0.2559425248 -0.4295269770 0.0000000000 0.0000000000 0.0000000000 -416.2989958372 0.0000000000 0.0000000000
0.2734740794 -0.4185832389 0.0000000000 0.0000000000 0.0000000000 -409.0726878256 0.0000000000 0.0000000000
0.2905384080 -0.4069243584 0.0000000000 0.0000000000 0.0000000000 -402.3821438879 0.0000000000 0.0000000000
0.3071063566 -0.3945702545 0.0000000000 0.0000000000 0.0000000000 -396.1918230175 0.0000000000 0.0000000000
0.3231496192 -0.3815420339 0.0000000000 0.0000000000 0.0000000000 -390.3199032200 0.0000000000 0.0000000000
0.3386407861 -0.3678619551 0.0000000000 0.0000000000 0.0000000000 -384.8244788322 0.0000000000 0.0000000000
0.5497889042 -0.5101295529 0.0000000000 0.1639348469 0.0248524407 -364.9632657142 0.0000000000 0.0000000000
0.5684787927 -0.4892155581 0.0000000000 0.1223564461 0.0280415892 -363.5499796438 0.0000000000 0.0000000000
0.5863736122 -0.4676173510 0.0000000000 0.0852678267 0.0323286874 -361.9010995297 0.0000000000 0.0000000000
0.6034483351 -0.4453651388 0.0000000000 0.0524037966 0.0379143746 -360.0159570186 0.0000000000 0.0000000000
0.6196790810 -0.4224900431 0.0000000000 0.0235218787 0.0448836259 -357.9312645102 0.0000000000 0.0000000000
0.6350431497 -0.3990240570 0.0000000000 -0.0015951093 0.0532236293 -355.7187960604 0.0000000000 0.0000000000
0.6495190531 -0.3749999996 0.0000000000 -0.0231517003 0.0628483908 -353.4776746501 0.0000000000 0.0000000000
0.6630865453 -0.3504514708 0.0000000000 -0.0413568389 0.0736245823 -351.3237460634 0.0000000000 0.0000000000
0.6757266511 -0.3254128039 0.0000000000 -0.0564364930 0.0853943075 -349.3776527072 0.0000000000 0.0000000000
0.6874216921 -0.2999190178 0.0000000000 -0.0686369019 0.0979920833 -347.7535624940 0.0000000000 0.0000000000
0.6981553116 -0.2740057679 0.0000000000 -0.0782178646 0.1112548702 -346.5499848901 0.0000000000 0.0000000000
0.7079124979 -0.2477092961 0.0000000000 -0.0854389064 0.1250253655 -345.8433656892 0.0000000000 0.0000000000
0.7166796045 -0.2210663804 0.0000000000 -0.0905430209 0.1391499080 -345.6844008199 0.0000000000 0.0000000000
0.7244443698 -0.1941142835 0.0000000000 -0.0937428079 0.1534730766 -346.0964920008 0.0000000000 0.0000000000
0.7311959342 -0.1668907001 0.0000000000 -0.0952125587 0.1678313003 -347.0756027746 0.0000000000 0.0000000000
0.7369248550 -0.1394337050 0.0000000000 -0.0950878439 0.1820475182 -348.5909281165 0.0000000000 0.0000000000
0.7416231197 -0.1117816993 0.0000000000 -0.0934721483 0.1959282617 -350.5861184316 0.0000000000 0.0000000000
0.7452841575 -0.0839733567 0.0000000000 -0.0904486194 0.2092637026 -352.9811251969 0.0000000000 0.0000000000
0.7479028479 -0.0560475699 0.0000000000 -0.0860942876 0.2218304400 -355.6749325591 0.0000000000 0.0000000000
0.7494755286 -0.0280433954 0.0000000000 -0.0804941429 0.2333962616 -358.5494584426 0.0000000000 0.0000000000
0.7500000000 0.0000000003 0.0000000000 -0.0737529841 0.2437258895 -361.4747744273 0.0000000000 0.0000000000
0.7494755286 0.0280433960 0.0000000000 -0.0660037216 0.2525867890 -364.3155726694 0.0000000000 0.0000000000
0.7479028479 0.0560475705 0.0000000000 -0.0574115529 0.2597544103 -366.9385755583 0.0000000000 0.0000000000
0.7452841574 0.0839733573 0.0000000000 -0.0481739859 0.2650166519 -369.2203979795 0.0000000000 0.0000000000
0.7416231196 0.1117816999 0.0000000000 -0.0385169738 0.2681777751 -371.0552623484 0.0000000000 0.0000000000
0.7369248549 0.1394337056 0.0000000000 -0.0286874415 0.2690623775 -372.3619352436 0.0000000000 0.0000000000
0.7311959341 0.1668907007 0.0000000000 -0.0189422621 0.2675202701 -373.0892882614 0.0000000000 0.0000000000
0.7244443697 0.1941142840 0.0000000000 -0.0095333176 0.2634331473 -373.2199712623 0.0000000000 0.0000000000
0.7166796043 0.2210663810 0.0000000000 -0.0006877040 0.2567237644 -372.7718231824 0.0000000000 0.0000000000
0.7079124977 0.2477092967 0.0000000000 0.0074185261 0.2473679695 -371.7968518523 0.0000000000 0.0000000000
0.6981553114 0.2740057685 0.0000000000 0.0146952078 0.2354094280 -370.3779137406 0.0000000000 0.0000000000
0.6874216918 0.2999190184 0.0000000000 0.0211834083 0.2209762783 -368.6236076524 0.0000000000 0.0000000000
0.6757266509 0.3254128045 0.0000000000 0.0271111452 0.2042981744 -366.6622540932 0.0000000000 0.0000000000
0.6630865451 0.3504514714 0.0000000000 0.0329541667 0.1857209746 -364.6359147809 0.0000000000 0.0000000000
0.6495190528 0.3750000001 0.0000000000 0.0394878784 0.1657145487 -362.6949226283 0.0000000000 0.0000000000
0.6350431493 0.3990240575 0.0000000000 0.0478071172 0.1448672700 -360.9923269725 0.0000000000 0.0000000000
0.6196790807 0.4224900437 0.0000000000 0.0592867610 0.1238603620 -359.6766305673 0.0000000000 0.0000000000
0.6034483348 0.4453651393 0.0000000000 0.0754656377 0.1034186949 -358.8813436226 0.0000000000 0.0000000000
0.5863736118 0.4676173515 0.0000000000 0.0978609029 0.0842428230 -358.7118885533 0.0000000000 0.0000000000
0.5684787923 0.4892155585 0.0000000000 0.1277510841 0.0669373334 -359.2334526575 0.0000000000 0.0000000000
0.5497889038 0.5101295534 0.0000000000 0.1659848893 0.0519568982 -360.4603596394 0.0000000000 0.0000000000
0.5079611787 0.5517929331 0.0000000000 0.2745071692 0.0291317856 -365.2474246026 0.0000000000 0.0000000000
0.4847244283 0.5723130512 0.0000000000 0.3454276842 0.0221548198 -368.7433230767 0.0000000000 0.0000000000
0.4606595344 0.5918553821 0.0000000000 0.4240463771 0.0186567082 -372.7809876114 0.0000000000 0.0000000000
0.4358076115 0.6103865380 0.0000000000 0.5084131450 0.0186356266 -377.2604681670 0.0000000000 0.0000000000
0.4102111185 0.6278748587 0.0000000000 0.5963371435 0.0220909916 -382.0822468279 0.0000000000 0.0000000000
0.3839137867 0.6442904658 0.0000000000 0.6855021551 0.0289869736 -387.1374492872 0.0000000000 0.0000000000
0.3569605447 0.6596053135 0.0000000000 0.7735851400 0.0392093784 -392.2990053802 0.0000000000 0.0000000000
0.3293974415 0.6737932365 0.0000000000 0.8583894285 0.0525390843 -397.4168814813 0.0000000000 0.0000000000
0.3012715684 0.6868299950 0.0000000000 0.9379808942 0.0686519104 -402.3193017621 0.0000000000 0.0000000000
0.2726309778 0.6986933161 0.0000000000 1.0108028240 0.0871423336 -406.8194073195 0.0000000000 0.0000000000
0.2435246018 0.7093629313 0.0000000000 1.0757471710 0.1075611080 -410.7251829378 0.0000000000 0.0000000000
0.2140021681 0.7188206119 0.0000000000 1.1321718122 0.1294554313 -413.8498034935 0.0000000000 0.0000000000
0.1841141152 0.7270501995 0.0000000000 1.1798672451 0.1524028300 -416.0199666965 0.0000000000 0.0000000000
0.1539115065 0.7340376340 0.0000000000 1.2189860445 0.1760339441 -417.0809014502 0.0000000000 0.0000000000
0.1234459426 0.7397709776 0.0000000000 1.2499524143 0.2000431186 -416.8979631113 0.0000000000 0.0000000000
0.0927694733 0.7442404348 0.0000000000 1.2733681716 0.2241883499 -415.3555984681 0.0000000000 0.0000000000
0.0619345090 0.7474383698 0.0000000000 1.2899275286 0.2482835238 -412.3548345437 0.0000000000 0.0000000000
0.0309937305 0.7493593188 0.0000000000 1.3003480483 0.2721862324 -407.8104005619 0.0000000000 0.0000000000
-0.0000000002 0.7500000000 0.0000000000 1.3053205700 0.2957840867 -401.6483065087 0.0000000000 0.0000000000
-0.0309937308 0.7493593188 0.0000000000 1.3054774629 0.3189817107 -393.8043398441 0.0000000000 0.0000000000
-0.0619345093 0.7474383697 0.0000000000 1.3013764655 0.3416897778 -384.2236151753 0.0000000000 0.0000000000
-0.0927694736 0.7442404348 0.0000000000 1.2934964559 0.3638167251 -372.8610745296 0.0000000000 0.0000000000
-0.1234459429 0.7397709775 0.0000000000 1.2822414440 0.3852632372 -359.6826995566 0.0000000000 0.0000000000
-0.1539115068 0.7340376340 0.0000000000 1.2679495395 0.4059192432 -344.6671472638 0.0000000000 0.0000000000
-0.1841141155 0.7270501994 0.0000000000 1.2509043430 0.4256629977 -327.8075324526 0.0000000000 0.0000000000
-0.2140021684 0.7188206118 0.0000000000 1.2313469294 0.4443617580 -309.1131268521 0.0000000000 0.0000000000
-0.2435246021 0.7093629312 0.0000000000 1.2094872313 0.4618735980 -288.6108057988 0.0000000000 0.0000000000
-0.2726309781 0.6986933160 0.0000000000 1.1855141355 0.4780499596 -266.3461337408 0.0000000000 0.0000000000
-0.3012715687 0.6868299949 0.0000000000 1.1596039759 0.4927386227 -242.3840317952 0.0000000000 0.0000000000
-0.3293974418 0.6737932363 0.0000000000 1.1319273481 0.5057868491 -216.8090108942 0.0000000000 0.0000000000
-0.3569605450 0.6596053133 0.0000000000 1.1026543260 0.5170445233 -189.7249826864 0.0000000000 0.0000000000
-0.3839137870 0.6442904657 0.0000000000 1.0719582396 0.5263671655 -161.2546789242 0.0000000000 0.0000000000
-0.4102111188 0.6278748586 0.0000000000 1.0400182084 0.5336187365 -131.5387207662 0.0000000000 0.0000000000
-0.4358076117 0.6103865378 0.0000000000 1.0070206306 0.5386741817 -100.7343844060 0.0000000000 0.0000000000
-0.4606595347 0.5918553819 0.0000000000 0.9731598160 0.5414216854 -69.0141105371 0.0000000000 0.0000000000
-0.4847244286 0.5723130510 0.0000000000 0.9386379322 0.5417646225 -36.5638037812 0.0000000000 0.0000000000
-0.5079611789 0.5517929329 0.0000000000 0.9036644098 0.5396232038 -3.5809653828 0.0000000000 0.0000000000
-0.5517929332 0.5079611785 0.0000000000 0.8332301025 0.5276600852 63.1463747650 0.0000000000 0.0000000000
-0.5723130513 0.4847244282 0.0000000000 0.7982139025 0.5177736131 96.4562614179 0.0000000000 0.0000000000
-0.5918553822 0.4606595343 0.0000000000 0.7636319640 0.5052745028 129.4337659033 0.0000000000 0.0000000000
-0.6103865381 0.4358076114 0.0000000000 0.7297097586 0.4901815841 161.8546676759 0.0000000000 0.0000000000
-0.6278748588 0.4102111184 0.0000000000 0.6966707229 0.4725344161 193.4958744964 0.0000000000 0.0000000000
-0.6442904659 0.3839137866 0.0000000000 0.6647343701 0.4523930626 224.1375324982 0.0000000000 0.0000000000
-0.6596053135 0.3569605446 0.0000000000 0.6341144172 0.4298376571 253.5650726818 0.0000000000 0.0000000000
-0.6737932365 0.3293974414 0.0000000000 0.6050169580 0.4049677755 281.5711762581 0.0000000000 0.0000000000
-0.6868299951 0.3012715682 0.0000000000 0.5776387053 0.3779016299 307.9576437499 0.0000000000 0.0000000000
-0.6986933161 0.2726309777 0.0000000000 0.5521653224 0.3487750975 332.5371551682 0.0000000000 0.0000000000
-0.7093629314 0.2435246016 0.0000000000 0.5287698611 0.3177405988 355.1349106467 0.0000000000 0.0000000000
-0.7188206119 0.2140021679 0.0000000000 0.5076113174 0.2849658365 375.5901423628 0.0000000000 0.0000000000
-0.7270501995 0.1841141151 0.0000000000 0.4888333164 0.2506324077 393.7574894945 0.0000000000 0.0000000000
-0.7340376341 0.1539115064 0.0000000000 0.4725629300 0.2149343024 409.5082282696 0.0000000000 0.0000000000
-0.7397709776 0.1234459424 0.0000000000 0.4589096332 0.1780763013 422.7313493982 0.0000000000 0.0000000000
-0.7442404348 0.0927694732 0.0000000000 0.4479643983 0.1402722883 433.3344755120 0.0000000000 0.0000000000
-0.7474383698 0.0619345088 0.0000000000 0.4397989325 0.1017434974 441.2446119741 0.0000000000 0.0000000000
-0.7493593188 0.0309937304 0.0000000000 0.4344650646 0.0627167138 446.4087271634 0.0000000000 0.0000000000
-0.7500000000 -0.0000000003 0.0000000000 0.4319942959 0.0234224478 448.7941623868 0.0000000000 0.0000000000
-0.7493593188 -0.0309937310 0.0000000000 0.4323975356 -0.0159069040 448.3888770956 0.0000000000 0.0000000000
-0.7474383697 -0.0619345094 0.0000000000 0.4356650326 -0.0550389046 445.2015337544 0.0000000000 0.0000000000
-0.7442404348 -0.0927694738 0.0000000000 0.4417665047 -0.0937429285 439.2614222773 0.0000000000 0.0000000000
-0.7397709775 -0.1234459430 0.0000000000 0.4506514549 -0.1317920134 430.6182189934 0.0000000000 0.0000000000
-0.7340376339 -0.1539115070 0.0000000000 0.4622496520 -0.1689647022 419.3415711839 0.0000000000 0.0000000000
-0.7270501994 -0.1841141157 0.0000000000 0.4764717564 -0.2050468562 405.5205023484 0.0000000000 0.0000000000
-0.7188206117 -0.2140021685 0.0000000000 0.4932100796 -0.2398334155 389.2626392193 0.0000000000 0.0000000000