LAMMPS (2 Aug 2023 - Update 3)
OMP_NUM_THREADS environment is not set. Defaulting to 1 thread. (src/comm.cpp:98)
  using 1 OpenMP thread(s) per MPI task
Loaded 1 plugins from F:\Lammps\LAMMPS 64-bit 2Aug2023\plugins
Lattice spacing in x,y,z = 4.04 4.04 4.04
Created triclinic box = (0 0 0) to (8.08 12.12 16.16) with tilt (0 0 0)
  1 by 1 by 1 MPI processor grid
Created 96 atoms
  using lattice units in triclinic box = (0 0 0) to (8.08 12.12 16.16) with tilt (0 0 0)
  create_atoms CPU = 0.000 seconds
Neighbor list info ...
  update: every = 1 steps, delay = 0 steps, check = yes
  max neighbors/atom: 2000, page size: 100000
  master list distance cutoff = 7.28721
  ghost atom cutoff = 7.28721
  1 neighbor lists, perpetual/occasional/extra = 1 0 0
  (1) pair eam/alloy, perpetual
      attributes: half, newton on
      pair build: half/nsq/newton
      stencil: none
      bin: none
Setting up cg style minimization ...
  Unit style    : metal
  Current step  : 0
WARNING: Energy due to 3 extra global DOFs will be included in minimizer energies
 (src/min.cpp:228)
Per MPI rank memory allocation (min/avg/max) = 4.452 | 4.452 | 4.452 Mbytes
   Step          Temp          PotEng         Press           Pxx            Pyy            Pzz            Pxy            Pxz            Pyz             Lx             Ly             Lz           Volume    
         0   0             -322.53849      5853.9553      5853.9553      5853.9553      5853.9553     -3.7724158e-11  3.2153346e-11 -2.3463443e-12  8.08           12.12          16.16          1582.5423    
         1   0             -322.54019      5617.5567      5617.5567      5617.5567      5617.5567     -3.4243542e-11 -4.1069777e-11 -3.7024601e-11  8.080808       12.121212      16.161616      1583.0171    
         2   0             -322.54182      5381.1323      5381.1323      5381.1323      5381.1323     -4.0481757e-11  3.1094988e-11 -2.7268669e-11  8.081616       12.122424      16.163232      1583.4921    
         3   0             -322.54338      5144.6807      5144.6807      5144.6807      5144.6807     -2.8018507e-11 -1.3517947e-11  1.2619558e-11  8.082424       12.123636      16.164848      1583.9671    
         4   0             -322.54487      4908.1615      4908.1615      4908.1615      4908.1615      6.6657316e-12  3.6051083e-11  5.6693802e-12  8.083232       12.124848      16.166464      1584.4421    
         5   0             -322.54629      4671.587       4671.587       4671.587       4671.587       1.6596203e-11 -1.0234091e-11 -2.784739e-11   8.08404        12.12606       16.16808       1584.9173    
         6   0             -322.54764      4434.9279      4434.9279      4434.9279      4434.9279     -2.1429751e-11  9.6700348e-12 -1.9634588e-11  8.084848       12.127272      16.169696      1585.3926    
         7   0             -322.54892      4198.254       4198.254       4198.254       4198.254       1.2618452e-12 -1.2415155e-11 -2.847564e-11   8.085656       12.128484      16.171312      1585.868     
         8   0             -322.55013      3961.7998      3961.7998      3961.7998      3961.7998      1.1367219e-11  2.5131225e-11 -9.5170675e-12  8.086464       12.129696      16.172928      1586.3435    
         9   0             -322.55127      3725.5885      3725.5885      3725.5885      3725.5885      2.410081e-12  -1.6891585e-11 -9.8645177e-12  8.087272       12.130908      16.174544      1586.819     
        10   0             -322.55234      3489.6055      3489.6055      3489.6055      3489.6055     -1.4750319e-11  2.2580735e-11 -3.0957459e-12  8.08808        12.13212       16.17616       1587.2947    
        11   0             -322.55334      3253.6093      3253.6093      3253.6093      3253.6093      2.4646517e-12 -3.2362557e-11 -1.7560643e-11  8.088888       12.133332      16.177776      1587.7705    
        12   0             -322.55428      3017.3986      3017.3986      3017.3986      3017.3986      1.619743e-11   3.0252935e-11  3.0196936e-11  8.089696       12.134544      16.179392      1588.2463    
        13   0             -322.55514      2780.9526      2780.9526      2780.9526      2780.9526      2.4491798e-12  4.6674369e-12  1.8879677e-11  8.090504       12.135756      16.181008      1588.7223    
        14   0             -322.55593      2544.2981      2544.2981      2544.2981      2544.2981     -1.523633e-11  -3.4565064e-11 -1.0577287e-11  8.091312       12.136968      16.182624      1589.1983    
        15   0             -322.55665      2307.6749      2307.6749      2307.6749      2307.6749      1.7651506e-11  1.8805427e-11 -5.8605237e-12  8.09212        12.13818       16.18424       1589.6745    
        16   0             -322.5573       2071.1579      2071.1579      2071.1579      2071.1579      2.4357935e-11 -3.4705163e-11 -2.6035864e-11  8.092928       12.139392      16.185856      1590.1507    
        17   0             -322.55788      1834.7355      1834.7355      1834.7355      1834.7355     -2.8348507e-11  4.2005554e-12  5.2587319e-11  8.093736       12.140604      16.187472      1590.627     
        18   0             -322.55839      1598.3877      1598.3877      1598.3877      1598.3877      5.8412859e-12  9.8519296e-12 -2.089168e-11   8.094544       12.141816      16.189088      1591.1035    
        19   0             -322.55883      1362.0625      1362.0625      1362.0625      1362.0625     -1.5646606e-12 -1.5150665e-11 -2.58169e-11    8.095352       12.143028      16.190704      1591.58      
        20   0             -322.5592       1125.7462      1125.7462      1125.7462      1125.7462     -8.9382413e-13 -1.3512107e-11 -1.2373878e-11  8.09616        12.14424       16.19232       1592.0566    
        21   0             -322.5595       889.44216      889.44216      889.44216      889.44216     -6.7016743e-13 -8.3561501e-12 -4.691172e-12   8.096968       12.145452      16.193936      1592.5333    
        22   0             -322.55973      653.14788      653.14788      653.14788      653.14788     -2.6798673e-11  5.0449899e-11 -2.0992294e-11  8.097776       12.146664      16.195552      1593.0101    
        23   0             -322.55989      416.85116      416.85116      416.85116      416.85116      7.5348712e-13  4.2697603e-11  1.6395322e-11  8.098584       12.147876      16.197168      1593.487     
        24   0             -322.55998      180.54532      180.54532      180.54532      180.54532      6.8491012e-12  1.6453187e-11 -6.3985391e-11  8.099392       12.149088      16.198784      1593.964     
        25   0             -322.56         0.0073580099   0.0073580099   0.00735801     0.0073580098  -1.2495706e-11  4.7974586e-12 -3.5464934e-11  8.1000093      12.150014      16.200019      1594.3285    
        26   0             -322.56         9.278171e-09   9.257017e-09   9.29145e-09    9.2860459e-09  1.3527717e-11  1.1045312e-11 -1.5312818e-11  8.1000093      12.150014      16.200019      1594.3285    
Loop time of 0.005613 on 1 procs for 26 steps with 96 atoms

0.0% CPU use with 1 MPI tasks x 1 OpenMP threads

Minimization stats:
  Stopping criterion = force tolerance
  Energy initial, next-to-last, final = 
     -322.538487346493  -322.559998865654  -322.559998865637
  Force two-norm initial, final = 10.015094 1.5957412e-11
  Force max component initial, final = 5.782217 9.2230973e-12
  Final line search alpha, max atom move = 1 9.2230973e-12
  Iterations, force evaluations = 26 28

MPI task timing breakdown:
Section |  min time  |  avg time  |  max time  |%varavg| %total
---------------------------------------------------------------
Pair    | 0.004164   | 0.004164   | 0.004164   |   0.0 | 74.18
Neigh   | 0          | 0          | 0          |   0.0 |  0.00
Comm    | 7.9e-05    | 7.9e-05    | 7.9e-05    |   0.0 |  1.41
Output  | 0.000288   | 0.000288   | 0.000288   |   0.0 |  5.13
Modify  | 0          | 0          | 0          |   0.0 |  0.00
Other   |            | 0.001082   |            |       | 19.28

Nlocal:             96 ave          96 max          96 min
Histogram: 1 0 0 0 0 0 0 0 0 0
Nghost:            976 ave         976 max         976 min
Histogram: 1 0 0 0 0 0 0 0 0 0
Neighs:           4128 ave        4128 max        4128 min
Histogram: 1 0 0 0 0 0 0 0 0 0

Total # of neighbors = 4128
Ave neighs/atom = 43
Neighbor list builds = 0
Dangerous builds = 0
Displacing atoms ...
System init for write_restart ...
OMP_NUM_THREADS environment is not set. Defaulting to 1 thread. (src/comm.cpp:98)
  using 1 OpenMP thread(s) per MPI task
Loaded 1 plugins from F:\Lammps\LAMMPS 64-bit 2Aug2023\plugins

The 'box' command has been removed and will be ignored

Reading restart file ...
  restart file = 2 Aug 2023, LAMMPS = 2 Aug 2023
  restoring atom style atomic from restart
  triclinic box = (-0.010004662 -0.015006993 -0.020009324) to (8.0900047 12.135007 16.180009) with tilt (0 0 0)
  1 by 1 by 1 MPI processor grid
  pair style eam/alloy stores no restart info
  96 atoms
  read_restart CPU = 0.000 seconds
Changing box ...
  triclinic box = (-0.010004662 -0.015006993 -0.020009324) to (8.0090046 12.135007 16.180009) with tilt (0 0 0)
  triclinic box = (-0.010004662 -0.015006993 -0.020009324) to (8.0090046 12.135007 16.180009) with tilt (0 0 0)
  triclinic box = (-0.010004662 -0.015006993 -0.020009324) to (8.0090046 12.135007 16.180009) with tilt (0 0 0)
Neighbor list info ...
  update: every = 1 steps, delay = 0 steps, check = yes
  max neighbors/atom: 2000, page size: 100000
  master list distance cutoff = 7.28721
  ghost atom cutoff = 7.28721
  1 neighbor lists, perpetual/occasional/extra = 1 0 0
  (1) pair eam/alloy, perpetual
      attributes: half, newton on
      pair build: half/nsq/newton
      stencil: none
      bin: none
Setting up cg style minimization ...
  Unit style    : metal
  Current step  : 26
Per MPI rank memory allocation (min/avg/max) = 4.449 | 4.449 | 4.449 Mbytes
   Step          Temp          PotEng         Press           Pxx            Pyy            Pzz            Pxy            Pxz            Pyz             Lx             Ly             Lz           Volume    
        26   0             -322.50284      7950.6003      11548.581      6151.6098      6151.6098      1.5895512e-06  4.2023016e-08  1.2184886e-06  8.0190092      12.150014      16.200019      1578.3852    
        27   0             -322.50284      7950.6003      11548.581      6151.6097      6151.6097     -2.6429999e-07  1.0284508e-07 -7.4256434e-08  8.0190092      12.150014      16.200019      1578.3852    
        28   0             -322.50284      7950.6003      11548.581      6151.6097      6151.6097      6.472705e-08  -4.9444566e-08  5.7751352e-08  8.0190092      12.150014      16.200019      1578.3852    
        29   0             -322.50284      7950.6003      11548.581      6151.6097      6151.6097     -9.7031015e-09 -4.8705194e-09 -2.3794405e-08  8.0190092      12.150014      16.200019      1578.3852    
        30   0             -322.50284      7950.6003      11548.581      6151.6097      6151.6097     -9.3153225e-09 -4.0392932e-09 -4.2313995e-09  8.0190092      12.150014      16.200019      1578.3852    
        31   0             -322.50284      7950.6003      11548.581      6151.6097      6151.6097     -8.2872413e-09  8.010915e-11  -2.5293745e-09  8.0190092      12.150014      16.200019      1578.3852    
        32   0             -322.50284      7950.6003      11548.581      6151.6097      6151.6097     -4.4217168e-09 -5.4408146e-10 -2.5074443e-10  8.0190092      12.150014      16.200019      1578.3852    
        33   0             -322.50284      7950.6003      11548.581      6151.6097      6151.6097     -2.571506e-09  -2.6410624e-10  9.2866566e-11  8.0190092      12.150014      16.200019      1578.3852    
        34   0             -322.50284      7950.6003      11548.581      6151.6097      6151.6097     -1.3916483e-09 -1.1493457e-10  8.3317384e-11  8.0190092      12.150014      16.200019      1578.3852    
        35   0             -322.50284      7950.6003      11548.581      6151.6097      6151.6097     -7.0701799e-10 -7.9724007e-11  5.0528094e-11  8.0190092      12.150014      16.200019      1578.3852    
        36   0             -322.50284      7950.6003      11548.581      6151.6097      6151.6097     -3.1448104e-10 -5.007939e-11  -1.1172736e-12  8.0190092      12.150014      16.200019      1578.3852    
        37   0             -322.50284      7950.6003      11548.581      6151.6097      6151.6097     -1.1900672e-10  2.7526851e-12 -1.2991124e-11  8.0190092      12.150014      16.200019      1578.3852    
        38   0             -322.50284      7950.6003      11548.581      6151.6097      6151.6097     -1.4108101e-11  2.2239198e-11 -2.3563991e-11  8.0190092      12.150014      16.200019      1578.3852    
        39   0             -322.50284      7950.6003      11548.581      6151.6097      6151.6097     -1.4027101e-11 -7.7878537e-12 -1.3763139e-11  8.0190092      12.150014      16.200019      1578.3852    
        40   0             -322.50284      7950.6003      11548.581      6151.6097      6151.6097     -6.0926146e-12  6.9879766e-12 -1.7622308e-11  8.0190092      12.150014      16.200019      1578.3852    
        41   0             -322.50284      7950.6003      11548.581      6151.6097      6151.6097      1.3333317e-11  1.117605e-12   2.3270064e-12  8.0190092      12.150014      16.200019      1578.3852    
        42   0             -322.50284      7950.6003      11548.581      6151.6097      6151.6097     -9.6777485e-12 -6.0669682e-12  1.9075261e-11  8.0190092      12.150014      16.200019      1578.3852    
        43   0             -322.50284      7950.6003      11548.581      6151.6097      6151.6097     -2.3560458e-12  2.1299729e-11  1.8018043e-11  8.0190092      12.150014      16.200019      1578.3852    
        44   0             -322.50284      7950.6003      11548.581      6151.6097      6151.6097     -2.3430153e-11 -1.2888284e-12  4.3543819e-11  8.0190092      12.150014      16.200019      1578.3852    
        45   0             -322.50284      7950.6003      11548.581      6151.6097      6151.6097      1.0026401e-11  5.0452691e-12 -6.2817368e-12  8.0190092      12.150014      16.200019      1578.3852    
        46   0             -322.50284      7950.6003      11548.581      6151.6097      6151.6097      5.5361793e-12 -9.7623858e-12 -1.4846807e-11  8.0190092      12.150014      16.200019      1578.3852    
        47   0             -322.50284      7950.6003      11548.581      6151.6097      6151.6097     -9.793966e-12   1.7346194e-11 -1.6632368e-11  8.0190092      12.150014      16.200019      1578.3852    
        48   0             -322.50284      7950.6003      11548.581      6151.6097      6151.6097     -2.2179935e-11 -7.8145129e-12  2.6741979e-12  8.0190092      12.150014      16.200019      1578.3852    
        49   0             -322.50284      7950.6003      11548.581      6151.6097      6151.6097      6.4553541e-12  6.5077238e-12 -2.5766097e-11  8.0190092      12.150014      16.200019      1578.3852    
        50   0             -322.50284      7950.6003      11548.581      6151.6097      6151.6097     -6.6666586e-12 -1.6302155e-11 -2.6336443e-11  8.0190092      12.150014      16.200019      1578.3852    
        51   0             -322.50284      7950.6003      11548.581      6151.6097      6151.6097      8.5120517e-12 -2.3394065e-12  2.6318673e-11  8.0190092      12.150014      16.200019      1578.3852    
        52   0             -322.50284      7950.6003      11548.581      6151.6097      6151.6097     -6.3391366e-12 -5.2863196e-12 -1.6410147e-11  8.0190092      12.150014      16.200019      1578.3852    
        53   0             -322.50284      7950.6003      11548.581      6151.6097      6151.6097      1.9721758e-12 -2.1549534e-12  2.7723493e-11  8.0190092      12.150014      16.200019      1578.3852    
        54   0             -322.50284      7950.6003      11548.581      6151.6097      6151.6097      9.4946179e-12 -1.373803e-11   9.0731572e-12  8.0190092      12.150014      16.200019      1578.3852    
Loop time of 0.008351 on 1 procs for 28 steps with 96 atoms

187.1% CPU use with 1 MPI tasks x 1 OpenMP threads

Minimization stats:
  Stopping criterion = force tolerance
  Energy initial, next-to-last, final = 
     -322.502835332591  -322.502835353257  -322.502835353256
  Force two-norm initial, final = 0.00049915014 8.1878847e-11
  Force max component initial, final = 7.6253361e-05 1.4320961e-11
  Final line search alpha, max atom move = 1 1.4320961e-11
  Iterations, force evaluations = 28 56

MPI task timing breakdown:
Section |  min time  |  avg time  |  max time  |%varavg| %total
---------------------------------------------------------------
Pair    | 0.007816   | 0.007816   | 0.007816   |   0.0 | 93.59
Neigh   | 0          | 0          | 0          |   0.0 |  0.00
Comm    | 0.000148   | 0.000148   | 0.000148   |   0.0 |  1.77
Output  | 0.000265   | 0.000265   | 0.000265   |   0.0 |  3.17
Modify  | 0          | 0          | 0          |   0.0 |  0.00
Other   |            | 0.000122   |            |       |  1.46

Nlocal:             96 ave          96 max          96 min
Histogram: 1 0 0 0 0 0 0 0 0 0
Nghost:            976 ave         976 max         976 min
Histogram: 1 0 0 0 0 0 0 0 0 0
Neighs:           4128 ave        4128 max        4128 min
Histogram: 1 0 0 0 0 0 0 0 0 0

Total # of neighbors = 4128
Ave neighs/atom = 43
Neighbor list builds = 0
Dangerous builds = 0
OMP_NUM_THREADS environment is not set. Defaulting to 1 thread. (src/comm.cpp:98)
  using 1 OpenMP thread(s) per MPI task
Loaded 1 plugins from F:\Lammps\LAMMPS 64-bit 2Aug2023\plugins

The 'box' command has been removed and will be ignored

Reading restart file ...
  restart file = 2 Aug 2023, LAMMPS = 2 Aug 2023
  restoring atom style atomic from restart
  triclinic box = (-0.010004662 -0.015006993 -0.020009324) to (8.0900047 12.135007 16.180009) with tilt (0 0 0)
  1 by 1 by 1 MPI processor grid
  pair style eam/alloy stores no restart info
  96 atoms
  read_restart CPU = 0.000 seconds
Changing box ...
  triclinic box = (-0.010004662 -0.015006993 -0.020009324) to (8.1710048 12.135007 16.180009) with tilt (0 0 0)
  triclinic box = (-0.010004662 -0.015006993 -0.020009324) to (8.1710048 12.135007 16.180009) with tilt (0 0 0)
  triclinic box = (-0.010004662 -0.015006993 -0.020009324) to (8.1710048 12.135007 16.180009) with tilt (0 0 0)
Neighbor list info ...
  update: every = 1 steps, delay = 0 steps, check = yes
  max neighbors/atom: 2000, page size: 100000
  master list distance cutoff = 7.28721
  ghost atom cutoff = 7.28721
  1 neighbor lists, perpetual/occasional/extra = 1 0 0
  (1) pair eam/alloy, perpetual
      attributes: half, newton on
      pair build: half/nsq/newton
      stencil: none
      bin: none
Setting up cg style minimization ...
  Unit style    : metal
  Current step  : 26
Per MPI rank memory allocation (min/avg/max) = 4.449 | 4.449 | 4.449 Mbytes
   Step          Temp          PotEng         Press           Pxx            Pyy            Pzz            Pxy            Pxz            Pyz             Lx             Ly             Lz           Volume    
        26   0             -322.50422     -7747.3128     -11129.509     -6056.215      -6056.2149      1.6655093e-06 -8.3920305e-07  2.3144146e-06  8.1810094      12.150014      16.200019      1610.2718    
        27   0             -322.50422     -7747.3129     -11129.509     -6056.215      -6056.215      -3.5448536e-07  1.7440992e-08  1.8730997e-08  8.1810094      12.150014      16.200019      1610.2718    
        28   0             -322.50422     -7747.3129     -11129.509     -6056.215      -6056.215       7.2176438e-08 -1.3278716e-07  1.1387366e-07  8.1810094      12.150014      16.200019      1610.2718    
        29   0             -322.50422     -7747.3129     -11129.509     -6056.215      -6056.215      -9.6254984e-09 -1.8390634e-08 -2.8842976e-08  8.1810094      12.150014      16.200019      1610.2718    
        30   0             -322.50422     -7747.3129     -11129.509     -6056.215      -6056.215      -1.0706411e-08 -1.0520891e-08 -6.2506112e-09  8.1810094      12.150014      16.200019      1610.2718    
        31   0             -322.50422     -7747.3129     -11129.509     -6056.215      -6056.215      -8.8355381e-09 -1.6650327e-09 -3.2515622e-09  8.1810094      12.150014      16.200019      1610.2718    
        32   0             -322.50422     -7747.3129     -11129.509     -6056.215      -6056.215      -4.5767995e-09 -6.0722194e-10 -1.1895744e-10  8.1810094      12.150014      16.200019      1610.2718    
        33   0             -322.50422     -7747.3129     -11129.509     -6056.215      -6056.215      -2.6979249e-09 -8.5481278e-11  2.3605253e-10  8.1810094      12.150014      16.200019      1610.2718    
        34   0             -322.50422     -7747.3129     -11129.509     -6056.215      -6056.215      -1.4405355e-09 -4.2779945e-11  1.6091975e-10  8.1810094      12.150014      16.200019      1610.2718    
        35   0             -322.50422     -7747.3129     -11129.509     -6056.215      -6056.215      -7.3670276e-10 -7.9481916e-11  8.1971874e-11  8.1810094      12.150014      16.200019      1610.2718    
        36   0             -322.50422     -7747.3129     -11129.509     -6056.215      -6056.215      -3.3691915e-10 -3.7047612e-11  3.7788129e-11  8.1810094      12.150014      16.200019      1610.2718    
        37   0             -322.50422     -7747.3129     -11129.509     -6056.215      -6056.215      -1.0569349e-10  2.7598414e-11 -2.2271949e-11  8.1810094      12.150014      16.200019      1610.2718    
        38   0             -322.50422     -7747.3129     -11129.509     -6056.215      -6056.215      -1.09325e-11    1.0700381e-11  3.6630183e-12  8.1810094      12.150014      16.200019      1610.2718    
        39   0             -322.50422     -7747.3129     -11129.509     -6056.215      -6056.215      -1.3328192e-11  2.3090691e-11 -6.3927215e-13  8.1810094      12.150014      16.200019      1610.2718    
        40   0             -322.50422     -7747.3129     -11129.509     -6056.215      -6056.215       2.2023792e-12 -1.1195891e-11 -9.803908e-12   8.1810094      12.150014      16.200019      1610.2718    
        41   0             -322.50422     -7747.3129     -11129.509     -6056.215      -6056.215      -1.8627019e-11  2.2900603e-12 -1.2709788e-11  8.1810094      12.150014      16.200019      1610.2718    
        42   0             -322.50422     -7747.3129     -11129.509     -6056.215      -6056.215       6.7314099e-13  5.9872132e-12 -3.1603475e-11  8.1810094      12.150014      16.200019      1610.2718    
        43   0             -322.50422     -7747.3129     -11129.509     -6056.215      -6056.215      -5.8960246e-12  9.6141538e-12  3.3392564e-11  8.1810094      12.150014      16.200019      1610.2718    
        44   0             -322.50422     -7747.3129     -11129.509     -6056.215      -6056.215      -1.8295627e-13  1.3368484e-11  7.4874252e-12  8.1810094      12.150014      16.200019      1610.2718    
        45   0             -322.50422     -7747.3129     -11129.509     -6056.215      -6056.215      -8.7853529e-12  1.4886509e-11 -9.0911376e-13  8.1810094      12.150014      16.200019      1610.2718    
        46   0             -322.50422     -7747.3129     -11129.509     -6056.215      -6056.215       1.6845785e-12  4.3534403e-12 -3.660449e-12   8.1810094      12.150014      16.200019      1610.2718    
        47   0             -322.50422     -7747.3129     -11129.509     -6056.215      -6056.215      -1.0304235e-11  9.6712829e-12  3.3196435e-11  8.1810094      12.150014      16.200019      1610.2718    
        48   0             -322.50422     -7747.3129     -11129.509     -6056.215      -6056.215       1.5982783e-12 -2.709641e-11  -7.6765454e-12  8.1810094      12.150014      16.200019      1610.2718    
        49   0             -322.50422     -7747.3129     -11129.509     -6056.215      -6056.215      -3.5866333e-12 -1.2156559e-11 -1.2268566e-11  8.1810094      12.150014      16.200019      1610.2718    
        50   0             -322.50422     -7747.3129     -11129.509     -6056.215      -6056.215      -2.72018e-12   -8.0461953e-12  2.758636e-11   8.1810094      12.150014      16.200019      1610.2718    
        51   0             -322.50422     -7747.3129     -11129.509     -6056.215      -6056.215       1.1080936e-11 -6.0003269e-12 -2.4489438e-12  8.1810094      12.150014      16.200019      1610.2718    
        52   0             -322.50422     -7747.3129     -11129.509     -6056.215      -6056.215      -1.6794005e-11  2.8364737e-12 -2.6353612e-12  8.1810094      12.150014      16.200019      1610.2718    
        53   0             -322.50422     -7747.3129     -11129.509     -6056.215      -6056.215      -1.4056565e-11  1.1112601e-11 -2.7534504e-11  8.1810094      12.150014      16.200019      1610.2718    
        54   0             -322.50422     -7747.3129     -11129.509     -6056.215      -6056.215       1.0521711e-11 -3.3079687e-11 -8.3126942e-12  8.1810094      12.150014      16.200019      1610.2718    
Loop time of 0.008407 on 1 procs for 28 steps with 96 atoms

185.9% CPU use with 1 MPI tasks x 1 OpenMP threads

Minimization stats:
  Stopping criterion = force tolerance
  Energy initial, next-to-last, final = 
     -322.504218118844  -322.504218139071  -322.504218139071
  Force two-norm initial, final = 0.00048565256 6.0792918e-11
  Force max component initial, final = 7.4019801e-05 1.1193407e-11
  Final line search alpha, max atom move = 1 1.1193407e-11
  Iterations, force evaluations = 28 56

MPI task timing breakdown:
Section |  min time  |  avg time  |  max time  |%varavg| %total
---------------------------------------------------------------
Pair    | 0.007864   | 0.007864   | 0.007864   |   0.0 | 93.54
Neigh   | 0          | 0          | 0          |   0.0 |  0.00
Comm    | 0.000157   | 0.000157   | 0.000157   |   0.0 |  1.87
Output  | 0.000266   | 0.000266   | 0.000266   |   0.0 |  3.16
Modify  | 0          | 0          | 0          |   0.0 |  0.00
Other   |            | 0.00012    |            |       |  1.43

Nlocal:             96 ave          96 max          96 min
Histogram: 1 0 0 0 0 0 0 0 0 0
Nghost:            976 ave         976 max         976 min
Histogram: 1 0 0 0 0 0 0 0 0 0
Neighs:           4128 ave        4128 max        4128 min
Histogram: 1 0 0 0 0 0 0 0 0 0

Total # of neighbors = 4128
Ave neighs/atom = 43
Neighbor list builds = 0
Dangerous builds = 0
OMP_NUM_THREADS environment is not set. Defaulting to 1 thread. (src/comm.cpp:98)
  using 1 OpenMP thread(s) per MPI task
Loaded 1 plugins from F:\Lammps\LAMMPS 64-bit 2Aug2023\plugins

The 'box' command has been removed and will be ignored

Reading restart file ...
  restart file = 2 Aug 2023, LAMMPS = 2 Aug 2023
  restoring atom style atomic from restart
  triclinic box = (-0.010004662 -0.015006993 -0.020009324) to (8.0900047 12.135007 16.180009) with tilt (0 0 0)
  1 by 1 by 1 MPI processor grid
  pair style eam/alloy stores no restart info
  96 atoms
  read_restart CPU = 0.000 seconds
Changing box ...
  triclinic box = (-0.010004662 -0.015006993 -0.020009324) to (8.0900047 12.013507 16.180009) with tilt (0 0 0)
  triclinic box = (-0.010004662 -0.015006993 -0.020009324) to (8.0900047 12.013507 16.180009) with tilt (0 0 0)
Neighbor list info ...
  update: every = 1 steps, delay = 0 steps, check = yes
  max neighbors/atom: 2000, page size: 100000
  master list distance cutoff = 7.28721
  ghost atom cutoff = 7.28721
  1 neighbor lists, perpetual/occasional/extra = 1 0 0
  (1) pair eam/alloy, perpetual
      attributes: half, newton on
      pair build: half/nsq/newton
      stencil: none
      bin: none
Setting up cg style minimization ...
  Unit style    : metal
  Current step  : 26
Per MPI rank memory allocation (min/avg/max) = 4.449 | 4.449 | 4.449 Mbytes
   Step          Temp          PotEng         Press           Pxx            Pyy            Pzz            Pxy            Pxz            Pyz             Lx             Ly             Lz           Volume    
        26   0             -322.50284      7950.6003      6151.6098      11548.581      6151.6098      1.5163573e-06 -1.1025738e-07  1.4361056e-06  8.1000093      12.028514      16.200019      1578.3852    
        27   0             -322.50284      7950.6003      6151.6097      11548.581      6151.6097     -3.1462215e-07  1.0077248e-07 -3.6639514e-08  8.1000093      12.028514      16.200019      1578.3852    
        28   0             -322.50284      7950.6003      6151.6097      11548.581      6151.6097      5.5041554e-08 -9.1659867e-08  5.2884614e-08  8.1000093      12.028514      16.200019      1578.3852    
        29   0             -322.50284      7950.6003      6151.6097      11548.581      6151.6097     -9.7174174e-09 -1.5939461e-08 -2.8031768e-08  8.1000093      12.028514      16.200019      1578.3852    
        30   0             -322.50284      7950.6003      6151.6097      11548.581      6151.6097     -9.7471268e-09 -9.1965063e-09 -6.6011222e-09  8.1000093      12.028514      16.200019      1578.3852    
        31   0             -322.50284      7950.6003      6151.6097      11548.581      6151.6097     -8.1921401e-09 -1.9303735e-09 -3.0589166e-09  8.1000093      12.028514      16.200019      1578.3852    
        32   0             -322.50284      7950.6003      6151.6097      11548.581      6151.6097     -4.4079257e-09 -4.6509144e-10 -1.775349e-10   8.1000093      12.028514      16.200019      1578.3852    
        33   0             -322.50284      7950.6003      6151.6097      11548.581      6151.6097     -2.6546261e-09 -7.4204795e-11  2.8865069e-10  8.1000093      12.028514      16.200019      1578.3852    
        34   0             -322.50284      7950.6003      6151.6097      11548.581      6151.6097     -1.4543635e-09 -4.1602512e-11  2.1238214e-10  8.1000093      12.028514      16.200019      1578.3852    
        35   0             -322.50284      7950.6003      6151.6097      11548.581      6151.6097     -7.0277077e-10 -6.9222177e-11  7.0589865e-11  8.1000093      12.028514      16.200019      1578.3852    
        36   0             -322.50284      7950.6003      6151.6097      11548.581      6151.6097     -3.0622608e-10 -3.0579777e-11  2.281455e-11   8.1000093      12.028514      16.200019      1578.3852    
        37   0             -322.50284      7950.6003      6151.6097      11548.581      6151.6097     -9.0427783e-11  8.8709894e-12 -5.5699387e-12  8.1000093      12.028514      16.200019      1578.3852    
        38   0             -322.50284      7950.6003      6151.6097      11548.581      6151.6097     -3.5992209e-11 -1.1816576e-12 -2.4673754e-11  8.1000093      12.028514      16.200019      1578.3852    
        39   0             -322.50284      7950.6003      6151.6097      11548.581      6151.6097      4.8987439e-12  3.3703395e-11 -4.418035e-12   8.1000093      12.028514      16.200019      1578.3852    
        40   0             -322.50284      7950.6003      6151.6097      11548.581      6151.6097     -1.1487924e-11 -7.0267027e-12  7.2860257e-12  8.1000093      12.028514      16.200019      1578.3852    
        41   0             -322.50284      7950.6003      6151.6097      11548.581      6151.6097     -8.8113998e-12  3.4952375e-11 -2.3897035e-11  8.1000093      12.028514      16.200019      1578.3852    
        42   0             -322.50284      7950.6003      6151.6097      11548.581      6151.6097      8.4134429e-12  7.7390855e-12 -4.2004185e-14  8.1000093      12.028514      16.200019      1578.3852    
        43   0             -322.50284      7950.6003      6151.6097      11548.581      6151.6097      2.8983941e-12 -1.0449615e-12  2.6334215e-11  8.1000093      12.028514      16.200019      1578.3852    
        44   0             -322.50284      7950.6003      6151.6097      11548.581      6151.6097     -4.8247873e-12 -1.9019576e-12 -2.5316826e-11  8.1000093      12.028514      16.200019      1578.3852    
        45   0             -322.50284      7950.6003      6151.6097      11548.581      6151.6097      1.7774235e-11 -6.8701797e-12  6.5324433e-12  8.1000093      12.028514      16.200019      1578.3852    
        46   0             -322.50284      7950.6003      6151.6097      11548.581      6151.6097      2.366611e-12  -1.83153e-11    8.8941193e-12  8.1000093      12.028514      16.200019      1578.3852    
        47   0             -322.50284      7950.6003      6151.6097      11548.581      6151.6097     -1.1801359e-11 -1.4844557e-11 -2.7573988e-11  8.1000093      12.028514      16.200019      1578.3852    
        48   0             -322.50284      7950.6003      6151.6097      11548.581      6151.6097      8.6353127e-12  2.7141126e-12  5.0525904e-12  8.1000093      12.028514      16.200019      1578.3852    
        49   0             -322.50284      7950.6003      6151.6097      11548.581      6151.6097      4.7754829e-12  2.6964235e-11  3.5485521e-11  8.1000093      12.028514      16.200019      1578.3852    
        50   0             -322.50284      7950.6003      6151.6097      11548.581      6151.6097     -8.5648779e-12 -2.2132882e-11 -9.5469416e-12  8.1000093      12.028514      16.200019      1578.3852    
        51   0             -322.50284      7950.6003      6151.6097      11548.581      6151.6097      9.9383574e-12 -1.8245165e-11  1.961879e-11   8.1000093      12.028514      16.200019      1578.3852    
        52   0             -322.50284      7950.6003      6151.6097      11548.581      6151.6097      1.0272923e-11 -2.3746977e-11 -7.4969846e-12  8.1000093      12.028514      16.200019      1578.3852    
        53   0             -322.50284      7950.6003      6151.6097      11548.581      6151.6097     -1.0945576e-11  1.5380152e-11  5.4428714e-12  8.1000093      12.028514      16.200019      1578.3852    
        54   0             -322.50284      7950.6003      6151.6097      11548.581      6151.6097      6.7265283e-13 -6.5672006e-12  1.2261682e-11  8.1000093      12.028514      16.200019      1578.3852    
Loop time of 0.008225 on 1 procs for 28 steps with 96 atoms

0.0% CPU use with 1 MPI tasks x 1 OpenMP threads

Minimization stats:
  Stopping criterion = force tolerance
  Energy initial, next-to-last, final = 
     -322.502835332592  -322.502835353256  -322.502835353257
  Force two-norm initial, final = 0.0004994893 7.6137242e-11
  Force max component initial, final = 7.6740865e-05 1.3426399e-11
  Final line search alpha, max atom move = 1 1.3426399e-11
  Iterations, force evaluations = 28 56

MPI task timing breakdown:
Section |  min time  |  avg time  |  max time  |%varavg| %total
---------------------------------------------------------------
Pair    | 0.007681   | 0.007681   | 0.007681   |   0.0 | 93.39
Neigh   | 0          | 0          | 0          |   0.0 |  0.00
Comm    | 0.000141   | 0.000141   | 0.000141   |   0.0 |  1.71
Output  | 0.000279   | 0.000279   | 0.000279   |   0.0 |  3.39
Modify  | 0          | 0          | 0          |   0.0 |  0.00
Other   |            | 0.000124   |            |       |  1.51

Nlocal:             96 ave          96 max          96 min
Histogram: 1 0 0 0 0 0 0 0 0 0
Nghost:            976 ave         976 max         976 min
Histogram: 1 0 0 0 0 0 0 0 0 0
Neighs:           4128 ave        4128 max        4128 min
Histogram: 1 0 0 0 0 0 0 0 0 0

Total # of neighbors = 4128
Ave neighs/atom = 43
Neighbor list builds = 0
Dangerous builds = 0
OMP_NUM_THREADS environment is not set. Defaulting to 1 thread. (src/comm.cpp:98)
  using 1 OpenMP thread(s) per MPI task
Loaded 1 plugins from F:\Lammps\LAMMPS 64-bit 2Aug2023\plugins

The 'box' command has been removed and will be ignored

Reading restart file ...
  restart file = 2 Aug 2023, LAMMPS = 2 Aug 2023
  restoring atom style atomic from restart
  triclinic box = (-0.010004662 -0.015006993 -0.020009324) to (8.0900047 12.135007 16.180009) with tilt (0 0 0)
  1 by 1 by 1 MPI processor grid
  pair style eam/alloy stores no restart info
  96 atoms
  read_restart CPU = 0.000 seconds
Changing box ...
  triclinic box = (-0.010004662 -0.015006993 -0.020009324) to (8.0900047 12.256507 16.180009) with tilt (0 0 0)
  triclinic box = (-0.010004662 -0.015006993 -0.020009324) to (8.0900047 12.256507 16.180009) with tilt (0 0 0)
Neighbor list info ...
  update: every = 1 steps, delay = 0 steps, check = yes
  max neighbors/atom: 2000, page size: 100000
  master list distance cutoff = 7.28721
  ghost atom cutoff = 7.28721
  1 neighbor lists, perpetual/occasional/extra = 1 0 0
  (1) pair eam/alloy, perpetual
      attributes: half, newton on
      pair build: half/nsq/newton
      stencil: none
      bin: none
Setting up cg style minimization ...
  Unit style    : metal
  Current step  : 26
Per MPI rank memory allocation (min/avg/max) = 4.449 | 4.449 | 4.449 Mbytes
   Step          Temp          PotEng         Press           Pxx            Pyy            Pzz            Pxy            Pxz            Pyz             Lx             Ly             Lz           Volume    
        26   0             -322.50422     -7747.3128     -6056.215      -11129.509     -6056.2149      1.6883394e-06 -6.2864046e-07  1.9511859e-06  8.1000093      12.271514      16.200019      1610.2718    
        27   0             -322.50422     -7747.3129     -6056.215      -11129.509     -6056.215      -3.0112606e-07  2.6415412e-08 -2.1487713e-08  8.1000093      12.271514      16.200019      1610.2718    
        28   0             -322.50422     -7747.3129     -6056.215      -11129.509     -6056.215       7.1609083e-08 -8.8489142e-08  1.1591059e-07  8.1000093      12.271514      16.200019      1610.2718    
        29   0             -322.50422     -7747.3129     -6056.215      -11129.509     -6056.215      -1.1988013e-08 -7.7254965e-09 -2.340207e-08   8.1000093      12.271514      16.200019      1610.2718    
        30   0             -322.50422     -7747.3129     -6056.215      -11129.509     -6056.215      -1.0824035e-08 -5.658411e-09  -3.2670469e-09  8.1000093      12.271514      16.200019      1610.2718    
        31   0             -322.50422     -7747.3129     -6056.215      -11129.509     -6056.215      -8.9895597e-09  3.5052032e-10 -2.6246251e-09  8.1000093      12.271514      16.200019      1610.2718    
        32   0             -322.50422     -7747.3129     -6056.215      -11129.509     -6056.215      -4.6285416e-09 -7.1471823e-10 -1.6910869e-10  8.1000093      12.271514      16.200019      1610.2718    
        33   0             -322.50422     -7747.3129     -6056.215      -11129.509     -6056.215      -2.624953e-09  -2.9089368e-10  6.4512955e-11  8.1000093      12.271514      16.200019      1610.2718    
        34   0             -322.50422     -7747.3129     -6056.215      -11129.509     -6056.215      -1.3703839e-09 -1.1220005e-10  6.7729435e-11  8.1000093      12.271514      16.200019      1610.2718    
        35   0             -322.50422     -7747.3129     -6056.215      -11129.509     -6056.215      -7.3408268e-10 -7.0778658e-11  3.5498264e-11  8.1000093      12.271514      16.200019      1610.2718    
        36   0             -322.50422     -7747.3129     -6056.215      -11129.509     -6056.215      -3.4490709e-10 -3.0911396e-11 -9.6611789e-14  8.1000093      12.271514      16.200019      1610.2718    
        37   0             -322.50422     -7747.3129     -6056.215      -11129.509     -6056.215      -1.116482e-10  -3.2035707e-12  2.984718e-12   8.1000093      12.271514      16.200019      1610.2718    
        38   0             -322.50422     -7747.3129     -6056.215      -11129.509     -6056.215      -8.8198729e-12  2.8647225e-11 -4.4133063e-11  8.1000093      12.271514      16.200019      1610.2718    
        39   0             -322.50422     -7747.3129     -6056.215      -11129.509     -6056.215      -1.4436285e-11 -2.6156098e-11  3.5624565e-11  8.1000093      12.271514      16.200019      1610.2718    
        40   0             -322.50422     -7747.3129     -6056.215      -11129.509     -6056.215      -2.5672562e-11 -6.4293763e-12  1.1879595e-11  8.1000093      12.271514      16.200019      1610.2718    
        41   0             -322.50422     -7747.3129     -6056.215      -11129.509     -6056.215      -3.5141412e-12  1.86118e-11    3.5115171e-12  8.1000093      12.271514      16.200019      1610.2718    
        42   0             -322.50422     -7747.3129     -6056.215      -11129.509     -6056.215       6.3309773e-12  1.9424545e-11  7.1600023e-12  8.1000093      12.271514      16.200019      1610.2718    
        43   0             -322.50422     -7747.3129     -6056.215      -11129.509     -6056.215       2.6407839e-12  5.1039081e-12 -2.3938044e-11  8.1000093      12.271514      16.200019      1610.2718    
        44   0             -322.50422     -7747.3129     -6056.215      -11129.509     -6056.215      -2.9383467e-11 -1.5195943e-11 -4.3569744e-12  8.1000093      12.271514      16.200019      1610.2718    
        45   0             -322.50422     -7747.3129     -6056.215      -11129.509     -6056.215      -2.3435662e-11  1.1712746e-12 -7.3982838e-12  8.1000093      12.271514      16.200019      1610.2718    
        46   0             -322.50422     -7747.3129     -6056.215      -11129.509     -6056.215       4.9260112e-12  2.9828341e-11  6.7926632e-12  8.1000093      12.271514      16.200019      1610.2718    
        47   0             -322.50422     -7747.3129     -6056.215      -11129.509     -6056.215       4.073366e-12   5.6671071e-12 -1.0037707e-11  8.1000093      12.271514      16.200019      1610.2718    
        48   0             -322.50422     -7747.3129     -6056.215      -11129.509     -6056.215      -2.9652723e-12  8.6186645e-12 -1.983729e-11   8.1000093      12.271514      16.200019      1610.2718    
        49   0             -322.50422     -7747.3129     -6056.215      -11129.509     -6056.215       1.5171562e-11  5.6111328e-12 -7.6240022e-12  8.1000093      12.271514      16.200019      1610.2718    
        50   0             -322.50422     -7747.3129     -6056.215      -11129.509     -6056.215      -1.0356015e-14 -1.8017867e-11  1.322788e-11   8.1000093      12.271514      16.200019      1610.2718    
        51   0             -322.50422     -7747.3129     -6056.215      -11129.509     -6056.215       9.6241901e-12 -2.1219797e-11 -1.6294628e-11  8.1000093      12.271514      16.200019      1610.2718    
        52   0             -322.50422     -7747.3129     -6056.215      -11129.509     -6056.215       1.0083307e-11 -8.8733514e-12  4.0534792e-12  8.1000093      12.271514      16.200019      1610.2718    
        53   0             -322.50422     -7747.3129     -6056.215      -11129.509     -6056.215      -1.2261522e-11 -1.6118515e-11  5.4534259e-12  8.1000093      12.271514      16.200019      1610.2718    
        54   0             -322.50422     -7747.3129     -6056.215      -11129.509     -6056.215       1.7694978e-11 -7.3708091e-12  6.8483204e-12  8.1000093      12.271514      16.200019      1610.2718    
Loop time of 0.008299 on 1 procs for 28 steps with 96 atoms

0.0% CPU use with 1 MPI tasks x 1 OpenMP threads

Minimization stats:
  Stopping criterion = force tolerance
  Energy initial, next-to-last, final = 
     -322.504218118847  -322.504218139073  -322.504218139072
  Force two-norm initial, final = 0.00048526333 6.774282e-11
  Force max component initial, final = 7.3131369e-05 1.1713172e-11
  Final line search alpha, max atom move = 1 1.1713172e-11
  Iterations, force evaluations = 28 56

MPI task timing breakdown:
Section |  min time  |  avg time  |  max time  |%varavg| %total
---------------------------------------------------------------
Pair    | 0.007753   | 0.007753   | 0.007753   |   0.0 | 93.42
Neigh   | 0          | 0          | 0          |   0.0 |  0.00
Comm    | 0.000145   | 0.000145   | 0.000145   |   0.0 |  1.75
Output  | 0.000252   | 0.000252   | 0.000252   |   0.0 |  3.04
Modify  | 0          | 0          | 0          |   0.0 |  0.00
Other   |            | 0.000149   |            |       |  1.80

Nlocal:             96 ave          96 max          96 min
Histogram: 1 0 0 0 0 0 0 0 0 0
Nghost:            976 ave         976 max         976 min
Histogram: 1 0 0 0 0 0 0 0 0 0
Neighs:           4128 ave        4128 max        4128 min
Histogram: 1 0 0 0 0 0 0 0 0 0

Total # of neighbors = 4128
Ave neighs/atom = 43
Neighbor list builds = 0
Dangerous builds = 0
OMP_NUM_THREADS environment is not set. Defaulting to 1 thread. (src/comm.cpp:98)
  using 1 OpenMP thread(s) per MPI task
Loaded 1 plugins from F:\Lammps\LAMMPS 64-bit 2Aug2023\plugins

The 'box' command has been removed and will be ignored

Reading restart file ...
  restart file = 2 Aug 2023, LAMMPS = 2 Aug 2023
  restoring atom style atomic from restart
  triclinic box = (-0.010004662 -0.015006993 -0.020009324) to (8.0900047 12.135007 16.180009) with tilt (0 0 0)
  1 by 1 by 1 MPI processor grid
  pair style eam/alloy stores no restart info
  96 atoms
  read_restart CPU = 0.000 seconds
Changing box ...
  triclinic box = (-0.010004662 -0.015006993 -0.020009324) to (8.0900047 12.135007 16.018009) with tilt (0 0 0)
Neighbor list info ...
  update: every = 1 steps, delay = 0 steps, check = yes
  max neighbors/atom: 2000, page size: 100000
  master list distance cutoff = 7.28721
  ghost atom cutoff = 7.28721
  1 neighbor lists, perpetual/occasional/extra = 1 0 0
  (1) pair eam/alloy, perpetual
      attributes: half, newton on
      pair build: half/nsq/newton
      stencil: none
      bin: none
Setting up cg style minimization ...
  Unit style    : metal
  Current step  : 26
Per MPI rank memory allocation (min/avg/max) = 4.449 | 4.449 | 4.449 Mbytes
   Step          Temp          PotEng         Press           Pxx            Pyy            Pzz            Pxy            Pxz            Pyz             Lx             Ly             Lz           Volume    
        26   0             -322.50284      7950.6003      6151.6098      6151.6098      11548.581      1.5405894e-06  8.882365e-08   1.4286697e-06  8.1000093      12.150014      16.038018      1578.3852    
        27   0             -322.50284      7950.6003      6151.6097      6151.6097      11548.581     -2.5264165e-07  1.257734e-07  -4.3520939e-08  8.1000093      12.150014      16.038018      1578.3852    
        28   0             -322.50284      7950.6003      6151.6097      6151.6097      11548.581      6.1469273e-08 -6.1755676e-08  5.0372524e-08  8.1000093      12.150014      16.038018      1578.3852    
        29   0             -322.50284      7950.6003      6151.6097      6151.6097      11548.581     -1.0726411e-08 -5.8218005e-09 -3.1030027e-08  8.1000093      12.150014      16.038018      1578.3852    
        30   0             -322.50284      7950.6003      6151.6097      6151.6097      11548.581     -1.078004e-08  -5.2206424e-09 -7.0888371e-09  8.1000093      12.150014      16.038018      1578.3852    
        31   0             -322.50284      7950.6003      6151.6097      6151.6097      11548.581     -8.6657758e-09 -2.3060218e-10 -3.1170887e-09  8.1000093      12.150014      16.038018      1578.3852    
        32   0             -322.50284      7950.6003      6151.6097      6151.6097      11548.581     -4.5456786e-09 -5.9859106e-10 -2.6346644e-10  8.1000093      12.150014      16.038018      1578.3852    
        33   0             -322.50284      7950.6003      6151.6097      6151.6097      11548.581     -2.6062409e-09 -2.2990976e-10  2.2189447e-10  8.1000093      12.150014      16.038018      1578.3852    
        34   0             -322.50284      7950.6003      6151.6097      6151.6097      11548.581     -1.3715708e-09 -6.4269899e-11  1.8869275e-10  8.1000093      12.150014      16.038018      1578.3852    
        35   0             -322.50284      7950.6003      6151.6097      6151.6097      11548.581     -7.140826e-10  -6.9862288e-11  5.0423072e-11  8.1000093      12.150014      16.038018      1578.3852    
        36   0             -322.50284      7950.6003      6151.6097      6151.6097      11548.581     -3.1873179e-10 -3.6635631e-11 -2.7617596e-11  8.1000093      12.150014      16.038018      1578.3852    
        37   0             -322.50284      7950.6003      6151.6097      6151.6097      11548.581     -1.0271514e-10  1.4891566e-11 -5.3813439e-11  8.1000093      12.150014      16.038018      1578.3852    
        38   0             -322.50284      7950.6003      6151.6097      6151.6097      11548.581     -9.4805309e-12 -5.4810452e-12 -3.2260734e-11  8.1000093      12.150014      16.038018      1578.3852    
        39   0             -322.50284      7950.6003      6151.6097      6151.6097      11548.581     -1.2628969e-11  1.122454e-11  -5.3326479e-11  8.1000093      12.150014      16.038018      1578.3852    
        40   0             -322.50284      7950.6003      6151.6097      6151.6097      11548.581     -1.3981318e-12 -5.7981305e-12 -2.1362231e-11  8.1000093      12.150014      16.038018      1578.3852    
        41   0             -322.50284      7950.6003      6151.6097      6151.6097      11548.581     -1.4062318e-11  5.7267808e-12  1.041223e-11   8.1000093      12.150014      16.038018      1578.3852    
        42   0             -322.50284      7950.6003      6151.6097      6151.6097      11548.581      8.8959217e-12 -1.2113524e-11  1.6397374e-11  8.1000093      12.150014      16.038018      1578.3852    
        43   0             -322.50284      7950.6003      6151.6097      6151.6097      11548.581     -1.2748708e-12 -1.3143693e-11  2.6535338e-11  8.1000093      12.150014      16.038018      1578.3852    
        44   0             -322.50284      7950.6003      6151.6097      6151.6097      11548.581     -9.4030526e-13  1.2198074e-12 -7.8581263e-12  8.1000093      12.150014      16.038018      1578.3852    
        45   0             -322.50284      7950.6003      6151.6097      6151.6097      11548.581     -2.5250894e-12 -1.1907687e-11 -4.9187815e-11  8.1000093      12.150014      16.038018      1578.3852    
        46   0             -322.50284      7950.6003      6151.6097      6151.6097      11548.581     -1.4847667e-11  5.290123e-12  -2.0836383e-11  8.1000093      12.150014      16.038018      1578.3852    
        47   0             -322.50284      7950.6003      6151.6097      6151.6097      11548.581     -2.5814373e-12  7.7534263e-12 -4.986825e-12   8.1000093      12.150014      16.038018      1578.3852    
        48   0             -322.50284      7950.6003      6151.6097      6151.6097      11548.581      2.1824239e-11  5.9520842e-13  1.5848213e-11  8.1000093      12.150014      16.038018      1578.3852    
        49   0             -322.50284      7950.6003      6151.6097      6151.6097      11548.581     -7.4977899e-12 -1.5534562e-12 -4.6932702e-11  8.1000093      12.150014      16.038018      1578.3852    
        50   0             -322.50284      7950.6003      6151.6097      6151.6097      11548.581     -5.3143095e-12  4.3770359e-12 -3.2733589e-11  8.1000093      12.150014      16.038018      1578.3852    
        51   0             -322.50284      7950.6003      6151.6097      6151.6097      11548.581      1.6428929e-11 -1.2442971e-11 -1.6001609e-11  8.1000093      12.150014      16.038018      1578.3852    
Loop time of 0.007135 on 1 procs for 25 steps with 96 atoms

0.0% CPU use with 1 MPI tasks x 1 OpenMP threads

Minimization stats:
  Stopping criterion = force tolerance
  Energy initial, next-to-last, final = 
     -322.502835332527  -322.502835353256  -322.502835353257
  Force two-norm initial, final = 0.00050065735 9.4993552e-11
  Force max component initial, final = 7.6370795e-05 1.6422003e-11
  Final line search alpha, max atom move = 1 1.6422003e-11
  Iterations, force evaluations = 25 50

MPI task timing breakdown:
Section |  min time  |  avg time  |  max time  |%varavg| %total
---------------------------------------------------------------
Pair    | 0.006653   | 0.006653   | 0.006653   |   0.0 | 93.24
Neigh   | 0          | 0          | 0          |   0.0 |  0.00
Comm    | 0.000134   | 0.000134   | 0.000134   |   0.0 |  1.88
Output  | 0.000235   | 0.000235   | 0.000235   |   0.0 |  3.29
Modify  | 0          | 0          | 0          |   0.0 |  0.00
Other   |            | 0.000113   |            |       |  1.58

Nlocal:             96 ave          96 max          96 min
Histogram: 1 0 0 0 0 0 0 0 0 0
Nghost:            976 ave         976 max         976 min
Histogram: 1 0 0 0 0 0 0 0 0 0
Neighs:           4128 ave        4128 max        4128 min
Histogram: 1 0 0 0 0 0 0 0 0 0

Total # of neighbors = 4128
Ave neighs/atom = 43
Neighbor list builds = 0
Dangerous builds = 0
OMP_NUM_THREADS environment is not set. Defaulting to 1 thread. (src/comm.cpp:98)
  using 1 OpenMP thread(s) per MPI task
Loaded 1 plugins from F:\Lammps\LAMMPS 64-bit 2Aug2023\plugins

The 'box' command has been removed and will be ignored

Reading restart file ...
  restart file = 2 Aug 2023, LAMMPS = 2 Aug 2023
  restoring atom style atomic from restart
  triclinic box = (-0.010004662 -0.015006993 -0.020009324) to (8.0900047 12.135007 16.180009) with tilt (0 0 0)
  1 by 1 by 1 MPI processor grid
  pair style eam/alloy stores no restart info
  96 atoms
  read_restart CPU = 0.000 seconds
Changing box ...
  triclinic box = (-0.010004662 -0.015006993 -0.020009324) to (8.0900047 12.135007 16.34201) with tilt (0 0 0)
Neighbor list info ...
  update: every = 1 steps, delay = 0 steps, check = yes
  max neighbors/atom: 2000, page size: 100000
  master list distance cutoff = 7.28721
  ghost atom cutoff = 7.28721
  1 neighbor lists, perpetual/occasional/extra = 1 0 0
  (1) pair eam/alloy, perpetual
      attributes: half, newton on
      pair build: half/nsq/newton
      stencil: none
      bin: none
Setting up cg style minimization ...
  Unit style    : metal
  Current step  : 26
Per MPI rank memory allocation (min/avg/max) = 4.449 | 4.449 | 4.449 Mbytes
   Step          Temp          PotEng         Press           Pxx            Pyy            Pzz            Pxy            Pxz            Pyz             Lx             Ly             Lz           Volume    
        26   0             -322.50422     -7747.3128     -6056.215      -6056.215      -11129.509      1.755312e-06  -8.6081134e-07  2.0599816e-06  8.1000093      12.150014      16.362019      1610.2718    
        27   0             -322.50422     -7747.3129     -6056.215      -6056.215      -11129.509     -3.7301943e-07  1.0149882e-08 -2.1401424e-08  8.1000093      12.150014      16.362019      1610.2718    
        28   0             -322.50422     -7747.3129     -6056.215      -6056.215      -11129.509      7.2388546e-08 -1.2015823e-07  1.1671746e-07  8.1000093      12.150014      16.362019      1610.2718    
        29   0             -322.50422     -7747.3129     -6056.215      -6056.215      -11129.509     -9.487508e-09  -2.061135e-08  -1.998213e-08   8.1000093      12.150014      16.362019      1610.2718    
        30   0             -322.50422     -7747.3129     -6056.215      -6056.215      -11129.509     -9.261916e-09  -1.0955499e-08 -2.6785979e-09  8.1000093      12.150014      16.362019      1610.2718    
        31   0             -322.50422     -7747.3129     -6056.215      -6056.215      -11129.509     -8.4338559e-09 -1.9983764e-09 -2.5240648e-09  8.1000093      12.150014      16.362019      1610.2718    
        32   0             -322.50422     -7747.3129     -6056.215      -6056.215      -11129.509     -4.4240241e-09 -5.4765916e-10 -1.8200944e-10  8.1000093      12.150014      16.362019      1610.2718    
        33   0             -322.50422     -7747.3129     -6056.215      -6056.215      -11129.509     -2.5673563e-09 -4.7423397e-11  9.7287805e-11  8.1000093      12.150014      16.362019      1610.2718    
        34   0             -322.50422     -7747.3129     -6056.215      -6056.215      -11129.509     -1.3948793e-09 -9.0215273e-11  1.7599538e-11  8.1000093      12.150014      16.362019      1610.2718    
        35   0             -322.50422     -7747.3129     -6056.215      -6056.215      -11129.509     -7.0978057e-10 -6.6386412e-11  3.718318e-11   8.1000093      12.150014      16.362019      1610.2718    
        36   0             -322.50422     -7747.3129     -6056.215      -6056.215      -11129.509     -3.4035734e-10 -3.8487623e-11 -1.0599044e-11  8.1000093      12.150014      16.362019      1610.2718    
        37   0             -322.50422     -7747.3129     -6056.215      -6056.215      -11129.509     -1.0520676e-10 -2.8046938e-12  2.6665364e-11  8.1000093      12.150014      16.362019      1610.2718    
        38   0             -322.50422     -7747.3129     -6056.215      -6056.215      -11129.509     -2.1937492e-11 -3.5149921e-12  3.8677315e-12  8.1000093      12.150014      16.362019      1610.2718    
        39   0             -322.50422     -7747.3129     -6056.215      -6056.215      -11129.509      1.8419899e-11 -2.0244186e-12 -1.7005039e-11  8.1000093      12.150014      16.362019      1610.2718    
        40   0             -322.50422     -7747.3129     -6056.215      -6056.215      -11129.509     -1.3014059e-12  2.4241871e-11 -3.0371277e-11  8.1000093      12.150014      16.362019      1610.2718    
        41   0             -322.50422     -7747.3129     -6056.215      -6056.215      -11129.509     -9.3687417e-12 -3.2857613e-12 -3.5223044e-12  8.1000093      12.150014      16.362019      1610.2718    
        42   0             -322.50422     -7747.3129     -6056.215      -6056.215      -11129.509     -1.904126e-11   1.7774287e-11 -7.8957729e-13  8.1000093      12.150014      16.362019      1610.2718    
        43   0             -322.50422     -7747.3129     -6056.215      -6056.215      -11129.509      1.3735528e-11  4.7772466e-12  6.910754e-12   8.1000093      12.150014      16.362019      1610.2718    
        44   0             -322.50422     -7747.3129     -6056.215      -6056.215      -11129.509      4.1769261e-12  5.4981535e-13 -1.3919367e-11  8.1000093      12.150014      16.362019      1610.2718    
        45   0             -322.50422     -7747.3129     -6056.215      -6056.215      -11129.509      1.0873816e-11 -2.2148595e-12 -1.8146809e-11  8.1000093      12.150014      16.362019      1610.2718    
        46   0             -322.50422     -7747.3129     -6056.215      -6056.215      -11129.509      5.9478047e-12  1.4856983e-11  8.0868066e-12  8.1000093      12.150014      16.362019      1610.2718    
        47   0             -322.50422     -7747.3129     -6056.215      -6056.215      -11129.509      1.9193148e-12 -3.6116888e-14  6.5917188e-13  8.1000093      12.150014      16.362019      1610.2718    
        48   0             -322.50422     -7747.3129     -6056.215      -6056.215      -11129.509      1.2164866e-11  1.3599058e-11  1.118649e-11   8.1000093      12.150014      16.362019      1610.2718    
        49   0             -322.50422     -7747.3129     -6056.215      -6056.215      -11129.509      1.6907921e-11 -1.4265942e-11 -7.4458291e-12  8.1000093      12.150014      16.362019      1610.2718    
        50   0             -322.50422     -7747.3129     -6056.215      -6056.215      -11129.509     -7.0420903e-12  3.4795905e-11 -3.5194642e-11  8.1000093      12.150014      16.362019      1610.2718    
        51   0             -322.50422     -7747.3129     -6056.215      -6056.215      -11129.509      3.9145737e-12 -1.9612793e-12 -1.4424323e-12  8.1000093      12.150014      16.362019      1610.2718    
Loop time of 0.007176 on 1 procs for 25 steps with 96 atoms

217.7% CPU use with 1 MPI tasks x 1 OpenMP threads

Minimization stats:
  Stopping criterion = force tolerance
  Energy initial, next-to-last, final = 
     -322.504218118909  -322.504218139068   -322.50421813907
  Force two-norm initial, final = 0.00048409772 8.3743568e-11
  Force max component initial, final = 7.4124169e-05 1.5722125e-11
  Final line search alpha, max atom move = 1 1.5722125e-11
  Iterations, force evaluations = 25 50

MPI task timing breakdown:
Section |  min time  |  avg time  |  max time  |%varavg| %total
---------------------------------------------------------------
Pair    | 0.006704   | 0.006704   | 0.006704   |   0.0 | 93.42
Neigh   | 0          | 0          | 0          |   0.0 |  0.00
Comm    | 0.00014    | 0.00014    | 0.00014    |   0.0 |  1.95
Output  | 0.000227   | 0.000227   | 0.000227   |   0.0 |  3.16
Modify  | 0          | 0          | 0          |   0.0 |  0.00
Other   |            | 0.000105   |            |       |  1.46

Nlocal:             96 ave          96 max          96 min
Histogram: 1 0 0 0 0 0 0 0 0 0
Nghost:            976 ave         976 max         976 min
Histogram: 1 0 0 0 0 0 0 0 0 0
Neighs:           4128 ave        4128 max        4128 min
Histogram: 1 0 0 0 0 0 0 0 0 0

Total # of neighbors = 4128
Ave neighs/atom = 43
Neighbor list builds = 0
Dangerous builds = 0
OMP_NUM_THREADS environment is not set. Defaulting to 1 thread. (src/comm.cpp:98)
  using 1 OpenMP thread(s) per MPI task
Loaded 1 plugins from F:\Lammps\LAMMPS 64-bit 2Aug2023\plugins

The 'box' command has been removed and will be ignored

Reading restart file ...
  restart file = 2 Aug 2023, LAMMPS = 2 Aug 2023
  restoring atom style atomic from restart
  triclinic box = (-0.010004662 -0.015006993 -0.020009324) to (8.0900047 12.135007 16.180009) with tilt (0 0 0)
  1 by 1 by 1 MPI processor grid
  pair style eam/alloy stores no restart info
  96 atoms
  read_restart CPU = 0.000 seconds
Changing box ...
  triclinic box = (-0.010004662 -0.015006993 -0.020009324) to (8.0900047 12.135007 16.180009) with tilt (0 0 -0.16200019)
Neighbor list info ...
  update: every = 1 steps, delay = 0 steps, check = yes
  max neighbors/atom: 2000, page size: 100000
  master list distance cutoff = 7.28721
  ghost atom cutoff = 7.28721
  1 neighbor lists, perpetual/occasional/extra = 1 0 0
  (1) pair eam/alloy, perpetual
      attributes: half, newton on
      pair build: half/nsq/newton
      stencil: none
      bin: none
Setting up cg style minimization ...
  Unit style    : metal
  Current step  : 26
Per MPI rank memory allocation (min/avg/max) = 4.449 | 4.449 | 4.449 Mbytes
   Step          Temp          PotEng         Press           Pxx            Pyy            Pzz            Pxy            Pxz            Pyz             Lx             Ly             Lz           Volume    
        26   0             -322.54425      16.99956       25.747136     -6.0124783      31.264023      1.7209334e-06 -3.7018054e-07  3169.7332      8.1000093      12.150014      16.200019      1594.3285    
        27   0             -322.54425      16.99954       25.747118     -6.0124962      31.263998     -2.4324261e-07  9.0521879e-08  3169.7332      8.1000093      12.150014      16.200019      1594.3285    
        28   0             -322.54425      16.999537      25.747115     -6.0124993      31.263995      6.8036163e-08 -8.505397e-08   3169.7332      8.1000093      12.150014      16.200019      1594.3285    
        29   0             -322.54425      16.999536      25.747114     -6.0125         31.263994     -1.1865147e-08 -1.0544783e-08  3169.7332      8.1000093      12.150014      16.200019      1594.3285    
        30   0             -322.54425      16.999536      25.747114     -6.0125001      31.263994     -1.0567375e-08 -7.97783e-09    3169.7332      8.1000093      12.150014      16.200019      1594.3285    
        31   0             -322.54425      16.999536      25.747114     -6.0125002      31.263994     -8.8437976e-09 -6.9140388e-10  3169.7332      8.1000093      12.150014      16.200019      1594.3285    
        32   0             -322.54425      16.999536      25.747114     -6.0125002      31.263994     -4.7585106e-09 -7.4794228e-10  3169.7332      8.1000093      12.150014      16.200019      1594.3285    
        33   0             -322.54425      16.999536      25.747114     -6.0125002      31.263994     -2.7306988e-09 -1.9514072e-10  3169.7332      8.1000093      12.150014      16.200019      1594.3285    
        34   0             -322.54425      16.999536      25.747114     -6.0125002      31.263994     -1.4806958e-09 -8.0357862e-11  3169.7332      8.1000093      12.150014      16.200019      1594.3285    
        35   0             -322.54425      16.999536      25.747114     -6.0125002      31.263994     -7.6219274e-10 -7.0940197e-11  3169.7332      8.1000093      12.150014      16.200019      1594.3285    
        36   0             -322.54425      16.999536      25.747114     -6.0125002      31.263994     -3.6309021e-10 -4.3946506e-11  3169.7332      8.1000093      12.150014      16.200019      1594.3285    
        37   0             -322.54425      16.999536      25.747114     -6.0125002      31.263994     -1.1805723e-10 -4.126752e-12   3169.7332      8.1000093      12.150014      16.200019      1594.3285    
        38   0             -322.54425      16.999536      25.747114     -6.0125002      31.263994     -8.8488007e-12 -1.1386477e-11  3169.7332      8.1000093      12.150014      16.200019      1594.3285    
        39   0             -322.54425      16.999536      25.747114     -6.0125002      31.263994     -2.8589506e-12  1.0688301e-11  3169.7332      8.1000093      12.150014      16.200019      1594.3285    
        40   0             -322.54425      16.999536      25.747114     -6.0125002      31.263994      2.5312172e-12 -8.0419699e-12  3169.7332      8.1000093      12.150014      16.200019      1594.3285    
        41   0             -322.54425      16.999536      25.747114     -6.0125002      31.263994      6.8684545e-13 -5.0537318e-12  3169.7332      8.1000093      12.150014      16.200019      1594.3285    
        42   0             -322.54425      16.999536      25.747114     -6.0125002      31.263994      4.5185365e-12  2.1844491e-11  3169.7332      8.1000093      12.150014      16.200019      1594.3285    
        43   0             -322.54425      16.999536      25.747114     -6.0125002      31.263994     -1.0100463e-11  1.6545062e-11  3169.7332      8.1000093      12.150014      16.200019      1594.3285    
        44   0             -322.54425      16.999536      25.747114     -6.0125002      31.263994     -6.2687722e-12 -1.2419419e-13  3169.7332      8.1000093      12.150014      16.200019      1594.3285    
        45   0             -322.54425      16.999536      25.747114     -6.0125002      31.263994      9.434537e-12  -4.286992e-12   3169.7332      8.1000093      12.150014      16.200019      1594.3285    
        46   0             -322.54425      16.999536      25.747114     -6.0125002      31.263994      8.0643326e-12 -5.1742338e-12  3169.7332      8.1000093      12.150014      16.200019      1594.3285    
        47   0             -322.54425      16.999536      25.747114     -6.0125002      31.263994      8.2037936e-12 -2.3028022e-11  3169.7332      8.1000093      12.150014      16.200019      1594.3285    
        48   0             -322.54425      16.999536      25.747114     -6.0125002      31.263994     -2.6846243e-12 -2.198592e-12   3169.7332      8.1000093      12.150014      16.200019      1594.3285    
        49   0             -322.54425      16.999536      25.747114     -6.0125002      31.263994      5.6516572e-12  2.0805902e-11  3169.7332      8.1000093      12.150014      16.200019      1594.3285    
        50   0             -322.54425      16.999536      25.747114     -6.0125002      31.263994      4.0095039e-13 -7.5714528e-13  3169.7332      8.1000093      12.150014      16.200019      1594.3285    
        51   0             -322.54425      16.999536      25.747114     -6.0125002      31.263994     -1.7470977e-11 -6.5276476e-12  3169.7332      8.1000093      12.150014      16.200019      1594.3285    
        52   0             -322.54425      16.999536      25.747114     -6.0125002      31.263994     -3.1622783e-12 -1.7683683e-11  3169.7332      8.1000093      12.150014      16.200019      1594.3285    
        53   0             -322.54425      16.999536      25.747114     -6.0125002      31.263994     -6.5442076e-12  2.8292636e-12  3169.7332      8.1000093      12.150014      16.200019      1594.3285    
        54   0             -322.54425      16.999536      25.747114     -6.0125002      31.263994      1.8098552e-11 -9.1678456e-12  3169.7332      8.1000093      12.150014      16.200019      1594.3285    
Loop time of 0.007901 on 1 procs for 28 steps with 96 atoms

197.8% CPU use with 1 MPI tasks x 1 OpenMP threads

Minimization stats:
  Stopping criterion = force tolerance
  Energy initial, next-to-last, final = 
     -322.544253074984  -322.544253095445  -322.544253095449
  Force two-norm initial, final = 0.00049284707 8.1145725e-11
  Force max component initial, final = 7.537126e-05 1.2862366e-11
  Final line search alpha, max atom move = 1 1.2862366e-11
  Iterations, force evaluations = 28 56

MPI task timing breakdown:
Section |  min time  |  avg time  |  max time  |%varavg| %total
---------------------------------------------------------------
Pair    | 0.007367   | 0.007367   | 0.007367   |   0.0 | 93.24
Neigh   | 0          | 0          | 0          |   0.0 |  0.00
Comm    | 0.000152   | 0.000152   | 0.000152   |   0.0 |  1.92
Output  | 0.000238   | 0.000238   | 0.000238   |   0.0 |  3.01
Modify  | 0          | 0          | 0          |   0.0 |  0.00
Other   |            | 0.000144   |            |       |  1.82

Nlocal:             96 ave          96 max          96 min
Histogram: 1 0 0 0 0 0 0 0 0 0
Nghost:            976 ave         976 max         976 min
Histogram: 1 0 0 0 0 0 0 0 0 0
Neighs:           4128 ave        4128 max        4128 min
Histogram: 1 0 0 0 0 0 0 0 0 0

Total # of neighbors = 4128
Ave neighs/atom = 43
Neighbor list builds = 0
Dangerous builds = 0
OMP_NUM_THREADS environment is not set. Defaulting to 1 thread. (src/comm.cpp:98)
  using 1 OpenMP thread(s) per MPI task
Loaded 1 plugins from F:\Lammps\LAMMPS 64-bit 2Aug2023\plugins

The 'box' command has been removed and will be ignored

Reading restart file ...
  restart file = 2 Aug 2023, LAMMPS = 2 Aug 2023
  restoring atom style atomic from restart
  triclinic box = (-0.010004662 -0.015006993 -0.020009324) to (8.0900047 12.135007 16.180009) with tilt (0 0 0)
  1 by 1 by 1 MPI processor grid
  pair style eam/alloy stores no restart info
  96 atoms
  read_restart CPU = 0.000 seconds
Changing box ...
  triclinic box = (-0.010004662 -0.015006993 -0.020009324) to (8.0900047 12.135007 16.180009) with tilt (0 0 0.16200019)
Neighbor list info ...
  update: every = 1 steps, delay = 0 steps, check = yes
  max neighbors/atom: 2000, page size: 100000
  master list distance cutoff = 7.28721
  ghost atom cutoff = 7.28721
  1 neighbor lists, perpetual/occasional/extra = 1 0 0
  (1) pair eam/alloy, perpetual
      attributes: half, newton on
      pair build: half/nsq/newton
      stencil: none
      bin: none
Setting up cg style minimization ...
  Unit style    : metal
  Current step  : 26
Per MPI rank memory allocation (min/avg/max) = 4.449 | 4.449 | 4.449 Mbytes
   Step          Temp          PotEng         Press           Pxx            Pyy            Pzz            Pxy            Pxz            Pyz             Lx             Ly             Lz           Volume    
        26   0             -322.54425      16.99956       25.747136     -6.0124788      31.264022      1.5454496e-06 -4.093876e-07  -3169.7332      8.1000093      12.150014      16.200019      1594.3285    
        27   0             -322.54425      16.99954       25.747118     -6.0124962      31.263998     -3.8192562e-07  4.5385455e-08 -3169.7332      8.1000093      12.150014      16.200019      1594.3285    
        28   0             -322.54425      16.999537      25.747115     -6.0124992      31.263995      6.2192496e-08 -9.2158033e-08 -3169.7332      8.1000093      12.150014      16.200019      1594.3285    
        29   0             -322.54425      16.999536      25.747114     -6.0125         31.263994     -8.2996905e-09 -1.2614297e-08 -3169.7332      8.1000093      12.150014      16.200019      1594.3285    
        30   0             -322.54425      16.999536      25.747114     -6.0125001      31.263994     -1.0052475e-08 -6.6360626e-09 -3169.7332      8.1000093      12.150014      16.200019      1594.3285    
        31   0             -322.54425      16.999536      25.747114     -6.0125002      31.263994     -8.5403479e-09 -1.0154678e-09 -3169.7332      8.1000093      12.150014      16.200019      1594.3285    
        32   0             -322.54425      16.999536      25.747114     -6.0125002      31.263994     -4.3696968e-09 -4.1605282e-10 -3169.7332      8.1000093      12.150014      16.200019      1594.3285    
        33   0             -322.54425      16.999536      25.747114     -6.0125002      31.263994     -2.5909832e-09 -1.4946443e-10 -3169.7332      8.1000093      12.150014      16.200019      1594.3285    
        34   0             -322.54425      16.999536      25.747114     -6.0125002      31.263994     -1.3903983e-09 -1.1561604e-10 -3169.7332      8.1000093      12.150014      16.200019      1594.3285    
        35   0             -322.54425      16.999536      25.747114     -6.0125002      31.263994     -6.862632e-10  -6.7174466e-11 -3169.7332      8.1000093      12.150014      16.200019      1594.3285    
        36   0             -322.54425      16.999536      25.747114     -6.0125002      31.263994     -3.6308324e-10 -2.9416585e-11 -3169.7332      8.1000093      12.150014      16.200019      1594.3285    
        37   0             -322.54425      16.999536      25.747114     -6.0125002      31.263994     -1.1579796e-10 -2.4363121e-11 -3169.7332      8.1000093      12.150014      16.200019      1594.3285    
        38   0             -322.54425      16.999536      25.747114     -6.0125002      31.263994     -2.2177786e-11 -1.5045233e-11 -3169.7332      8.1000093      12.150014      16.200019      1594.3285    
        39   0             -322.54425      16.999536      25.747114     -6.0125002      31.263994     -4.1977762e-12  1.7219879e-11 -3169.7332      8.1000093      12.150014      16.200019      1594.3285    
        40   0             -322.54425      16.999536      25.747114     -6.0125002      31.263994      1.9922005e-11  1.1481178e-11 -3169.7332      8.1000093      12.150014      16.200019      1594.3285    
        41   0             -322.54425      16.999536      25.747114     -6.0125002      31.263994     -4.3825621e-12 -1.0482134e-11 -3169.7332      8.1000093      12.150014      16.200019      1594.3285    
        42   0             -322.54425      16.999536      25.747114     -6.0125002      31.263994     -4.5534018e-12 -1.0941157e-11 -3169.7332      8.1000093      12.150014      16.200019      1594.3285    
        43   0             -322.54425      16.999536      25.747114     -6.0125002      31.263994      3.2424684e-12  8.5163513e-12 -3169.7332      8.1000093      12.150014      16.200019      1594.3285    
        44   0             -322.54425      16.999536      25.747114     -6.0125002      31.263994      1.075593e-11   3.8645459e-12 -3169.7332      8.1000093      12.150014      16.200019      1594.3285    
        45   0             -322.54425      16.999536      25.747114     -6.0125002      31.263994     -2.5911855e-11 -1.3472041e-11 -3169.7332      8.1000093      12.150014      16.200019      1594.3285    
        46   0             -322.54425      16.999536      25.747114     -6.0125002      31.263994     -6.5825594e-12  8.4071866e-12 -3169.7332      8.1000093      12.150014      16.200019      1594.3285    
        47   0             -322.54425      16.999536      25.747114     -6.0125002      31.263994     -9.7378646e-12 -1.772897e-11  -3169.7332      8.1000093      12.150014      16.200019      1594.3285    
        48   0             -322.54425      16.999536      25.747114     -6.0125002      31.263994      5.3169508e-12  6.0299597e-12 -3169.7332      8.1000093      12.150014      16.200019      1594.3285    
        49   0             -322.54425      16.999536      25.747114     -6.0125002      31.263994      9.1207497e-12 -5.1772503e-12 -3169.7332      8.1000093      12.150014      16.200019      1594.3285    
        50   0             -322.54425      16.999536      25.747114     -6.0125002      31.263994     -5.836443e-12  -5.1282429e-12 -3169.7332      8.1000093      12.150014      16.200019      1594.3285    
        51   0             -322.54425      16.999536      25.747114     -6.0125002      31.263994      2.3338799e-11  8.5712166e-12 -3169.7332      8.1000093      12.150014      16.200019      1594.3285    
        52   0             -322.54425      16.999536      25.747114     -6.0125002      31.263994     -1.2478273e-11 -1.9718331e-12 -3169.7332      8.1000093      12.150014      16.200019      1594.3285    
        53   0             -322.54425      16.999536      25.747114     -6.0125002      31.263994     -1.0166707e-11  2.3358327e-12 -3169.7332      8.1000093      12.150014      16.200019      1594.3285    
        54   0             -322.54425      16.999536      25.747114     -6.0125002      31.263994     -8.0190078e-14  3.3946026e-12 -3169.7332      8.1000093      12.150014      16.200019      1594.3285    
Loop time of 0.007856 on 1 procs for 28 steps with 96 atoms

198.9% CPU use with 1 MPI tasks x 1 OpenMP threads

Minimization stats:
  Stopping criterion = force tolerance
  Energy initial, next-to-last, final = 
     -322.544253075019  -322.544253095447  -322.544253095447
  Force two-norm initial, final = 0.00049208651 7.8596532e-11
  Force max component initial, final = 7.4593533e-05 1.3066315e-11
  Final line search alpha, max atom move = 1 1.3066315e-11
  Iterations, force evaluations = 28 56

MPI task timing breakdown:
Section |  min time  |  avg time  |  max time  |%varavg| %total
---------------------------------------------------------------
Pair    | 0.007366   | 0.007366   | 0.007366   |   0.0 | 93.76
Neigh   | 0          | 0          | 0          |   0.0 |  0.00
Comm    | 0.000153   | 0.000153   | 0.000153   |   0.0 |  1.95
Output  | 0.000224   | 0.000224   | 0.000224   |   0.0 |  2.85
Modify  | 0          | 0          | 0          |   0.0 |  0.00
Other   |            | 0.000113   |            |       |  1.44

Nlocal:             96 ave          96 max          96 min
Histogram: 1 0 0 0 0 0 0 0 0 0
Nghost:            976 ave         976 max         976 min
Histogram: 1 0 0 0 0 0 0 0 0 0
Neighs:           4128 ave        4128 max        4128 min
Histogram: 1 0 0 0 0 0 0 0 0 0

Total # of neighbors = 4128
Ave neighs/atom = 43
Neighbor list builds = 0
Dangerous builds = 0
OMP_NUM_THREADS environment is not set. Defaulting to 1 thread. (src/comm.cpp:98)
  using 1 OpenMP thread(s) per MPI task
Loaded 1 plugins from F:\Lammps\LAMMPS 64-bit 2Aug2023\plugins

The 'box' command has been removed and will be ignored

Reading restart file ...
  restart file = 2 Aug 2023, LAMMPS = 2 Aug 2023
  restoring atom style atomic from restart
  triclinic box = (-0.010004662 -0.015006993 -0.020009324) to (8.0900047 12.135007 16.180009) with tilt (0 0 0)
  1 by 1 by 1 MPI processor grid
  pair style eam/alloy stores no restart info
  96 atoms
  read_restart CPU = 0.000 seconds
Changing box ...
  triclinic box = (-0.010004662 -0.015006993 -0.020009324) to (8.0900047 12.135007 16.180009) with tilt (0 -0.16200019 0)
Neighbor list info ...
  update: every = 1 steps, delay = 0 steps, check = yes
  max neighbors/atom: 2000, page size: 100000
  master list distance cutoff = 7.28721
  ghost atom cutoff = 7.28721
  1 neighbor lists, perpetual/occasional/extra = 1 0 0
  (1) pair eam/alloy, perpetual
      attributes: half, newton on
      pair build: half/nsq/newton
      stencil: none
[...]
Pair    | 0.008071   | 0.008071   | 0.008071   |   0.0 | 93.74
Neigh   | 0          | 0          | 0          |   0.0 |  0.00
Comm    | 0.000163   | 0.000163   | 0.000163   |   0.0 |  1.89
Output  | 0.00025    | 0.00025    | 0.00025    |   0.0 |  2.90
Modify  | 0          | 0          | 0          |   0.0 |  0.00
Other   |            | 0.000126   |            |       |  1.46

Nlocal:             96 ave          96 max          96 min
Histogram: 1 0 0 0 0 0 0 0 0 0
Nghost:            976 ave         976 max         976 min
Histogram: 1 0 0 0 0 0 0 0 0 0
Neighs:           4128 ave        4128 max        4128 min
Histogram: 1 0 0 0 0 0 0 0 0 0

Total # of neighbors = 4128
Ave neighs/atom = 43
Neighbor list builds = 0
Dangerous builds = 0
OMP_NUM_THREADS environment is not set. Defaulting to 1 thread. (src/comm.cpp:98)
  using 1 OpenMP thread(s) per MPI task
Loaded 1 plugins from F:\Lammps\LAMMPS 64-bit 2Aug2023\plugins

The 'box' command has been removed and will be ignored

Reading restart file ...
  restart file = 2 Aug 2023, LAMMPS = 2 Aug 2023
  restoring atom style atomic from restart
  triclinic box = (-0.010004662 -0.015006993 -0.020009324) to (8.0900047 12.135007 16.180009) with tilt (0 0 0)
  1 by 1 by 1 MPI processor grid
  pair style eam/alloy stores no restart info
  96 atoms
  read_restart CPU = 0.000 seconds
Changing box ...
  triclinic box = (-0.010004662 -0.015006993 -0.020009324) to (8.0900047 12.135007 16.180009) with tilt (-0.12150014 0 0)
Neighbor list info ...
  update: every = 1 steps, delay = 0 steps, check = yes
  max neighbors/atom: 2000, page size: 100000
  master list distance cutoff = 7.28721
  ghost atom cutoff = 7.28721
  1 neighbor lists, perpetual/occasional/extra = 1 0 0
  (1) pair eam/alloy, perpetual
      attributes: half, newton on
      pair build: half/nsq/newton
      stencil: none
      bin: none
Setting up cg style minimization ...
  Unit style    : metal
  Current step  : 26
Per MPI rank memory allocation (min/avg/max) = 4.449 | 4.449 | 4.449 Mbytes
   Step          Temp          PotEng         Press           Pxx            Pyy            Pzz            Pxy            Pxz            Pyz             Lx             Ly             Lz           Volume    
        26   0             -322.54425      16.99956      -6.0124784      31.264016      25.747143      3169.7332     -5.0223391e-07  1.8515155e-06  8.1000093      12.150014      16.200019      1594.3285    
        27   0             -322.54425      16.99954      -6.0124963      31.263998      25.747118      3169.7332     -6.0892073e-09  3.7727008e-08  8.1000093      12.150014      16.200019      1594.3285    
        28   0             -322.54425      16.999537     -6.0124995      31.263995      25.747115      3169.7332     -9.6054262e-08  8.9839302e-08  8.1000093      12.150014      16.200019      1594.3285    
        29   0             -322.54425      16.999536     -6.0125         31.263994      25.747114      3169.7332     -1.1703396e-08 -2.571942e-08   8.1000093      12.150014      16.200019      1594.3285    
        30   0             -322.54425      16.999536     -6.0125002      31.263994      25.747114      3169.7332     -7.9209543e-09 -4.6604507e-09  8.1000093      12.150014      16.200019      1594.3285    
        31   0             -322.54425      16.999536     -6.0125002      31.263994      25.747114      3169.7332     -9.4631528e-10 -2.729832e-09   8.1000093      12.150014      16.200019      1594.3285    
        32   0             -322.54425      16.999536     -6.0125002      31.263994      25.747114      3169.7332     -5.0348784e-10 -9.3164676e-11  8.1000093      12.150014      16.200019      1594.3285    
        33   0             -322.54425      16.999536     -6.0125002      31.263994      25.747114      3169.7332     -1.6326915e-10  1.8984607e-10  8.1000093      12.150014      16.200019      1594.3285    
        34   0             -322.54425      16.999536     -6.0125002      31.263994      25.747114      3169.7332     -1.1720124e-10  1.1098298e-10  8.1000093      12.150014      16.200019      1594.3285    
        35   0             -322.54425      16.999536     -6.0125002      31.263994      25.747114      3169.7332     -9.6186835e-11  4.9631068e-11  8.1000093      12.150014      16.200019      1594.3285    
        36   0             -322.54425      16.999536     -6.0125002      31.263994      25.747114      3169.7332     -2.6137814e-11  3.760703e-11   8.1000093      12.150014      16.200019      1594.3285    
        37   0             -322.54425      16.999536     -6.0125002      31.263994      25.747114      3169.7332     -1.5257845e-11 -1.8138812e-11  8.1000093      12.150014      16.200019      1594.3285    
        38   0             -322.54425      16.999536     -6.0125002      31.263994      25.747114      3169.7332      7.0701974e-12 -1.388791e-12   8.1000093      12.150014      16.200019      1594.3285    
        39   0             -322.54425      16.999536     -6.0125002      31.263994      25.747114      3169.7332     -4.8832132e-12  9.6927833e-12  8.1000093      12.150014      16.200019      1594.3285    
        40   0             -322.54425      16.999536     -6.0125002      31.263994      25.747114      3169.7332     -4.2877211e-12 -1.3853438e-11  8.1000093      12.150014      16.200019      1594.3285    
        41   0             -322.54425      16.999536     -6.0125002      31.263994      25.747114      3169.7332      8.5301173e-12 -2.3630002e-11  8.1000093      12.150014      16.200019      1594.3285    
        42   0             -322.54425      16.999536     -6.0125002      31.263994      25.747114      3169.7332      7.8758408e-12  3.1692085e-11  8.1000093      12.150014      16.200019      1594.3285    
        43   0             -322.54425      16.999536     -6.0125002      31.263994      25.747114      3169.7332      8.8253174e-12 -4.8675442e-12  8.1000093      12.150014      16.200019      1594.3285    
        44   0             -322.54425      16.999536     -6.0125002      31.263994      25.747114      3169.7332     -1.2936682e-12  1.3344094e-11  8.1000093      12.150014      16.200019      1594.3285    
        45   0             -322.54425      16.999536     -6.0125002      31.263994      25.747114      3169.7332     -6.2013136e-12  9.0752214e-13  8.1000093      12.150014      16.200019      1594.3285    
        46   0             -322.54425      16.999536     -6.0125002      31.263994      25.747114      3169.7332      1.7261419e-11 -1.2439726e-11  8.1000093      12.150014      16.200019      1594.3285    
        47   0             -322.54425      16.999536     -6.0125002      31.263994      25.747114      3169.7332      1.2323132e-11  3.2405958e-11  8.1000093      12.150014      16.200019      1594.3285    
        48   0             -322.54425      16.999536     -6.0125002      31.263994      25.747114      3169.7332      1.8772365e-12  5.9957883e-12  8.1000093      12.150014      16.200019      1594.3285    
        49   0             -322.54425      16.999536     -6.0125002      31.263994      25.747114      3169.7332      1.4023598e-11 -6.6632197e-12  8.1000093      12.150014      16.200019      1594.3285    
        50   0             -322.54425      16.999536     -6.0125002      31.263994      25.747114      3169.7332     -7.4072434e-12  1.2727947e-11  8.1000093      12.150014      16.200019      1594.3285    
        51   0             -322.54425      16.999536     -6.0125002      31.263994      25.747114      3169.7332      1.9692189e-12 -3.1473741e-11  8.1000093      12.150014      16.200019      1594.3285    
        52   0             -322.54425      16.999536     -6.0125002      31.263994      25.747114      3169.7332      1.5478568e-11 -2.6736308e-11  8.1000093      12.150014      16.200019      1594.3285    
        53   0             -322.54425      16.999536     -6.0125002      31.263994      25.747114      3169.7332     -5.1597166e-12 -2.3756264e-11  8.1000093      12.150014      16.200019      1594.3285    
        54   0             -322.54425      16.999536     -6.0125002      31.263994      25.747114      3169.7332     -2.8854354e-12  9.4841321e-12  8.1000093      12.150014      16.200019      1594.3285    
Loop time of 0.008134 on 1 procs for 28 steps with 96 atoms

192.1% CPU use with 1 MPI tasks x 1 OpenMP threads

Minimization stats:
  Stopping criterion = force tolerance
  Energy initial, next-to-last, final = 
     -322.544253074988  -322.544253095448  -322.544253095447
  Force two-norm initial, final = 0.00049286984 8.1046732e-11
  Force max component initial, final = 7.4722835e-05 1.3876678e-11
  Final line search alpha, max atom move = 1 1.3876678e-11
  Iterations, force evaluations = 28 56

MPI task timing breakdown:
Section |  min time  |  avg time  |  max time  |%varavg| %total
---------------------------------------------------------------
Pair    | 0.007573   | 0.007573   | 0.007573   |   0.0 | 93.10
Neigh   | 0          | 0          | 0          |   0.0 |  0.00
Comm    | 0.000173   | 0.000173   | 0.000173   |   0.0 |  2.13
Output  | 0.000244   | 0.000244   | 0.000244   |   0.0 |  3.00
Modify  | 0          | 0          | 0          |   0.0 |  0.00
Other   |            | 0.000144   |            |       |  1.77

Nlocal:             96 ave          96 max          96 min
Histogram: 1 0 0 0 0 0 0 0 0 0
Nghost:            976 ave         976 max         976 min
Histogram: 1 0 0 0 0 0 0 0 0 0
Neighs:           4128 ave        4128 max        4128 min
Histogram: 1 0 0 0 0 0 0 0 0 0

Total # of neighbors = 4128
Ave neighs/atom = 43
Neighbor list builds = 0
Dangerous builds = 0
OMP_NUM_THREADS environment is not set. Defaulting to 1 thread. (src/comm.cpp:98)
  using 1 OpenMP thread(s) per MPI task
Loaded 1 plugins from F:\Lammps\LAMMPS 64-bit 2Aug2023\plugins

The 'box' command has been removed and will be ignored

Reading restart file ...
  restart file = 2 Aug 2023, LAMMPS = 2 Aug 2023
  restoring atom style atomic from restart
  triclinic box = (-0.010004662 -0.015006993 -0.020009324) to (8.0900047 12.135007 16.180009) with tilt (0 0 0)
  1 by 1 by 1 MPI processor grid
  pair style eam/alloy stores no restart info
  96 atoms
  read_restart CPU = 0.000 seconds
Changing box ...
  triclinic box = (-0.010004662 -0.015006993 -0.020009324) to (8.0900047 12.135007 16.180009) with tilt (0.12150014 0 0)
Neighbor list info ...
  update: every = 1 steps, delay = 0 steps, check = yes
  max neighbors/atom: 2000, page size: 100000
  master list distance cutoff = 7.28721
  ghost atom cutoff = 7.28721
  1 neighbor lists, perpetual/occasional/extra = 1 0 0
  (1) pair eam/alloy, perpetual
      attributes: half, newton on
      pair build: half/nsq/newton
      stencil: none
      bin: none
Setting up cg style minimization ...
  Unit style    : metal
  Current step  : 26
Per MPI rank memory allocation (min/avg/max) = 4.449 | 4.449 | 4.449 Mbytes
   Step          Temp          PotEng         Press           Pxx            Pyy            Pzz            Pxy            Pxz            Pyz             Lx             Ly             Lz           Volume    
        26   0             -322.54425      16.99956      -6.0124785      31.264016      25.747143     -3169.7332     -2.9751607e-07  1.7039063e-06  8.1000093      12.150014      16.200019      1594.3285    
        27   0             -322.54425      16.99954      -6.0124964      31.263998      25.747118     -3169.7332      1.2983316e-07 -7.8603075e-08  8.1000093      12.150014      16.200019      1594.3285    
        28   0             -322.54425      16.999537     -6.0124995      31.263995      25.747115     -3169.7332     -8.1035812e-08  8.1246546e-08  8.1000093      12.150014      16.200019      1594.3285    
        29   0             -322.54425      16.999536     -6.0125         31.263994      25.747114     -3169.7332     -1.1263751e-08 -2.8149447e-08  8.1000093      12.150014      16.200019      1594.3285    
        30   0             -322.54425      16.999536     -6.0125002      31.263994      25.747114     -3169.7332     -6.6458352e-09 -5.8005257e-09  8.1000093      12.150014      16.200019      1594.3285    
        31   0             -322.54425      16.999536     -6.0125002      31.263994      25.747114     -3169.7332     -7.0346181e-10 -3.1149532e-09  8.1000093      12.150014      16.200019      1594.3285    
        32   0             -322.54425      16.999536     -6.0125002      31.263994      25.747114     -3169.7332     -6.3934422e-10 -3.6753533e-10  8.1000093      12.150014      16.200019      1594.3285    
        33   0             -322.54425      16.999536     -6.0125002      31.263994      25.747114     -3169.7332     -1.1513211e-10  1.688874e-10   8.1000093      12.150014      16.200019      1594.3285    
        34   0             -322.54425      16.999536     -6.0125002      31.263994      25.747114     -3169.7332     -5.9101055e-11  1.2685985e-10  8.1000093      12.150014      16.200019      1594.3285    
        35   0             -322.54425      16.999536     -6.0125002      31.263994      25.747114     -3169.7332     -7.3587532e-11  4.8509578e-11  8.1000093      12.150014      16.200019      1594.3285    
        36   0             -322.54425      16.999536     -6.0125002      31.263994      25.747114     -3169.7332     -3.106214e-11  -1.3853465e-11  8.1000093      12.150014      16.200019      1594.3285    
        37   0             -322.54425      16.999536     -6.0125002      31.263994      25.747114     -3169.7332     -1.7322031e-11 -1.7227686e-12  8.1000093      12.150014      16.200019      1594.3285    
        38   0             -322.54425      16.999536     -6.0125002      31.263994      25.747114     -3169.7332      2.2163286e-12 -1.9115291e-11  8.1000093      12.150014      16.200019      1594.3285    
        39   0             -322.54425      16.999536     -6.0125002      31.263994      25.747114     -3169.7332      4.8721489e-13 -2.2384683e-11  8.1000093      12.150014      16.200019      1594.3285    
        40   0             -322.54425      16.999536     -6.0125002      31.263994      25.747114     -3169.7332      1.015757e-11  -8.0267287e-12  8.1000093      12.150014      16.200019      1594.3285    
        41   0             -322.54425      16.999536     -6.0125002      31.263994      25.747114     -3169.7332      5.4056538e-12  7.9661545e-12  8.1000093      12.150014      16.200019      1594.3285    
        42   0             -322.54425      16.999536     -6.0125002      31.263994      25.747114     -3169.7332      1.9030995e-11 -1.6303976e-11  8.1000093      12.150014      16.200019      1594.3285    
        43   0             -322.54425      16.999536     -6.0125002      31.263994      25.747114     -3169.7332      1.7743805e-12 -7.3465257e-12  8.1000093      12.150014      16.200019      1594.3285    
        44   0             -322.54425      16.999536     -6.0125002      31.263994      25.747114     -3169.7332     -1.0786254e-11  6.8267158e-12  8.1000093      12.150014      16.200019      1594.3285    
        45   0             -322.54425      16.999536     -6.0125002      31.263994      25.747114     -3169.7332     -8.998887e-12   2.9227144e-11  8.1000093      12.150014      16.200019      1594.3285    
        46   0             -322.54425      16.999536     -6.0125002      31.263994      25.747114     -3169.7332      7.8459048e-12  9.6393987e-12  8.1000093      12.150014      16.200019      1594.3285    
        47   0             -322.54425      16.999536     -6.0125002      31.263994      25.747114     -3169.7332     -2.7546226e-12  2.0792535e-11  8.1000093      12.150014      16.200019      1594.3285    
        48   0             -322.54425      16.999536     -6.0125002      31.263994      25.747114     -3169.7332     -1.8523373e-11  6.6647934e-12  8.1000093      12.150014      16.200019      1594.3285    
        49   0             -322.54425      16.999536     -6.0125002      31.263994      25.747114     -3169.7332      5.0643184e-12  2.149035e-11   8.1000093      12.150014      16.200019      1594.3285    
        50   0             -322.54425      16.999536     -6.0125002      31.263994      25.747114     -3169.7332     -3.4344158e-12  2.2058801e-11  8.1000093      12.150014      16.200019      1594.3285    
        51   0             -322.54425      16.999536     -6.0125002      31.263994      25.747114     -3169.7332      2.0124928e-11 -7.4636332e-12  8.1000093      12.150014      16.200019      1594.3285    
        52   0             -322.54425      16.999536     -6.0125002      31.263994      25.747114     -3169.7332     -6.7871728e-12  4.2397189e-11  8.1000093      12.150014      16.200019      1594.3285    
        53   0             -322.54425      16.999536     -6.0125002      31.263994      25.747114     -3169.7332      1.644012e-11  -2.6868616e-11  8.1000093      12.150014      16.200019      1594.3285    
        54   0             -322.54425      16.999536     -6.0125002      31.263994      25.747114     -3169.7332      1.4116897e-11 -3.4957975e-11  8.1000093      12.150014      16.200019      1594.3285    
Loop time of 0.008391 on 1 procs for 28 steps with 96 atoms

186.2% CPU use with 1 MPI tasks x 1 OpenMP threads

Minimization stats:
  Stopping criterion = force tolerance
  Energy initial, next-to-last, final = 
     -322.544253075017  -322.544253095447  -322.544253095446
  Force two-norm initial, final = 0.00049211625 7.8700166e-11
  Force max component initial, final = 7.5267193e-05 1.745042e-11
  Final line search alpha, max atom move = 1 1.745042e-11
  Iterations, force evaluations = 28 56

MPI task timing breakdown:
Section |  min time  |  avg time  |  max time  |%varavg| %total
---------------------------------------------------------------
Pair    | 0.007906   | 0.007906   | 0.007906   |   0.0 | 94.22
Neigh   | 0          | 0          | 0          |   0.0 |  0.00
Comm    | 0.000143   | 0.000143   | 0.000143   |   0.0 |  1.70
Output  | 0.000218   | 0.000218   | 0.000218   |   0.0 |  2.60
Modify  | 0          | 0          | 0          |   0.0 |  0.00
Other   |            | 0.000124   |            |       |  1.48

Nlocal:             96 ave          96 max          96 min
Histogram: 1 0 0 0 0 0 0 0 0 0
Nghost:            976 ave         976 max         976 min
Histogram: 1 0 0 0 0 0 0 0 0 0
Neighs:           4128 ave        4128 max        4128 min
Histogram: 1 0 0 0 0 0 0 0 0 0

Total # of neighbors = 4128
Ave neighs/atom = 43
Neighbor list builds = 0
Dangerous builds = 0
=========================================
Components of the Elastic Constant Tensor
=========================================
Elastic Constant C11all = 113.390449618799 GPa
Elastic Constant C22all = 113.3904496188 GPa
Elastic Constant C33all = 113.390449618799 GPa
Elastic Constant C12all = 61.0391235954167 GPa
Elastic Constant C13all = 61.0391235954167 GPa
Elastic Constant C23all = 61.0391235954167 GPa
Elastic Constant C44all = 31.6973319531891 GPa
Elastic Constant C55all = 31.697331953189 GPa
Elastic Constant C66all = 31.6973319531892 GPa
Elastic Constant C14all = 3.34726212568849e-14 GPa
Elastic Constant C15all = 8.96284198508529e-14 GPa
Elastic Constant C16all = 2.09065442095409e-14 GPa
Elastic Constant C24all = -4.866808794275e-15 GPa
Elastic Constant C25all = 1.251450650844e-14 GPa
Elastic Constant C26all = 4.01974358728388e-14 GPa
Elastic Constant C34all = -1.15640110121732e-13 GPa
Elastic Constant C35all = -3.31986345260082e-14 GPa
Elastic Constant C36all = -7.44628550840081e-14 GPa
Elastic Constant C45all = 1.4487989679612e-14 GPa
Elastic Constant C46all = 1.56552123546464e-13 GPa
Elastic Constant C56all = -4.5898703248445e-15 GPa
=========================================
Average properties for a cubic crystal
=========================================
Bulk Modulus = 78.4895656032108 GPa
Shear Modulus 1 = 31.6973319531891 GPa
Shear Modulus 2 = 26.1756630116911 GPa
Poisson Ratio = 0.349935635744834
Total wall time: 0:00:00
