LAMMPS (2 Aug 2023 - Update 3)
OMP_NUM_THREADS environment is not set. Defaulting to 1 thread. (src/comm.cpp:98)
  using 1 OpenMP thread(s) per MPI task
Loaded 1 plugins from F:\Lammps\LAMMPS 64-bit 2Aug2023\plugins
Lattice spacing in x,y,z = 4.04 4.04 4.04
Created triclinic box = (0 0 0) to (8.08 12.12 16.16) with tilt (0 0 0)
  1 by 1 by 1 MPI processor grid
Created 96 atoms
  using lattice units in triclinic box = (0 0 0) to (8.08 12.12 16.16) with tilt (0 0 0)
  create_atoms CPU = 0.000 seconds
Neighbor list info ...
  update: every = 1 steps, delay = 0 steps, check = yes
  max neighbors/atom: 2000, page size: 100000
  master list distance cutoff = 7.28721
  ghost atom cutoff = 7.28721
  1 neighbor lists, perpetual/occasional/extra = 1 0 0
  (1) pair eam/alloy, perpetual
      attributes: half, newton on
      pair build: half/nsq/newton
      stencil: none
      bin: none
Setting up cg style minimization ...
  Unit style    : metal
  Current step  : 0
WARNING: Energy due to 3 extra global DOFs will be included in minimizer energies
 (src/min.cpp:228)
Per MPI rank memory allocation (min/avg/max) = 4.452 | 4.452 | 4.452 Mbytes
   Step          Temp          PotEng         Press           Pxx            Pyy            Pzz            Pxy            Pxz            Pyz             Lx             Ly             Lz           Volume    
         0   0             -322.53849      5853.9553      5853.9553      5853.9553      5853.9553     -3.7724158e-11  3.2153346e-11 -2.3463443e-12  8.08           12.12          16.16          1582.5423    
         1   0             -322.54019      5617.5567      5617.5567      5617.5567      5617.5567     -3.4243542e-11 -4.1069777e-11 -3.7024601e-11  8.080808       12.121212      16.161616      1583.0171    
         2   0             -322.54182      5381.1323      5381.1323      5381.1323      5381.1323     -4.0481757e-11  3.1094988e-11 -2.7268669e-11  8.081616       12.122424      16.163232      1583.4921    
         3   0             -322.54338      5144.6807      5144.6807      5144.6807      5144.6807     -2.8018507e-11 -1.3517947e-11  1.2619558e-11  8.082424       12.123636      16.164848      1583.9671    
         4   0             -322.54487      4908.1615      4908.1615      4908.1615      4908.1615      6.6657316e-12  3.6051083e-11  5.6693802e-12  8.083232       12.124848      16.166464      1584.4421    
         5   0             -322.54629      4671.587       4671.587       4671.587       4671.587       1.6596203e-11 -1.0234091e-11 -2.784739e-11   8.08404        12.12606       16.16808       1584.9173    
         6   0             -322.54764      4434.9279      4434.9279      4434.9279      4434.9279     -2.1429751e-11  9.6700348e-12 -1.9634588e-11  8.084848       12.127272      16.169696      1585.3926    
         7   0             -322.54892      4198.254       4198.254       4198.254       4198.254       1.2618452e-12 -1.2415155e-11 -2.847564e-11   8.085656       12.128484      16.171312      1585.868     
         8   0             -322.55013      3961.7998      3961.7998      3961.7998      3961.7998      1.1367219e-11  2.5131225e-11 -9.5170675e-12  8.086464       12.129696      16.172928      1586.3435    
         9   0             -322.55127      3725.5885      3725.5885      3725.5885      3725.5885      2.410081e-12  -1.6891585e-11 -9.8645177e-12  8.087272       12.130908      16.174544      1586.819     
        10   0             -322.55234      3489.6055      3489.6055      3489.6055      3489.6055     -1.4750319e-11  2.2580735e-11 -3.0957459e-12  8.08808        12.13212       16.17616       1587.2947    
        11   0             -322.55334      3253.6093      3253.6093      3253.6093      3253.6093      2.4646517e-12 -3.2362557e-11 -1.7560643e-11  8.088888       12.133332      16.177776      1587.7705    
        12   0             -322.55428      3017.3986      3017.3986      3017.3986      3017.3986      1.619743e-11   3.0252935e-11  3.0196936e-11  8.089696       12.134544      16.179392      1588.2463    
        13   0             -322.55514      2780.9526      2780.9526      2780.9526      2780.9526      2.4491798e-12  4.6674369e-12  1.8879677e-11  8.090504       12.135756      16.181008      1588.7223    
        14   0             -322.55593      2544.2981      2544.2981      2544.2981      2544.2981     -1.523633e-11  -3.4565064e-11 -1.0577287e-11  8.091312       12.136968      16.182624      1589.1983    
        15   0             -322.55665      2307.6749      2307.6749      2307.6749      2307.6749      1.7651506e-11  1.8805427e-11 -5.8605237e-12  8.09212        12.13818       16.18424       1589.6745    
        16   0             -322.5573       2071.1579      2071.1579      2071.1579      2071.1579      2.4357935e-11 -3.4705163e-11 -2.6035864e-11  8.092928       12.139392      16.185856      1590.1507    
        17   0             -322.55788      1834.7355      1834.7355      1834.7355      1834.7355     -2.8348507e-11  4.2005554e-12  5.2587319e-11  8.093736       12.140604      16.187472      1590.627     
        18   0             -322.55839      1598.3877      1598.3877      1598.3877      1598.3877      5.8412859e-12  9.8519296e-12 -2.089168e-11   8.094544       12.141816      16.189088      1591.1035    
        19   0             -322.55883      1362.0625      1362.0625      1362.0625      1362.0625     -1.5646606e-12 -1.5150665e-11 -2.58169e-11    8.095352       12.143028      16.190704      1591.58      
        20   0             -322.5592       1125.7462      1125.7462      1125.7462      1125.7462     -8.9382413e-13 -1.3512107e-11 -1.2373878e-11  8.09616        12.14424       16.19232       1592.0566    
        21   0             -322.5595       889.44216      889.44216      889.44216      889.44216     -6.7016743e-13 -8.3561501e-12 -4.691172e-12   8.096968       12.145452      16.193936      1592.5333    
        22   0             -322.55973      653.14788      653.14788      653.14788      653.14788     -2.6798673e-11  5.0449899e-11 -2.0992294e-11  8.097776       12.146664      16.195552      1593.0101    
        23   0             -322.55989      416.85116      416.85116      416.85116      416.85116      7.5348712e-13  4.2697603e-11  1.6395322e-11  8.098584       12.147876      16.197168      1593.487     
        24   0             -322.55998      180.54532      180.54532      180.54532      180.54532      6.8491012e-12  1.6453187e-11 -6.3985391e-11  8.099392       12.149088      16.198784      1593.964     
        25   0             -322.56         0.0073580099   0.0073580099   0.00735801     0.0073580098  -1.2495706e-11  4.7974586e-12 -3.5464934e-11  8.1000093      12.150014      16.200019      1594.3285    
        26   0             -322.56         9.278171e-09   9.257017e-09   9.29145e-09    9.2860459e-09  1.3527717e-11  1.1045312e-11 -1.5312818e-11  8.1000093      12.150014      16.200019      1594.3285    
Loop time of 0.00554 on 1 procs for 26 steps with 96 atoms

0.0% CPU use with 1 MPI tasks x 1 OpenMP threads

Minimization stats:
  Stopping criterion = force tolerance
  Energy initial, next-to-last, final = 
     -322.538487346493  -322.559998865654  -322.559998865637
  Force two-norm initial, final = 10.015094 1.5957412e-11
  Force max component initial, final = 5.782217 9.2230973e-12
  Final line search alpha, max atom move = 1 9.2230973e-12
  Iterations, force evaluations = 26 28

MPI task timing breakdown:
Section |  min time  |  avg time  |  max time  |%varavg| %total
---------------------------------------------------------------
Pair    | 0.004105   | 0.004105   | 0.004105   |   0.0 | 74.10
Neigh   | 0          | 0          | 0          |   0.0 |  0.00
Comm    | 8e-05      | 8e-05      | 8e-05      |   0.0 |  1.44
Output  | 0.000245   | 0.000245   | 0.000245   |   0.0 |  4.42
Modify  | 0          | 0          | 0          |   0.0 |  0.00
Other   |            | 0.00111    |            |       | 20.04

Nlocal:             96 ave          96 max          96 min
Histogram: 1 0 0 0 0 0 0 0 0 0
Nghost:            976 ave         976 max         976 min
Histogram: 1 0 0 0 0 0 0 0 0 0
Neighs:           4128 ave        4128 max        4128 min
Histogram: 1 0 0 0 0 0 0 0 0 0

Total # of neighbors = 4128
Ave neighs/atom = 43
Neighbor list builds = 0
Dangerous builds = 0
Displacing atoms ...
System init for write_restart ...
OMP_NUM_THREADS environment is not set. Defaulting to 1 thread. (src/comm.cpp:98)
  using 1 OpenMP thread(s) per MPI task
Loaded 1 plugins from F:\Lammps\LAMMPS 64-bit 2Aug2023\plugins

The 'box' command has been removed and will be ignored

Reading restart file ...
  restart file = 2 Aug 2023, LAMMPS = 2 Aug 2023
  restoring atom style atomic from restart
  triclinic box = (-0.010004662 -0.015006993 -0.020009324) to (8.0900047 12.135007 16.180009) with tilt (0 0 0)
  1 by 1 by 1 MPI processor grid
  pair style eam/alloy stores no restart info
  96 atoms
  read_restart CPU = 0.000 seconds
Changing box ...
  triclinic box = (-0.010004662 -0.015006993 -0.020009324) to (8.0819047 12.135007 16.180009) with tilt (0 0 0)
  triclinic box = (-0.010004662 -0.015006993 -0.020009324) to (8.0819047 12.135007 16.180009) with tilt (0 0 0)
  triclinic box = (-0.010004662 -0.015006993 -0.020009324) to (8.0819047 12.135007 16.180009) with tilt (0 0 0)
Neighbor list info ...
  update: every = 1 steps, delay = 0 steps, check = yes
  max neighbors/atom: 2000, page size: 100000
  master list distance cutoff = 7.28721
  ghost atom cutoff = 7.28721
  1 neighbor lists, perpetual/occasional/extra = 1 0 0
  (1) pair eam/alloy, perpetual
      attributes: half, newton on
      pair build: half/nsq/newton
      stencil: none
      bin: none
Setting up cg style minimization ...
  Unit style    : metal
  Current step  : 26
Per MPI rank memory allocation (min/avg/max) = 4.449 | 4.449 | 4.449 Mbytes
   Step          Temp          PotEng         Press           Pxx            Pyy            Pzz            Pxy            Pxz            Pyz             Lx             Ly             Lz           Volume    
        26   0             -322.55943      790.05278      1139.42        615.36915      615.36916      1.6403844e-06 -3.4963316e-07  1.7218278e-06  8.0919093      12.150014      16.200019      1592.7342    
        27   0             -322.55943      790.05276      1139.42        615.36914      615.36914     -3.0962443e-07  7.0436952e-08 -2.8059684e-08  8.0919093      12.150014      16.200019      1592.7342    
        28   0             -322.55943      790.05276      1139.42        615.36913      615.36913      6.6843216e-08 -8.1940938e-08  8.2473796e-08  8.0919093      12.150014      16.200019      1592.7342    
        29   0             -322.55943      790.05276      1139.42        615.36913      615.36913     -1.0058513e-08 -9.6105047e-09 -2.6942102e-08  8.0919093      12.150014      16.200019      1592.7342    
        30   0             -322.55943      790.05276      1139.42        615.36913      615.36913     -1.0154443e-08 -6.5238986e-09 -5.2817778e-09  8.0919093      12.150014      16.200019      1592.7342    
        31   0             -322.55943      790.05276      1139.42        615.36913      615.36913     -8.7417864e-09 -5.2362085e-10 -2.9627061e-09  8.0919093      12.150014      16.200019      1592.7342    
        32   0             -322.55943      790.05276      1139.42        615.36913      615.36913     -4.6409733e-09 -5.670742e-10  -2.2236017e-10  8.0919093      12.150014      16.200019      1592.7342    
        33   0             -322.55943      790.05276      1139.42        615.36913      615.36913     -2.6657538e-09 -1.579623e-10   1.5555373e-10  8.0919093      12.150014      16.200019      1592.7342    
        34   0             -322.55943      790.05276      1139.42        615.36913      615.36913     -1.4358201e-09 -9.627226e-11   1.5817428e-10  8.0919093      12.150014      16.200019      1592.7342    
        35   0             -322.55943      790.05276      1139.42        615.36913      615.36913     -7.2667699e-10 -6.2448363e-11  7.0794019e-11  8.0919093      12.150014      16.200019      1592.7342    
        36   0             -322.55943      790.05276      1139.42        615.36913      615.36913     -3.4419925e-10 -5.3375111e-11  2.8237564e-11  8.0919093      12.150014      16.200019      1592.7342    
        37   0             -322.55943      790.05276      1139.42        615.36913      615.36913     -1.0134655e-10  7.5164105e-12 -6.2280582e-11  8.0919093      12.150014      16.200019      1592.7342    
        38   0             -322.55943      790.05276      1139.42        615.36913      615.36913     -4.5202676e-11 -1.0112956e-11  5.2107713e-12  8.0919093      12.150014      16.200019      1592.7342    
        39   0             -322.55943      790.05276      1139.42        615.36913      615.36913     -6.3553176e-12  2.9648774e-12 -1.4827215e-11  8.0919093      12.150014      16.200019      1592.7342    
        40   0             -322.55943      790.05276      1139.42        615.36913      615.36913      1.6399581e-11  1.800666e-12   2.5093018e-11  8.0919093      12.150014      16.200019      1592.7342    
        41   0             -322.55943      790.05276      1139.42        615.36913      615.36913     -9.7162021e-12 -2.3922495e-11 -5.6596789e-12  8.0919093      12.150014      16.200019      1592.7342    
        42   0             -322.55943      790.05276      1139.42        615.36913      615.36913      4.7743407e-12 -1.7219703e-11 -1.8380472e-11  8.0919093      12.150014      16.200019      1592.7342    
        43   0             -322.55943      790.05276      1139.42        615.36913      615.36913      7.4825924e-12  2.0071652e-11 -1.7233068e-11  8.0919093      12.150014      16.200019      1592.7342    
        44   0             -322.55943      790.05276      1139.42        615.36913      615.36913     -1.9544085e-12 -1.1158621e-11 -4.3440939e-12  8.0919093      12.150014      16.200019      1592.7342    
        45   0             -322.55943      790.05276      1139.42        615.36913      615.36913      2.2189516e-11 -2.0144837e-11  5.8365452e-11  8.0919093      12.150014      16.200019      1592.7342    
        46   0             -322.55943      790.05276      1139.42        615.36913      615.36913      1.158685e-12   3.5958793e-12 -1.8943304e-11  8.0919093      12.150014      16.200019      1592.7342    
        47   0             -322.55943      790.05276      1139.42        615.36913      615.36913     -7.2487614e-12 -3.3512954e-12 -3.5068738e-12  8.0919093      12.150014      16.200019      1592.7342    
        48   0             -322.55943      790.05276      1139.42        615.36913      615.36913      7.3255418e-12  3.7567611e-11 -1.0495751e-11  8.0919093      12.150014      16.200019      1592.7342    
        49   0             -322.55943      790.05276      1139.42        615.36913      615.36913     -8.7145678e-12 -1.7868507e-11 -3.7780767e-12  8.0919093      12.150014      16.200019      1592.7342    
        50   0             -322.55943      790.05276      1139.42        615.36913      615.36913      8.9344387e-13 -1.0436696e-11 -2.5895773e-11  8.0919093      12.150014      16.200019      1592.7342    
        51   0             -322.55943      790.05276      1139.42        615.36913      615.36913      8.0968351e-13 -2.9515545e-12 -1.1990441e-11  8.0919093      12.150014      16.200019      1592.7342    
        52   0             -322.55943      790.05276      1139.42        615.36913      615.36913     -7.5000425e-12 -1.6704333e-11  1.5421145e-12  8.0919093      12.150014      16.200019      1592.7342    
Loop time of 0.007968 on 1 procs for 26 steps with 96 atoms

0.0% CPU use with 1 MPI tasks x 1 OpenMP threads

Minimization stats:
  Stopping criterion = force tolerance
  Energy initial, next-to-last, final = 
     -322.559432172942    -322.5594321934  -322.559432193399
  Force two-norm initial, final = 0.00049290868 4.4976701e-11
  Force max component initial, final = 7.5096832e-05 7.4673046e-12
  Final line search alpha, max atom move = 1 7.4673046e-12
  Iterations, force evaluations = 26 52

MPI task timing breakdown:
Section |  min time  |  avg time  |  max time  |%varavg| %total
---------------------------------------------------------------
Pair    | 0.007413   | 0.007413   | 0.007413   |   0.0 | 93.03
Neigh   | 0          | 0          | 0          |   0.0 |  0.00
Comm    | 0.000154   | 0.000154   | 0.000154   |   0.0 |  1.93
Output  | 0.000252   | 0.000252   | 0.000252   |   0.0 |  3.16
Modify  | 0          | 0          | 0          |   0.0 |  0.00
Other   |            | 0.000149   |            |       |  1.87

Nlocal:             96 ave          96 max          96 min
Histogram: 1 0 0 0 0 0 0 0 0 0
Nghost:            976 ave         976 max         976 min
Histogram: 1 0 0 0 0 0 0 0 0 0
Neighs:           4128 ave        4128 max        4128 min
Histogram: 1 0 0 0 0 0 0 0 0 0

Total # of neighbors = 4128
Ave neighs/atom = 43
Neighbor list builds = 0
Dangerous builds = 0
OMP_NUM_THREADS environment is not set. Defaulting to 1 thread. (src/comm.cpp:98)
  using 1 OpenMP thread(s) per MPI task
Loaded 1 plugins from F:\Lammps\LAMMPS 64-bit 2Aug2023\plugins

The 'box' command has been removed and will be ignored

Reading restart file ...
  restart file = 2 Aug 2023, LAMMPS = 2 Aug 2023
  restoring atom style atomic from restart
  triclinic box = (-0.010004662 -0.015006993 -0.020009324) to (8.0900047 12.135007 16.180009) with tilt (0 0 0)
  1 by 1 by 1 MPI processor grid
  pair style eam/alloy stores no restart info
  96 atoms
  read_restart CPU = 0.000 seconds
Changing box ...
  triclinic box = (-0.010004662 -0.015006993 -0.020009324) to (8.0981047 12.135007 16.180009) with tilt (0 0 0)
  triclinic box = (-0.010004662 -0.015006993 -0.020009324) to (8.0981047 12.135007 16.180009) with tilt (0 0 0)
  triclinic box = (-0.010004662 -0.015006993 -0.020009324) to (8.0981047 12.135007 16.180009) with tilt (0 0 0)
Neighbor list info ...
  update: every = 1 steps, delay = 0 steps, check = yes
  max neighbors/atom: 2000, page size: 100000
  master list distance cutoff = 7.28721
  ghost atom cutoff = 7.28721
  1 neighbor lists, perpetual/occasional/extra = 1 0 0
  (1) pair eam/alloy, perpetual
      attributes: half, newton on
      pair build: half/nsq/newton
      stencil: none
      bin: none
Setting up cg style minimization ...
  Unit style    : metal
  Current step  : 26
Per MPI rank memory allocation (min/avg/max) = 4.449 | 4.449 | 4.449 Mbytes
   Step          Temp          PotEng         Press           Pxx            Pyy            Pzz            Pxy            Pxz            Pyz             Lx             Ly             Lz           Volume    
        26   0             -322.55943     -788.52402     -1135.7343     -614.91887     -614.91886      1.6030538e-06 -4.2439635e-07  1.8117063e-06  8.1081093      12.150014      16.200019      1595.9228    
        27   0             -322.55943     -788.52404     -1135.7344     -614.91889     -614.91889     -3.108923e-07   5.2148318e-08 -2.3214958e-08  8.1081093      12.150014      16.200019      1595.9228    
        28   0             -322.55943     -788.52405     -1135.7344     -614.91889     -614.91889      6.3520552e-08 -9.8269764e-08  8.7335956e-08  8.1081093      12.150014      16.200019      1595.9228    
        29   0             -322.55943     -788.52405     -1135.7344     -614.91889     -614.91889     -1.1054987e-08 -1.4650081e-08 -2.6503566e-08  8.1081093      12.150014      16.200019      1595.9228    
        30   0             -322.55943     -788.52405     -1135.7344     -614.91889     -614.91889     -1.0432401e-08 -8.8141693e-09 -5.0505798e-09  8.1081093      12.150014      16.200019      1595.9228    
        31   0             -322.55943     -788.52405     -1135.7344     -614.91889     -614.91889     -8.6640358e-09 -1.4347617e-09 -2.8779321e-09  8.1081093      12.150014      16.200019      1595.9228    
        32   0             -322.55943     -788.52405     -1135.7344     -614.91889     -614.91889     -4.5510542e-09 -6.211585e-10  -2.1128622e-10  8.1081093      12.150014      16.200019      1595.9228    
        33   0             -322.55943     -788.52405     -1135.7344     -614.91889     -614.91889     -2.6526605e-09 -1.3285069e-10  1.6338576e-10  8.1081093      12.150014      16.200019      1595.9228    
        34   0             -322.55943     -788.52405     -1135.7344     -614.91889     -614.91889     -1.4136727e-09 -5.9866642e-11  1.2908104e-10  8.1081093      12.150014      16.200019      1595.9228    
        35   0             -322.55943     -788.52405     -1135.7344     -614.91889     -614.91889     -7.0848907e-10 -5.5410234e-11  7.1214433e-12  8.1081093      12.150014      16.200019      1595.9228    
        36   0             -322.55943     -788.52405     -1135.7344     -614.91889     -614.91889     -3.5770494e-10 -3.6739647e-11 -8.6131589e-12  8.1081093      12.150014      16.200019      1595.9228    
        37   0             -322.55943     -788.52405     -1135.7344     -614.91889     -614.91889     -9.7288331e-11 -3.7261591e-12  2.4186625e-11  8.1081093      12.150014      16.200019      1595.9228    
        38   0             -322.55943     -788.52405     -1135.7344     -614.91889     -614.91889     -2.0065805e-11 -1.0389115e-11 -3.2374512e-11  8.1081093      12.150014      16.200019      1595.9228    
        39   0             -322.55943     -788.52405     -1135.7344     -614.91889     -614.91889     -7.8507768e-12 -3.4680543e-12 -2.7486616e-12  8.1081093      12.150014      16.200019      1595.9228    
        40   0             -322.55943     -788.52405     -1135.7344     -614.91889     -614.91889     -2.0633541e-11  1.4151092e-11 -3.9772098e-12  8.1081093      12.150014      16.200019      1595.9228    
        41   0             -322.55943     -788.52405     -1135.7344     -614.91889     -614.91889     -2.276168e-11  -1.109253e-11  -3.2682654e-12  8.1081093      12.150014      16.200019      1595.9228    
        42   0             -322.55943     -788.52405     -1135.7344     -614.91889     -614.91889     -8.6553595e-12 -2.1820795e-11  1.6675093e-11  8.1081093      12.150014      16.200019      1595.9228    
        43   0             -322.55943     -788.52405     -1135.7344     -614.91889     -614.91889      1.9369197e-11  2.5594881e-11  1.2930009e-14  8.1081093      12.150014      16.200019      1595.9228    
        44   0             -322.55943     -788.52405     -1135.7344     -614.91889     -614.91889     -3.726855e-12  -6.1334673e-12  1.1504168e-12  8.1081093      12.150014      16.200019      1595.9228    
        45   0             -322.55943     -788.52405     -1135.7344     -614.91889     -614.91889     -2.2072038e-11 -1.0957879e-12 -2.2430316e-11  8.1081093      12.150014      16.200019      1595.9228    
        46   0             -322.55943     -788.52405     -1135.7344     -614.91889     -614.91889      9.3032054e-12  1.2818273e-11 -2.2695524e-11  8.1081093      12.150014      16.200019      1595.9228    
        47   0             -322.55943     -788.52405     -1135.7344     -614.91889     -614.91889     -6.1684675e-12  1.1636468e-11 -4.1922709e-11  8.1081093      12.150014      16.200019      1595.9228    
        48   0             -322.55943     -788.52405     -1135.7344     -614.91889     -614.91889      1.5314936e-11  1.0777618e-11  1.0600254e-11  8.1081093      12.150014      16.200019      1595.9228    
        49   0             -322.55943     -788.52405     -1135.7344     -614.91889     -614.91889      9.2579258e-12 -1.1116295e-11 -1.456474e-11   8.1081093      12.150014      16.200019      1595.9228    
        50   0             -322.55943     -788.52405     -1135.7344     -614.91889     -614.91889      1.2364799e-12 -4.4592951e-13 -6.5615317e-12  8.1081093      12.150014      16.200019      1595.9228    
        51   0             -322.55943     -788.52405     -1135.7344     -614.91889     -614.91889     -7.1750667e-13  2.2200366e-11 -2.6807294e-13  8.1081093      12.150014      16.200019      1595.9228    
Loop time of 0.007696 on 1 procs for 25 steps with 96 atoms

0.0% CPU use with 1 MPI tasks x 1 OpenMP threads

Minimization stats:
  Stopping criterion = force tolerance
  Energy initial, next-to-last, final = 
     -322.559433392334  -322.559433412751  -322.559433412748
  Force two-norm initial, final = 0.00049159423 9.65623e-11
  Force max component initial, final = 7.4843886e-05 1.6332741e-11
  Final line search alpha, max atom move = 1 1.6332741e-11
  Iterations, force evaluations = 25 50

MPI task timing breakdown:
Section |  min time  |  avg time  |  max time  |%varavg| %total
---------------------------------------------------------------
Pair    | 0.007207   | 0.007207   | 0.007207   |   0.0 | 93.65
Neigh   | 0          | 0          | 0          |   0.0 |  0.00
Comm    | 0.000149   | 0.000149   | 0.000149   |   0.0 |  1.94
Output  | 0.000229   | 0.000229   | 0.000229   |   0.0 |  2.98
Modify  | 0          | 0          | 0          |   0.0 |  0.00
Other   |            | 0.000111   |            |       |  1.44

Nlocal:             96 ave          96 max          96 min
Histogram: 1 0 0 0 0 0 0 0 0 0
Nghost:            976 ave         976 max         976 min
Histogram: 1 0 0 0 0 0 0 0 0 0
Neighs:           4128 ave        4128 max        4128 min
Histogram: 1 0 0 0 0 0 0 0 0 0

Total # of neighbors = 4128
Ave neighs/atom = 43
Neighbor list builds = 0
Dangerous builds = 0
OMP_NUM_THREADS environment is not set. Defaulting to 1 thread. (src/comm.cpp:98)
  using 1 OpenMP thread(s) per MPI task
Loaded 1 plugins from F:\Lammps\LAMMPS 64-bit 2Aug2023\plugins

The 'box' command has been removed and will be ignored

Reading restart file ...
  restart file = 2 Aug 2023, LAMMPS = 2 Aug 2023
  restoring atom style atomic from restart
  triclinic box = (-0.010004662 -0.015006993 -0.020009324) to (8.0900047 12.135007 16.180009) with tilt (0 0 0)
  1 by 1 by 1 MPI processor grid
  pair style eam/alloy stores no restart info
  96 atoms
  read_restart CPU = 0.000 seconds
Changing box ...
  triclinic box = (-0.010004662 -0.015006993 -0.020009324) to (8.0900047 12.122857 16.180009) with tilt (0 0 0)
  triclinic box = (-0.010004662 -0.015006993 -0.020009324) to (8.0900047 12.122857 16.180009) with tilt (0 0 0)
Neighbor list info ...
  update: every = 1 steps, delay = 0 steps, check = yes
  max neighbors/atom: 2000, page size: 100000
  master list distance cutoff = 7.28721
  ghost atom cutoff = 7.28721
  1 neighbor lists, perpetual/occasional/extra = 1 0 0
  (1) pair eam/alloy, perpetual
      attributes: half, newton on
      pair build: half/nsq/newton
      stencil: none
      bin: none
Setting up cg style minimization ...
  Unit style    : metal
  Current step  : 26
Per MPI rank memory allocation (min/avg/max) = 4.449 | 4.449 | 4.449 Mbytes
   Step          Temp          PotEng         Press           Pxx            Pyy            Pzz            Pxy            Pxz            Pyz             Lx             Ly             Lz           Volume    
        26   0             -322.55943      790.05278      615.36915      1139.42        615.36916      1.6172764e-06 -3.4882259e-07  1.750388e-06   8.1000093      12.137864      16.200019      1592.7342    
        27   0             -322.55943      790.05276      615.36914      1139.42        615.36914     -3.1969094e-07  7.3016882e-08 -2.1913674e-08  8.1000093      12.137864      16.200019      1592.7342    
        28   0             -322.55943      790.05276      615.36913      1139.42        615.36913      6.3553685e-08 -8.8606014e-08  8.1695986e-08  8.1000093      12.137864      16.200019      1592.7342    
        29   0             -322.55943      790.05276      615.36913      1139.42        615.36913     -1.045997e-08  -1.1809861e-08 -2.7717249e-08  8.1000093      12.137864      16.200019      1592.7342    
        30   0             -322.55943      790.05276      615.36913      1139.42        615.36913     -1.0291426e-08 -7.5212773e-09 -5.5358934e-09  8.1000093      12.137864      16.200019      1592.7342    
        31   0             -322.55943      790.05276      615.36913      1139.42        615.36913     -8.7658501e-09 -8.8466612e-10 -3.0138859e-09  8.1000093      12.137864      16.200019      1592.7342    
        32   0             -322.55943      790.05276      615.36913      1139.42        615.36913     -4.6227065e-09 -6.0936265e-10 -2.0491263e-10  8.1000093      12.137864      16.200019      1592.7342    
        33   0             -322.55943      790.05276      615.36913      1139.42        615.36913     -2.7233461e-09 -1.7341874e-10  2.1391758e-10  8.1000093      12.137864      16.200019      1592.7342    
        34   0             -322.55943      790.05276      615.36913      1139.42        615.36913     -1.4653561e-09 -9.3739958e-11  1.3757846e-10  8.1000093      12.137864      16.200019      1592.7342    
        35   0             -322.55943      790.05276      615.36913      1139.42        615.36913     -7.6049175e-10 -5.5314477e-11  2.9667734e-11  8.1000093      12.137864      16.200019      1592.7342    
        36   0             -322.55943      790.05276      615.36913      1139.42        615.36913     -3.5452621e-10 -1.4149304e-11 -1.959455e-11   8.1000093      12.137864      16.200019      1592.7342    
        37   0             -322.55943      790.05276      615.36913      1139.42        615.36913     -9.8861659e-11 -8.8215363e-12 -2.6606941e-11  8.1000093      12.137864      16.200019      1592.7342    
        38   0             -322.55943      790.05276      615.36913      1139.42        615.36913     -3.5078142e-11 -6.2035791e-12 -2.5467069e-12  8.1000093      12.137864      16.200019      1592.7342    
        39   0             -322.55943      790.05276      615.36913      1139.42        615.36913      4.3694989e-12  1.1672476e-11  2.3366274e-11  8.1000093      12.137864      16.200019      1592.7342    
        40   0             -322.55943      790.05276      615.36913      1139.42        615.36913      1.6902143e-11  2.004661e-11   9.7542654e-12  8.1000093      12.137864      16.200019      1592.7342    
        41   0             -322.55943      790.05276      615.36913      1139.42        615.36913      5.7201348e-12  1.5032534e-11  2.4177994e-11  8.1000093      12.137864      16.200019      1592.7342    
        42   0             -322.55943      790.05276      615.36913      1139.42        615.36913      9.3078703e-12 -2.4612735e-11  2.1183659e-14  8.1000093      12.137864      16.200019      1592.7342    
        43   0             -322.55943      790.05276      615.36913      1139.42        615.36913     -9.9779533e-12 -1.9506031e-11 -3.3028346e-11  8.1000093      12.137864      16.200019      1592.7342    
        44   0             -322.55943      790.05276      615.36913      1139.42        615.36913      1.372623e-11  -1.4916283e-12  1.3898427e-11  8.1000093      12.137864      16.200019      1592.7342    
        45   0             -322.55943      790.05276      615.36913      1139.42        615.36913      1.8312109e-11 -1.8431843e-11  2.5742414e-11  8.1000093      12.137864      16.200019      1592.7342    
        46   0             -322.55943      790.05276      615.36913      1139.42        615.36913     -2.7501319e-12  5.7271325e-12 -4.4408503e-11  8.1000093      12.137864      16.200019      1592.7342    
        47   0             -322.55943      790.05276      615.36913      1139.42        615.36913      2.1289092e-13 -4.7869896e-12 -1.3916968e-11  8.1000093      12.137864      16.200019      1592.7342    
        48   0             -322.55943      790.05276      615.36913      1139.42        615.36913     -1.6563612e-11  3.4654676e-12 -1.5902304e-11  8.1000093      12.137864      16.200019      1592.7342    
        49   0             -322.55943      790.05276      615.36913      1139.42        615.36913     -1.839587e-11  -5.4571472e-12  8.5241945e-12  8.1000093      12.137864      16.200019      1592.7342    
        50   0             -322.55943      790.05276      615.36913      1139.42        615.36913     -1.0330445e-12  3.4079131e-12  2.1117674e-11  8.1000093      12.137864      16.200019      1592.7342    
        51   0             -322.55943      790.05276      615.36913      1139.42        615.36913      4.5021195e-13 -1.1985677e-11  1.3924425e-11  8.1000093      12.137864      16.200019      1592.7342    
        52   0             -322.55943      790.05276      615.36913      1139.42        615.36913     -7.7129334e-13 -1.7487839e-11  3.4249074e-11  8.1000093      12.137864      16.200019      1592.7342    
Loop time of 0.007642 on 1 procs for 26 steps with 96 atoms

204.5% CPU use with 1 MPI tasks x 1 OpenMP threads

Minimization stats:
  Stopping criterion = force tolerance
  Energy initial, next-to-last, final = 
     -322.559432172941    -322.5594321934  -322.559432193401
  Force two-norm initial, final = 0.00049294441 4.4892481e-11
  Force max component initial, final = 7.5147616e-05 7.908188e-12
  Final line search alpha, max atom move = 1 7.908188e-12
  Iterations, force evaluations = 26 52

MPI task timing breakdown:
Section |  min time  |  avg time  |  max time  |%varavg| %total
---------------------------------------------------------------
Pair    | 0.007146   | 0.007146   | 0.007146   |   0.0 | 93.51
Neigh   | 0          | 0          | 0          |   0.0 |  0.00
Comm    | 0.000138   | 0.000138   | 0.000138   |   0.0 |  1.81
Output  | 0.000246   | 0.000246   | 0.000246   |   0.0 |  3.22
Modify  | 0          | 0          | 0          |   0.0 |  0.00
Other   |            | 0.000112   |            |       |  1.47

Nlocal:             96 ave          96 max          96 min
Histogram: 1 0 0 0 0 0 0 0 0 0
Nghost:            976 ave         976 max         976 min
Histogram: 1 0 0 0 0 0 0 0 0 0
Neighs:           4128 ave        4128 max        4128 min
Histogram: 1 0 0 0 0 0 0 0 0 0

Total # of neighbors = 4128
Ave neighs/atom = 43
Neighbor list builds = 0
Dangerous builds = 0
OMP_NUM_THREADS environment is not set. Defaulting to 1 thread. (src/comm.cpp:98)
  using 1 OpenMP thread(s) per MPI task
Loaded 1 plugins from F:\Lammps\LAMMPS 64-bit 2Aug2023\plugins

The 'box' command has been removed and will be ignored

Reading restart file ...
  restart file = 2 Aug 2023, LAMMPS = 2 Aug 2023
  restoring atom style atomic from restart
  triclinic box = (-0.010004662 -0.015006993 -0.020009324) to (8.0900047 12.135007 16.180009) with tilt (0 0 0)
  1 by 1 by 1 MPI processor grid
  pair style eam/alloy stores no restart info
  96 atoms
  read_restart CPU = 0.000 seconds
Changing box ...
  triclinic box = (-0.010004662 -0.015006993 -0.020009324) to (8.0900047 12.147157 16.180009) with tilt (0 0 0)
  triclinic box = (-0.010004662 -0.015006993 -0.020009324) to (8.0900047 12.147157 16.180009) with tilt (0 0 0)
Neighbor list info ...
  update: every = 1 steps, delay = 0 steps, check = yes
  max neighbors/atom: 2000, page size: 100000
  master list distance cutoff = 7.28721
  ghost atom cutoff = 7.28721
  1 neighbor lists, perpetual/occasional/extra = 1 0 0
  (1) pair eam/alloy, perpetual
      attributes: half, newton on
      pair build: half/nsq/newton
      stencil: none
      bin: none
Setting up cg style minimization ...
  Unit style    : metal
  Current step  : 26
Per MPI rank memory allocation (min/avg/max) = 4.449 | 4.449 | 4.449 Mbytes
   Step          Temp          PotEng         Press           Pxx            Pyy            Pzz            Pxy            Pxz            Pyz             Lx             Ly             Lz           Volume    
        26   0             -322.55943     -788.52402     -614.91887     -1135.7343     -614.91886      1.6135576e-06 -4.3083143e-07  1.6905346e-06  8.1000093      12.162164      16.200019      1595.9228    
        27   0             -322.55943     -788.52404     -614.91889     -1135.7344     -614.91889     -3.042477e-07   5.9465753e-08 -3.3169124e-08  8.1000093      12.162164      16.200019      1595.9228    
        28   0             -322.55943     -788.52405     -614.91889     -1135.7344     -614.91889      6.4863087e-08 -8.9758954e-08  8.5716148e-08  8.1000093      12.162164      16.200019      1595.9228    
        29   0             -322.55943     -788.52405     -614.91889     -1135.7344     -614.91889     -1.1018363e-08 -1.160903e-08  -2.4565752e-08  8.1000093      12.162164      16.200019      1595.9228    
        30   0             -322.55943     -788.52405     -614.91889     -1135.7344     -614.91889     -1.0371029e-08 -7.4704211e-09 -4.4385795e-09  8.1000093      12.162164      16.200019      1595.9228    
        31   0             -322.55943     -788.52405     -614.91889     -1135.7344     -614.91889     -8.6846763e-09 -8.3982096e-10 -2.6674423e-09  8.1000093      12.162164      16.200019      1595.9228    
        32   0             -322.55943     -788.52405     -614.91889     -1135.7344     -614.91889     -4.565164e-09  -6.1628724e-10 -2.0420096e-10  8.1000093      12.162164      16.200019      1595.9228    
        33   0             -322.55943     -788.52405     -614.91889     -1135.7344     -614.91889     -2.6395782e-09 -1.729696e-10   1.3723089e-10  8.1000093      12.162164      16.200019      1595.9228    
        34   0             -322.55943     -788.52405     -614.91889     -1135.7344     -614.91889     -1.4275979e-09 -6.9708299e-11  1.2919207e-10  8.1000093      12.162164      16.200019      1595.9228    
        35   0             -322.55943     -788.52405     -614.91889     -1135.7344     -614.91889     -7.2096881e-10 -7.7177919e-11  6.2120741e-12  8.1000093      12.162164      16.200019      1595.9228    
        36   0             -322.55943     -788.52405     -614.91889     -1135.7344     -614.91889     -3.6131685e-10 -1.1577082e-11  1.1974256e-11  8.1000093      12.162164      16.200019      1595.9228    
        37   0             -322.55943     -788.52405     -614.91889     -1135.7344     -614.91889     -1.0654974e-10 -3.4116326e-12 -5.6221491e-12  8.1000093      12.162164      16.200019      1595.9228    
        38   0             -322.55943     -788.52405     -614.91889     -1135.7344     -614.91889     -3.1653886e-11  3.073875e-12  -5.1513487e-11  8.1000093      12.162164      16.200019      1595.9228    
        39   0             -322.55943     -788.52405     -614.91889     -1135.7344     -614.91889     -1.9560764e-11  3.8161107e-12  1.6275992e-11  8.1000093      12.162164      16.200019      1595.9228    
        40   0             -322.55943     -788.52405     -614.91889     -1135.7344     -614.91889     -4.3538026e-12 -7.6136058e-12 -2.5602751e-11  8.1000093      12.162164      16.200019      1595.9228    
        41   0             -322.55943     -788.52405     -614.91889     -1135.7344     -614.91889     -6.2555436e-12 -1.8612071e-11 -2.6080488e-11  8.1000093      12.162164      16.200019      1595.9228    
        42   0             -322.55943     -788.52405     -614.91889     -1135.7344     -614.91889     -9.9963307e-12 -7.5617001e-13  7.1064513e-12  8.1000093      12.162164      16.200019      1595.9228    
        43   0             -322.55943     -788.52405     -614.91889     -1135.7344     -614.91889      2.156003e-12  -4.8647617e-12 -2.0304414e-11  8.1000093      12.162164      16.200019      1595.9228    
        44   0             -322.55943     -788.52405     -614.91889     -1135.7344     -614.91889      7.4641592e-12  1.4072633e-11  4.4873294e-12  8.1000093      12.162164      16.200019      1595.9228    
        45   0             -322.55943     -788.52405     -614.91889     -1135.7344     -614.91889     -8.1085219e-12  1.2929973e-11 -1.8281497e-11  8.1000093      12.162164      16.200019      1595.9228    
        46   0             -322.55943     -788.52405     -614.91889     -1135.7344     -614.91889      1.2483223e-11 -1.5202073e-11 -2.9542912e-11  8.1000093      12.162164      16.200019      1595.9228    
        47   0             -322.55943     -788.52405     -614.91889     -1135.7344     -614.91889     -1.8097887e-11  1.2610236e-12 -2.948934e-11   8.1000093      12.162164      16.200019      1595.9228    
        48   0             -322.55943     -788.52405     -614.91889     -1135.7344     -614.91889      1.2779281e-11  2.8908046e-12 -8.3993414e-12  8.1000093      12.162164      16.200019      1595.9228    
        49   0             -322.55943     -788.52405     -614.91889     -1135.7344     -614.91889     -1.0689456e-11 -2.1792458e-12  7.5996736e-12  8.1000093      12.162164      16.200019      1595.9228    
        50   0             -322.55943     -788.52405     -614.91889     -1135.7344     -614.91889      7.5129217e-12 -5.9167807e-12 -7.2356735e-12  8.1000093      12.162164      16.200019      1595.9228    
        51   0             -322.55943     -788.52405     -614.91889     -1135.7344     -614.91889     -2.0556914e-11 -7.4809598e-12 -2.7864076e-11  8.1000093      12.162164      16.200019      1595.9228    
Loop time of 0.007259 on 1 procs for 25 steps with 96 atoms

215.3% CPU use with 1 MPI tasks x 1 OpenMP threads

Minimization stats:
  Stopping criterion = force tolerance
  Energy initial, next-to-last, final = 
     -322.559433392334  -322.559433412751  -322.559433412749
  Force two-norm initial, final = 0.00049155821 9.7599034e-11
  Force max component initial, final = 7.4793049e-05 1.5194623e-11
  Final line search alpha, max atom move = 1 1.5194623e-11
  Iterations, force evaluations = 25 50

MPI task timing breakdown:
Section |  min time  |  avg time  |  max time  |%varavg| %total
---------------------------------------------------------------
Pair    | 0.006787   | 0.006787   | 0.006787   |   0.0 | 93.50
Neigh   | 0          | 0          | 0          |   0.0 |  0.00
Comm    | 0.000136   | 0.000136   | 0.000136   |   0.0 |  1.87
Output  | 0.000208   | 0.000208   | 0.000208   |   0.0 |  2.87
Modify  | 0          | 0          | 0          |   0.0 |  0.00
Other   |            | 0.000128   |            |       |  1.76

Nlocal:             96 ave          96 max          96 min
Histogram: 1 0 0 0 0 0 0 0 0 0
Nghost:            976 ave         976 max         976 min
Histogram: 1 0 0 0 0 0 0 0 0 0
Neighs:           4128 ave        4128 max        4128 min
Histogram: 1 0 0 0 0 0 0 0 0 0

Total # of neighbors = 4128
Ave neighs/atom = 43
Neighbor list builds = 0
Dangerous builds = 0
OMP_NUM_THREADS environment is not set. Defaulting to 1 thread. (src/comm.cpp:98)
  using 1 OpenMP thread(s) per MPI task
Loaded 1 plugins from F:\Lammps\LAMMPS 64-bit 2Aug2023\plugins

The 'box' command has been removed and will be ignored

Reading restart file ...
  restart file = 2 Aug 2023, LAMMPS = 2 Aug 2023
  restoring atom style atomic from restart
  triclinic box = (-0.010004662 -0.015006993 -0.020009324) to (8.0900047 12.135007 16.180009) with tilt (0 0 0)
  1 by 1 by 1 MPI processor grid
  pair style eam/alloy stores no restart info
  96 atoms
  read_restart CPU = 0.000 seconds
Changing box ...
  triclinic box = (-0.010004662 -0.015006993 -0.020009324) to (8.0900047 12.135007 16.163809) with tilt (0 0 0)
Neighbor list info ...
  update: every = 1 steps, delay = 0 steps, check = yes
  max neighbors/atom: 2000, page size: 100000
  master list distance cutoff = 7.28721
  ghost atom cutoff = 7.28721
  1 neighbor lists, perpetual/occasional/extra = 1 0 0
  (1) pair eam/alloy, perpetual
      attributes: half, newton on
      pair build: half/nsq/newton
      stencil: none
      bin: none
Setting up cg style minimization ...
  Unit style    : metal
  Current step  : 26
Per MPI rank memory allocation (min/avg/max) = 4.449 | 4.449 | 4.449 Mbytes
   Step          Temp          PotEng         Press           Pxx            Pyy            Pzz            Pxy            Pxz            Pyz             Lx             Ly             Lz           Volume    
        26   0             -322.55943      790.05278      615.36915      615.36915      1139.42        1.6338433e-06 -3.3220035e-07  1.7740329e-06  8.1000093      12.150014      16.183819      1592.7342    
        27   0             -322.55943      790.05276      615.36914      615.36914      1139.42       -3.0815481e-07  8.1265798e-08 -2.5052941e-08  8.1000093      12.150014      16.183819      1592.7342    
        28   0             -322.55943      790.05276      615.36913      615.36913      1139.42        6.532128e-08  -8.385042e-08   8.0785771e-08  8.1000093      12.150014      16.183819      1592.7342    
        29   0             -322.55943      790.05276      615.36913      615.36913      1139.42       -1.0498405e-08 -1.0446182e-08 -2.8151175e-08  8.1000093      12.150014      16.183819      1592.7342    
        30   0             -322.55943      790.05276      615.36913      615.36913      1139.42       -1.0406457e-08 -6.9972612e-09 -5.6768997e-09  8.1000093      12.150014      16.183819      1592.7342    
        31   0             -322.55943      790.05276      615.36913      615.36913      1139.42       -8.826346e-09  -6.7419836e-10 -3.036548e-09   8.1000093      12.150014      16.183819      1592.7342    
        32   0             -322.55943      790.05276      615.36913      615.36913      1139.42       -4.6624334e-09 -5.9598206e-10 -2.2520407e-10  8.1000093      12.150014      16.183819      1592.7342    
        33   0             -322.55943      790.05276      615.36913      615.36913      1139.42       -2.7328773e-09 -1.631875e-10   1.9785883e-10  8.1000093      12.150014      16.183819      1592.7342    
        34   0             -322.55943      790.05276      615.36913      615.36913      1139.42       -1.4396347e-09 -6.9718563e-11  1.3629314e-10  8.1000093      12.150014      16.183819      1592.7342    
        35   0             -322.55943      790.05276      615.36913      615.36913      1139.42       -7.5781142e-10 -6.386784e-11   6.532811e-11   8.1000093      12.150014      16.183819      1592.7342    
        36   0             -322.55943      790.05276      615.36913      615.36913      1139.42       -3.6167725e-10 -6.1815239e-12 -3.2693803e-11  8.1000093      12.150014      16.183819      1592.7342    
        37   0             -322.55943      790.05276      615.36913      615.36913      1139.42       -1.0337425e-10  1.1397552e-11 -1.0045847e-11  8.1000093      12.150014      16.183819      1592.7342    
        38   0             -322.55943      790.05276      615.36913      615.36913      1139.42       -3.8268016e-11  1.3635765e-11  5.7332836e-13  8.1000093      12.150014      16.183819      1592.7342    
        39   0             -322.55943      790.05276      615.36913      615.36913      1139.42        7.377892e-12   1.9170785e-12 -1.851055e-11   8.1000093      12.150014      16.183819      1592.7342    
        40   0             -322.55943      790.05276      615.36913      615.36913      1139.42        6.5193483e-12 -1.7044967e-11  1.5956534e-11  8.1000093      12.150014      16.183819      1592.7342    
        41   0             -322.55943      790.05276      615.36913      615.36913      1139.42       -6.5158582e-12  3.5709547e-12 -2.4942351e-11  8.1000093      12.150014      16.183819      1592.7342    
        42   0             -322.55943      790.05276      615.36913      615.36913      1139.42        1.4982635e-11 -2.5360027e-11  3.0085987e-12  8.1000093      12.150014      16.183819      1592.7342    
        43   0             -322.55943      790.05276      615.36913      615.36913      1139.42        1.7415175e-12 -7.587161e-12  -1.438242e-11   8.1000093      12.150014      16.183819      1592.7342    
        44   0             -322.55943      790.05276      615.36913      615.36913      1139.42        2.4112515e-11  1.8369298e-11  6.4145344e-12  8.1000093      12.150014      16.183819      1592.7342    
        45   0             -322.55943      790.05276      615.36913      615.36913      1139.42        1.9223003e-11 -9.712621e-12  -6.5382714e-12  8.1000093      12.150014      16.183819      1592.7342    
        46   0             -322.55943      790.05276      615.36913      615.36913      1139.42        1.2539624e-11 -5.1225621e-12 -6.0791434e-12  8.1000093      12.150014      16.183819      1592.7342    
        47   0             -322.55943      790.05276      615.36913      615.36913      1139.42        2.2615298e-12  4.7446056e-12 -6.8562141e-12  8.1000093      12.150014      16.183819      1592.7342    
        48   0             -322.55943      790.05276      615.36913      615.36913      1139.42       -6.6519688e-12  2.3114084e-12 -1.1195649e-11  8.1000093      12.150014      16.183819      1592.7342    
        49   0             -322.55943      790.05276      615.36913      615.36913      1139.42       -4.7394405e-12 -3.7601053e-12  1.1276696e-11  8.1000093      12.150014      16.183819      1592.7342    
        50   0             -322.55943      790.05276      615.36913      615.36913      1139.42        9.3846507e-12  7.1511577e-12  2.6530671e-11  8.1000093      12.150014      16.183819      1592.7342    
        51   0             -322.55943      790.05276      615.36913      615.36913      1139.42        2.3627402e-12  1.2084696e-12 -1.6583785e-11  8.1000093      12.150014      16.183819      1592.7342    
Loop time of 0.007184 on 1 procs for 25 steps with 96 atoms

217.5% CPU use with 1 MPI tasks x 1 OpenMP threads

Minimization stats:
  Stopping criterion = force tolerance
  Energy initial, next-to-last, final = 
     -322.559432172936  -322.559432193398  -322.559432193401
  Force two-norm initial, final = 0.00049306159 9.3065046e-11
  Force max component initial, final = 7.5050753e-05 1.4752588e-11
  Final line search alpha, max atom move = 1 1.4752588e-11
  Iterations, force evaluations = 25 50

MPI task timing breakdown:
Section |  min time  |  avg time  |  max time  |%varavg| %total
---------------------------------------------------------------
Pair    | 0.006681   | 0.006681   | 0.006681   |   0.0 | 93.00
Neigh   | 0          | 0          | 0          |   0.0 |  0.00
Comm    | 0.000128   | 0.000128   | 0.000128   |   0.0 |  1.78
Output  | 0.000237   | 0.000237   | 0.000237   |   0.0 |  3.30
Modify  | 0          | 0          | 0          |   0.0 |  0.00
Other   |            | 0.000138   |            |       |  1.92

Nlocal:             96 ave          96 max          96 min
Histogram: 1 0 0 0 0 0 0 0 0 0
Nghost:            976 ave         976 max         976 min
Histogram: 1 0 0 0 0 0 0 0 0 0
Neighs:           4128 ave        4128 max        4128 min
Histogram: 1 0 0 0 0 0 0 0 0 0

Total # of neighbors = 4128
Ave neighs/atom = 43
Neighbor list builds = 0
Dangerous builds = 0
OMP_NUM_THREADS environment is not set. Defaulting to 1 thread. (src/comm.cpp:98)
  using 1 OpenMP thread(s) per MPI task
Loaded 1 plugins from F:\Lammps\LAMMPS 64-bit 2Aug2023\plugins

The 'box' command has been removed and will be ignored

Reading restart file ...
  restart file = 2 Aug 2023, LAMMPS = 2 Aug 2023
  restoring atom style atomic from restart
  triclinic box = (-0.010004662 -0.015006993 -0.020009324) to (8.0900047 12.135007 16.180009) with tilt (0 0 0)
  1 by 1 by 1 MPI processor grid
  pair style eam/alloy stores no restart info
  96 atoms
  read_restart CPU = 0.000 seconds
Changing box ...
  triclinic box = (-0.010004662 -0.015006993 -0.020009324) to (8.0900047 12.135007 16.196209) with tilt (0 0 0)
Neighbor list info ...
  update: every = 1 steps, delay = 0 steps, check = yes
  max neighbors/atom: 2000, page size: 100000
  master list distance cutoff = 7.28721
  ghost atom cutoff = 7.28721
  1 neighbor lists, perpetual/occasional/extra = 1 0 0
  (1) pair eam/alloy, perpetual
      attributes: half, newton on
      pair build: half/nsq/newton
      stencil: none
      bin: none
Setting up cg style minimization ...
  Unit style    : metal
  Current step  : 26
Per MPI rank memory allocation (min/avg/max) = 4.449 | 4.449 | 4.449 Mbytes
   Step          Temp          PotEng         Press           Pxx            Pyy            Pzz            Pxy            Pxz            Pyz             Lx             Ly             Lz           Volume    
        26   0             -322.55943     -788.52402     -614.91887     -614.91887     -1135.7343      1.6380709e-06 -4.3217726e-07  1.6871871e-06  8.1000093      12.150014      16.216219      1595.9228    
        27   0             -322.55943     -788.52404     -614.91889     -614.91889     -1135.7344     -3.1534664e-07  4.7741134e-08 -3.1992679e-08  8.1000093      12.150014      16.216219      1595.9228    
        28   0             -322.55943     -788.52405     -614.91889     -614.91889     -1135.7344      6.5963429e-08 -9.6868446e-08  8.6089971e-08  8.1000093      12.150014      16.216219      1595.9228    
        29   0             -322.55943     -788.52405     -614.91889     -614.91889     -1135.7344     -1.0409754e-08 -1.4441987e-08 -2.4203415e-08  8.1000093      12.150014      16.216219      1595.9228    
        30   0             -322.55943     -788.52405     -614.91889     -614.91889     -1135.7344     -1.0056305e-08 -8.6278053e-09 -4.3532482e-09  8.1000093      12.150014      16.216219      1595.9228    
        31   0             -322.55943     -788.52405     -614.91889     -614.91889     -1135.7344     -8.5837308e-09 -1.4144307e-09 -2.683615e-09   8.1000093      12.150014      16.216219      1595.9228    
        32   0             -322.55943     -788.52405     -614.91889     -614.91889     -1135.7344     -4.5316572e-09 -5.8981162e-10 -2.1299881e-10  8.1000093      12.150014      16.216219      1595.9228    
        33   0             -322.55943     -788.52405     -614.91889     -614.91889     -1135.7344     -2.6446529e-09 -1.1118391e-10  8.8388691e-11  8.1000093      12.150014      16.216219      1595.9228    
        34   0             -322.55943     -788.52405     -614.91889     -614.91889     -1135.7344     -1.4156685e-09 -6.7254331e-11  4.8043325e-11  8.1000093      12.150014      16.216219      1595.9228    
        35   0             -322.55943     -788.52405     -614.91889     -614.91889     -1135.7344     -7.1727679e-10 -7.4712546e-11  1.7127386e-11  8.1000093      12.150014      16.216219      1595.9228    
        36   0             -322.55943     -788.52405     -614.91889     -614.91889     -1135.7344     -3.5325013e-10 -3.8644888e-11  3.1141592e-11  8.1000093      12.150014      16.216219      1595.9228    
        37   0             -322.55943     -788.52405     -614.91889     -614.91889     -1135.7344     -9.6118029e-11 -3.0471419e-11  5.7925194e-11  8.1000093      12.150014      16.216219      1595.9228    
        38   0             -322.55943     -788.52405     -614.91889     -614.91889     -1135.7344     -1.5830426e-11  1.6707889e-11  2.7640469e-11  8.1000093      12.150014      16.216219      1595.9228    
        39   0             -322.55943     -788.52405     -614.91889     -614.91889     -1135.7344     -3.8522445e-12 -1.7570104e-11  1.153077e-11   8.1000093      12.150014      16.216219      1595.9228    
        40   0             -322.55943     -788.52405     -614.91889     -614.91889     -1135.7344     -1.8007328e-12  1.7178028e-11 -1.7595831e-12  8.1000093      12.150014      16.216219      1595.9228    
        41   0             -322.55943     -788.52405     -614.91889     -614.91889     -1135.7344      1.0835744e-11 -1.0967546e-11  2.9320885e-12  8.1000093      12.150014      16.216219      1595.9228    
        42   0             -322.55943     -788.52405     -614.91889     -614.91889     -1135.7344     -3.6955076e-12 -8.6063155e-12  1.1244204e-11  8.1000093      12.150014      16.216219      1595.9228    
        43   0             -322.55943     -788.52405     -614.91889     -614.91889     -1135.7344     -1.1159667e-11 -9.2667376e-12  1.806237e-12   8.1000093      12.150014      16.216219      1595.9228    
        44   0             -322.55943     -788.52405     -614.91889     -614.91889     -1135.7344     -1.7672955e-11  2.561508e-11   1.4505546e-11  8.1000093      12.150014      16.216219      1595.9228    
        45   0             -322.55943     -788.52405     -614.91889     -614.91889     -1135.7344     -6.3043062e-13  8.1607648e-12  2.6642372e-11  8.1000093      12.150014      16.216219      1595.9228    
        46   0             -322.55943     -788.52405     -614.91889     -614.91889     -1135.7344      1.3789364e-11 -4.6008316e-12  1.6753114e-11  8.1000093      12.150014      16.216219      1595.9228    
        47   0             -322.55943     -788.52405     -614.91889     -614.91889     -1135.7344      4.2632435e-12  1.9052158e-12 -2.7237262e-12  8.1000093      12.150014      16.216219      1595.9228    
        48   0             -322.55943     -788.52405     -614.91889     -614.91889     -1135.7344     -3.8139311e-12  1.8615203e-11  2.0824507e-12  8.1000093      12.150014      16.216219      1595.9228    
        49   0             -322.55943     -788.52405     -614.91889     -614.91889     -1135.7344      1.5154716e-11  1.7769299e-11  4.4766307e-12  8.1000093      12.150014      16.216219      1595.9228    
        50   0             -322.55943     -788.52405     -614.91889     -614.91889     -1135.7344     -1.2256825e-11  1.807912e-12  -2.1291622e-11  8.1000093      12.150014      16.216219      1595.9228    
        51   0             -322.55943     -788.52405     -614.91889     -614.91889     -1135.7344      2.1316217e-11 -3.243012e-11   5.3856788e-12  8.1000093      12.150014      16.216219      1595.9228    
Loop time of 0.011334 on 1 procs for 25 steps with 96 atoms

137.9% CPU use with 1 MPI tasks x 1 OpenMP threads

Minimization stats:
  Stopping criterion = force tolerance
  Energy initial, next-to-last, final = 
     -322.559433392341  -322.559433412748  -322.559433412751
  Force two-norm initial, final = 0.00049144082 9.206594e-11
  Force max component initial, final = 7.4889739e-05 1.6836171e-11
  Final line search alpha, max atom move = 1 1.6836171e-11
  Iterations, force evaluations = 25 50

MPI task timing breakdown:
Section |  min time  |  avg time  |  max time  |%varavg| %total
---------------------------------------------------------------
Pair    | 0.010346   | 0.010346   | 0.010346   |   0.0 | 91.28
Neigh   | 0          | 0          | 0          |   0.0 |  0.00
Comm    | 0.000248   | 0.000248   | 0.000248   |   0.0 |  2.19
Output  | 0.000542   | 0.000542   | 0.000542   |   0.0 |  4.78
Modify  | 0          | 0          | 0          |   0.0 |  0.00
Other   |            | 0.000198   |            |       |  1.75

Nlocal:             96 ave          96 max          96 min
Histogram: 1 0 0 0 0 0 0 0 0 0
Nghost:            976 ave         976 max         976 min
Histogram: 1 0 0 0 0 0 0 0 0 0
Neighs:           4128 ave        4128 max        4128 min
Histogram: 1 0 0 0 0 0 0 0 0 0

Total # of neighbors = 4128
Ave neighs/atom = 43
Neighbor list builds = 0
Dangerous builds = 0
OMP_NUM_THREADS environment is not set. Defaulting to 1 thread. (src/comm.cpp:98)
  using 1 OpenMP thread(s) per MPI task
Loaded 1 plugins from F:\Lammps\LAMMPS 64-bit 2Aug2023\plugins

The 'box' command has been removed and will be ignored

Reading restart file ...
  restart file = 2 Aug 2023, LAMMPS = 2 Aug 2023
  restoring atom style atomic from restart
  triclinic box = (-0.010004662 -0.015006993 -0.020009324) to (8.0900047 12.135007 16.180009) with tilt (0 0 0)
  1 by 1 by 1 MPI processor grid
  pair style eam/alloy stores no restart info
  96 atoms
  read_restart CPU = 0.000 seconds
Changing box ...
  triclinic box = (-0.010004662 -0.015006993 -0.020009324) to (8.0900047 12.135007 16.180009) with tilt (0 0 -0.016200019)
Neighbor list info ...
  update: every = 1 steps, delay = 0 steps, check = yes
  max neighbors/atom: 2000, page size: 100000
  master list distance cutoff = 7.28721
  ghost atom cutoff = 7.28721
  1 neighbor lists, perpetual/occasional/extra = 1 0 0
  (1) pair eam/alloy, perpetual
      attributes: half, newton on
      pair build: half/nsq/newton
      stencil: none
      bin: none
Setting up cg style minimization ...
  Unit style    : metal
  Current step  : 26
Per MPI rank memory allocation (min/avg/max) = 4.449 | 4.449 | 4.449 Mbytes
   Step          Temp          PotEng         Press           Pxx            Pyy            Pzz            Pxy            Pxz            Pyz             Lx             Ly             Lz           Volume    
        26   0             -322.55984      0.17129514     0.25674087    -0.056785924    0.31393046     1.6498272e-06 -3.9386108e-07  315.96156      8.1000093      12.150014      16.200019      1594.3285    
        27   0             -322.55984      0.17127618     0.25672392    -0.056802632    0.31390726    -3.0543473e-07  6.5693287e-08  315.96156      8.1000093      12.150014      16.200019      1594.3285    
        28   0             -322.55984      0.17127317     0.25672085    -0.056805623    0.31390429     6.5923482e-08 -8.9322453e-08  315.96156      8.1000093      12.150014      16.200019      1594.3285    
        29   0             -322.55984      0.17127248     0.25672031    -0.05680637     0.31390349    -1.0734652e-08 -1.1647299e-08  315.96156      8.1000093      12.150014      16.200019      1594.3285    
        30   0             -322.55984      0.17127237     0.2567202     -0.056806472    0.31390338    -1.0393485e-08 -7.5952391e-09  315.96156      8.1000093      12.150014      16.200019      1594.3285    
        31   0             -322.55984      0.17127235     0.25672019    -0.056806495    0.31390336    -8.7896309e-09 -9.043366e-10   315.96156      8.1000093      12.150014      16.200019      1594.3285    
        32   0             -322.55984      0.17127234     0.25672019    -0.056806508    0.31390336    -4.6635865e-09 -6.4592012e-10  315.96156      8.1000093      12.150014      16.200019      1594.3285    
        33   0             -322.55984      0.17127234     0.25672018    -0.056806515    0.31390335    -2.7205355e-09 -2.0143916e-10  315.96156      8.1000093      12.150014      16.200019      1594.3285    
        34   0             -322.55984      0.17127234     0.25672018    -0.056806516    0.31390335    -1.4429926e-09 -9.2328609e-11  315.96156      8.1000093      12.150014      16.200019      1594.3285    
        35   0             -322.55984      0.17127234     0.25672018    -0.056806517    0.31390335    -7.481281e-10  -8.5018797e-11  315.96156      8.1000093      12.150014      16.200019      1594.3285    
        36   0             -322.55984      0.17127234     0.25672018    -0.056806517    0.31390335    -3.5392414e-10 -4.7906773e-11  315.96156      8.1000093      12.150014      16.200019      1594.3285    
        37   0             -322.55984      0.17127234     0.25672018    -0.056806517    0.31390335    -1.0763949e-10  3.3594013e-12  315.96156      8.1000093      12.150014      16.200019      1594.3285    
        38   0             -322.55984      0.17127234     0.25672018    -0.056806517    0.31390335    -1.5755607e-11 -2.8328198e-11  315.96156      8.1000093      12.150014      16.200019      1594.3285    
        39   0             -322.55984      0.17127234     0.25672018    -0.056806517    0.31390335     1.7502356e-12 -7.0708323e-12  315.96156      8.1000093      12.150014      16.200019      1594.3285    
        40   0             -322.55984      0.17127234     0.25672018    -0.056806517    0.31390335     4.162911e-12   4.0136035e-12  315.96156      8.1000093      12.150014      16.200019      1594.3285    
        41   0             -322.55984      0.17127234     0.25672018    -0.056806517    0.31390335    -8.0120347e-12 -2.4743625e-11  315.96156      8.1000093      12.150014      16.200019      1594.3285    
        42   0             -322.55984      0.17127234     0.25672018    -0.056806517    0.31390335     1.0048165e-11 -2.2351165e-11  315.96156      8.1000093      12.150014      16.200019      1594.3285    
        43   0             -322.55984      0.17127234     0.25672018    -0.056806517    0.31390335     3.8630698e-11 -2.1600559e-11  315.96156      8.1000093      12.150014      16.200019      1594.3285    
        44   0             -322.55984      0.17127234     0.25672018    -0.056806517    0.31390335    -9.93311e-12   -2.4394254e-12  315.96156      8.1000093      12.150014      16.200019      1594.3285    
        45   0             -322.55984      0.17127234     0.25672018    -0.056806517    0.31390335     1.0257357e-11  2.3401566e-12  315.96156      8.1000093      12.150014      16.200019      1594.3285    
        46   0             -322.55984      0.17127234     0.25672018    -0.056806517    0.31390335     5.0589479e-12 -1.3254739e-12  315.96156      8.1000093      12.150014      16.200019      1594.3285    
        47   0             -322.55984      0.17127234     0.25672018    -0.056806517    0.31390335     1.6198396e-11  1.1629075e-11  315.96156      8.1000093      12.150014      16.200019      1594.3285    
        48   0             -322.55984      0.17127234     0.25672018    -0.056806517    0.31390335     5.1251919e-12 -4.1603436e-12  315.96156      8.1000093      12.150014      16.200019      1594.3285    
        49   0             -322.55984      0.17127234     0.25672018    -0.056806517    0.31390335     8.6535553e-12 -1.8023775e-11  315.96156      8.1000093      12.150014      16.200019      1594.3285    
        50   0             -322.55984      0.17127234     0.25672018    -0.056806517    0.31390335     2.5904882e-12 -6.6889715e-13  315.96156      8.1000093      12.150014      16.200019      1594.3285    
        51   0             -322.55984      0.17127234     0.25672018    -0.056806517    0.31390335     6.5407211e-12  3.7127376e-12  315.96156      8.1000093      12.150014      16.200019      1594.3285    
        52   0             -322.55984      0.17127234     0.25672018    -0.056806517    0.31390335     1.3346418e-11 -8.4916891e-12  315.96156      8.1000093      12.150014      16.200019      1594.3285    
Loop time of 0.009666 on 1 procs for 26 steps with 96 atoms

161.6% CPU use with 1 MPI tasks x 1 OpenMP threads

Minimization stats:
  Stopping criterion = force tolerance
  Energy initial, next-to-last, final = 
     -322.559841642336  -322.559841662776  -322.559841662776
  Force two-norm initial, final = 0.00049230053 4.5111003e-11
  Force max component initial, final = 7.5011739e-05 8.2211737e-12
  Final line search alpha, max atom move = 1 8.2211737e-12
  Iterations, force evaluations = 26 52

MPI task timing breakdown:
Section |  min time  |  avg time  |  max time  |%varavg| %total
---------------------------------------------------------------
Pair    | 0.008725   | 0.008725   | 0.008725   |   0.0 | 90.26
Neigh   | 0          | 0          | 0          |   0.0 |  0.00
Comm    | 0.000235   | 0.000235   | 0.000235   |   0.0 |  2.43
Output  | 0.000381   | 0.000381   | 0.000381   |   0.0 |  3.94
Modify  | 0          | 0          | 0          |   0.0 |  0.00
Other   |            | 0.000325   |            |       |  3.36

Nlocal:             96 ave          96 max          96 min
Histogram: 1 0 0 0 0 0 0 0 0 0
Nghost:            976 ave         976 max         976 min
Histogram: 1 0 0 0 0 0 0 0 0 0
Neighs:           4128 ave        4128 max        4128 min
Histogram: 1 0 0 0 0 0 0 0 0 0

Total # of neighbors = 4128
Ave neighs/atom = 43
Neighbor list builds = 0
Dangerous builds = 0
OMP_NUM_THREADS environment is not set. Defaulting to 1 thread. (src/comm.cpp:98)
  using 1 OpenMP thread(s) per MPI task
Loaded 1 plugins from F:\Lammps\LAMMPS 64-bit 2Aug2023\plugins

The 'box' command has been removed and will be ignored

Reading restart file ...
  restart file = 2 Aug 2023, LAMMPS = 2 Aug 2023
  restoring atom style atomic from restart
  triclinic box = (-0.010004662 -0.015006993 -0.020009324) to (8.0900047 12.135007 16.180009) with tilt (0 0 0)
  1 by 1 by 1 MPI processor grid
  pair style eam/alloy stores no restart info
  96 atoms
  read_restart CPU = 0.000 seconds
Changing box ...
  triclinic box = (-0.010004662 -0.015006993 -0.020009324) to (8.0900047 12.135007 16.180009) with tilt (0 0 0.016200019)
Neighbor list info ...
  update: every = 1 steps, delay = 0 steps, check = yes
  max neighbors/atom: 2000, page size: 100000
  master list distance cutoff = 7.28721
  ghost atom cutoff = 7.28721
  1 neighbor lists, perpetual/occasional/extra = 1 0 0
  (1) pair eam/alloy, perpetual
      attributes: half, newton on
      pair build: half/nsq/newton
      stencil: none
      bin: none
Setting up cg style minimization ...
  Unit style    : metal
  Current step  : 26
Per MPI rank memory allocation (min/avg/max) = 4.449 | 4.449 | 4.449 Mbytes
   Step          Temp          PotEng         Press           Pxx            Pyy            Pzz            Pxy            Pxz            Pyz             Lx             Ly             Lz           Volume    
        26   0             -322.55984      0.17129507     0.25674085    -0.056786018    0.31393037     1.6179333e-06 -3.9801215e-07 -315.96156      8.1000093      12.150014      16.200019      1594.3285    
        27   0             -322.55984      0.17127618     0.25672392    -0.056802638    0.31390726    -3.2460253e-07  6.4860097e-08 -315.96156      8.1000093      12.150014      16.200019      1594.3285    
        28   0             -322.55984      0.17127317     0.25672085    -0.05680562     0.3139043      6.5010082e-08 -8.9256852e-08 -315.96156      8.1000093      12.150014      16.200019      1594.3285    
        29   0             -322.55984      0.17127248     0.25672031    -0.056806368    0.31390349    -1.0315903e-08 -1.1713405e-08 -315.96156      8.1000093      12.150014      16.200019      1594.3285    
        30   0             -322.55984      0.17127237     0.2567202     -0.056806472    0.31390338    -1.0283778e-08 -7.3434113e-09 -315.96156      8.1000093      12.150014      16.200019      1594.3285    
        31   0             -322.55984      0.17127235     0.25672019    -0.056806495    0.31390336    -8.7806392e-09 -8.6283899e-10 -315.96156      8.1000093      12.150014      16.200019      1594.3285    
        32   0             -322.55984      0.17127234     0.25672019    -0.056806508    0.31390336    -4.6058182e-09 -5.6319971e-10 -315.96156      8.1000093      12.150014      16.200019      1594.3285    
        33   0             -322.55984      0.17127234     0.25672018    -0.056806515    0.31390335    -2.7010633e-09 -1.5254245e-10 -315.96156      8.1000093      12.150014      16.200019      1594.3285    
        34   0             -322.55984      0.17127234     0.25672018    -0.056806516    0.31390335    -1.4531488e-09 -7.0249561e-11 -315.96156      8.1000093      12.150014      16.200019      1594.3285    
        35   0             -322.55984      0.17127234     0.25672018    -0.056806517    0.31390335    -7.2390024e-10 -7.9478246e-11 -315.96156      8.1000093      12.150014      16.200019      1594.3285    
        36   0             -322.55984      0.17127234     0.25672018    -0.056806517    0.31390335    -3.517869e-10  -4.2568361e-11 -315.96156      8.1000093      12.150014      16.200019      1594.3285    
        37   0             -322.55984      0.17127234     0.25672018    -0.056806517    0.31390335    -1.0728038e-10 -1.5541462e-11 -315.96156      8.1000093      12.150014      16.200019      1594.3285    
        38   0             -322.55984      0.17127234     0.25672018    -0.056806517    0.31390335    -2.7944499e-11  2.2216052e-11 -315.96156      8.1000093      12.150014      16.200019      1594.3285    
        39   0             -322.55984      0.17127234     0.25672018    -0.056806517    0.31390335    -6.0665537e-12  1.8272331e-11 -315.96156      8.1000093      12.150014      16.200019      1594.3285    
        40   0             -322.55984      0.17127234     0.25672018    -0.056806517    0.31390335    -1.1320747e-11  1.2775273e-12 -315.96156      8.1000093      12.150014      16.200019      1594.3285    
        41   0             -322.55984      0.17127234     0.25672018    -0.056806517    0.31390335    -1.257241e-11  -1.2204506e-11 -315.96156      8.1000093      12.150014      16.200019      1594.3285    
        42   0             -322.55984      0.17127234     0.25672018    -0.056806517    0.31390335     3.1483322e-12 -3.1313728e-11 -315.96156      8.1000093      12.150014      16.200019      1594.3285    
        43   0             -322.55984      0.17127234     0.25672018    -0.056806517    0.31390335    -1.6309964e-11  1.1437562e-11 -315.96156      8.1000093      12.150014      16.200019      1594.3285    
        44   0             -322.55984      0.17127234     0.25672018    -0.056806517    0.31390335    -1.4019317e-11 -1.5368919e-11 -315.96156      8.1000093      12.150014      16.200019      1594.3285    
        45   0             -322.55984      0.17127234     0.25672018    -0.056806517    0.31390335     5.3936544e-12 -8.219476e-12  -315.96156      8.1000093      12.150014      16.200019      1594.3285    
        46   0             -322.55984      0.17127234     0.25672018    -0.056806517    0.31390335    -3.2389818e-12 -7.8529898e-12 -315.96156      8.1000093      12.150014      16.200019      1594.3285    
        47   0             -322.55984      0.17127234     0.25672018    -0.056806517    0.31390335     1.460854e-12  -1.1758897e-11 -315.96156      8.1000093      12.150014      16.200019      1594.3285    
        48   0             -322.55984      0.17127234     0.25672018    -0.056806517    0.31390335    -9.7901625e-12  3.2344718e-11 -315.96156      8.1000093      12.150014      16.200019      1594.3285    
        49   0             -322.55984      0.17127234     0.25672018    -0.056806517    0.31390335     6.8370757e-12  5.7211241e-12 -315.96156      8.1000093      12.150014      16.200019      1594.3285    
        50   0             -322.55984      0.17127234     0.25672018    -0.056806517    0.31390335    -1.0076058e-12  1.1645702e-11 -315.96156      8.1000093      12.150014      16.200019      1594.3285    
        51   0             -322.55984      0.17127234     0.25672018    -0.056806517    0.31390335     8.4129851e-12  1.0540397e-11 -315.96156      8.1000093      12.150014      16.200019      1594.3285    
        52   0             -322.55984      0.17127234     0.25672018    -0.056806517    0.31390335     6.7638587e-13 -1.4582272e-11 -315.96156      8.1000093      12.150014      16.200019      1594.3285    
Loop time of 0.007724 on 1 procs for 26 steps with 96 atoms

0.0% CPU use with 1 MPI tasks x 1 OpenMP threads

Minimization stats:
  Stopping criterion = force tolerance
  Energy initial, next-to-last, final = 
     -322.559841642339  -322.559841662775  -322.559841662777
  Force two-norm initial, final = 0.00049222436 4.5185572e-11
  Force max component initial, final = 7.4933858e-05 8.7405361e-12
  Final line search alpha, max atom move = 1 8.7405361e-12
  Iterations, force evaluations = 26 52

MPI task timing breakdown:
Section |  min time  |  avg time  |  max time  |%varavg| %total
---------------------------------------------------------------
Pair    | 0.00721    | 0.00721    | 0.00721    |   0.0 | 93.35
Neigh   | 0          | 0          | 0          |   0.0 |  0.00
Comm    | 0.000143   | 0.000143   | 0.000143   |   0.0 |  1.85
Output  | 0.000253   | 0.000253   | 0.000253   |   0.0 |  3.28
Modify  | 0          | 0          | 0          |   0.0 |  0.00
Other   |            | 0.000118   |            |       |  1.53

Nlocal:             96 ave          96 max          96 min
Histogram: 1 0 0 0 0 0 0 0 0 0
Nghost:            976 ave         976 max         976 min
Histogram: 1 0 0 0 0 0 0 0 0 0
Neighs:           4128 ave        4128 max        4128 min
Histogram: 1 0 0 0 0 0 0 0 0 0

Total # of neighbors = 4128
Ave neighs/atom = 43
Neighbor list builds = 0
Dangerous builds = 0
OMP_NUM_THREADS environment is not set. Defaulting to 1 thread. (src/comm.cpp:98)
  using 1 OpenMP thread(s) per MPI task
Loaded 1 plugins from F:\Lammps\LAMMPS 64-bit 2Aug2023\plugins

The 'box' command has been removed and will be ignored

Reading restart file ...
  restart file = 2 Aug 2023, LAMMPS = 2 Aug 2023
  restoring atom style atomic from restart
  triclinic box = (-0.010004662 -0.015006993 -0.020009324) to (8.0900047 12.135007 16.180009) with tilt (0 0 0)
  1 by 1 by 1 MPI processor grid
  pair style eam/alloy stores no restart info
  96 atoms
  read_restart CPU = 0.000 seconds
Changing box ...
  triclinic box = (-0.010004662 -0.015006993 -0.020009324) to (8.0900047 12.135007 16.180009) with tilt (0 -0.016200019 0)
Neighbor list info ...
  update: every = 1 steps, delay = 0 steps, check = yes
  max neighbors/atom: 2000, page size: 100000
  master list distance cutoff = 7.28721
  ghost atom cutoff = 7.28721
  1 neighbor lists, perpetual/occasional/extra = 1 0 0
  (1) pair eam/alloy, perpetual
      attributes: half, newton on
      pair build: half/nsq/newton
      stencil: none
      bin: none
Setting up cg style minimization ...
  Unit style    : metal
  Current step  : 26
Per MPI rank memory allocation (min/avg/max) = 4.449 | 4.449 | 4.449 Mbytes
   Step          Temp          PotEng         Press           Pxx            Pyy            Pzz            Pxy            Pxz            Pyz             Lx             Ly             Lz           Volume    
        26   0             -322.55984      0.17129511    -0.056785886    0.25674078     0.31393044     1.6348031e-06  315.96156      1.7807593e-06  8.1000093      12.150014      16.200019      1594.3285    
        27   0             -322.55984      0.17127618    -0.05680278     0.25672407     0.31390726    -3.2006794e-07  315.96156     -2.2266859e-08  8.1000093      12.150014      16.200019      1594.3285    
        28   0             -322.55984      0.17127318    -0.056805846    0.25672108     0.3139043      6.4050618e-08  315.96156      8.5189059e-08  8.1000093      12.150014      16.200019      1594.3285    
        29   0             -322.55984      0.17127248    -0.056806385    0.25672033     0.31390349    -1.0512149e-08  315.96156     -2.6539932e-08  8.1000093      12.150014      16.200019      1594.3285    
        30   0             -322.55984      0.17127237    -0.056806495    0.25672023     0.31390338    -1.0421827e-08  315.96156     -5.1397797e-09  8.1000093      12.150014      16.200019      1594.3285    
        31   0             -322.55984      0.17127235    -0.056806508    0.2567202      0.31390336    -8.8035422e-09  315.96156     -2.9371313e-09  8.1000093      12.150014      16.200019      1594.3285    
        32   0             -322.55984      0.17127234    -0.056806512    0.25672019     0.31390336    -4.6258309e-09  315.96156     -2.777252e-10   8.1000093      12.150014      16.200019      1594.3285    
        33   0             -322.55984      0.17127234    -0.056806515    0.25672018     0.31390335    -2.7089638e-09  315.96156      1.7545794e-10  8.1000093      12.150014      16.200019      1594.3285    
        34   0             -322.55984      0.17127234    -0.056806516    0.25672018     0.31390335    -1.4487732e-09  315.96156      1.1786e-10     8.1000093      12.150014      16.200019      1594.3285    
        35   0             -322.55984      0.17127234    -0.056806517    0.25672018     0.31390335    -7.4079594e-10  315.96156      4.8049589e-11  8.1000093      12.150014      16.200019      1594.3285    
        36   0             -322.55984      0.17127234    -0.056806517    0.25672018     0.31390335    -3.3910641e-10  315.96156     -7.0642601e-12  8.1000093      12.150014      16.200019      1594.3285    
        37   0             -322.55984      0.17127234    -0.056806517    0.25672018     0.31390335    -9.7577378e-11  315.96156      3.875453e-12   8.1000093      12.150014      16.200019      1594.3285    
[...]
Loop time of 0.008521 on 1 procs for 26 steps with 96 atoms

183.4% CPU use with 1 MPI tasks x 1 OpenMP threads

Minimization stats:
  Stopping criterion = force tolerance
  Energy initial, next-to-last, final = 
     -322.559841642338  -322.559841662775  -322.559841662777
  Force two-norm initial, final = 0.00049230316 4.4332281e-11
  Force max component initial, final = 7.4945496e-05 8.0949969e-12
  Final line search alpha, max atom move = 1 8.0949969e-12
  Iterations, force evaluations = 26 52

MPI task timing breakdown:
Section |  min time  |  avg time  |  max time  |%varavg| %total
---------------------------------------------------------------
Pair    | 0.00796    | 0.00796    | 0.00796    |   0.0 | 93.42
Neigh   | 0          | 0          | 0          |   0.0 |  0.00
Comm    | 0.000156   | 0.000156   | 0.000156   |   0.0 |  1.83
Output  | 0.000287   | 0.000287   | 0.000287   |   0.0 |  3.37
Modify  | 0          | 0          | 0          |   0.0 |  0.00
Other   |            | 0.000118   |            |       |  1.38

Nlocal:             96 ave          96 max          96 min
Histogram: 1 0 0 0 0 0 0 0 0 0
Nghost:            976 ave         976 max         976 min
Histogram: 1 0 0 0 0 0 0 0 0 0
Neighs:           4128 ave        4128 max        4128 min
Histogram: 1 0 0 0 0 0 0 0 0 0

Total # of neighbors = 4128
Ave neighs/atom = 43
Neighbor list builds = 0
Dangerous builds = 0
OMP_NUM_THREADS environment is not set. Defaulting to 1 thread. (src/comm.cpp:98)
  using 1 OpenMP thread(s) per MPI task
Loaded 1 plugins from F:\Lammps\LAMMPS 64-bit 2Aug2023\plugins

The 'box' command has been removed and will be ignored

Reading restart file ...
  restart file = 2 Aug 2023, LAMMPS = 2 Aug 2023
  restoring atom style atomic from restart
  triclinic box = (-0.010004662 -0.015006993 -0.020009324) to (8.0900047 12.135007 16.180009) with tilt (0 0 0)
  1 by 1 by 1 MPI processor grid
  pair style eam/alloy stores no restart info
  96 atoms
  read_restart CPU = 0.000 seconds
Changing box ...
  triclinic box = (-0.010004662 -0.015006993 -0.020009324) to (8.0900047 12.135007 16.180009) with tilt (-0.012150014 0 0)
Neighbor list info ...
  update: every = 1 steps, delay = 0 steps, check = yes
  max neighbors/atom: 2000, page size: 100000
  master list distance cutoff = 7.28721
  ghost atom cutoff = 7.28721
  1 neighbor lists, perpetual/occasional/extra = 1 0 0
  (1) pair eam/alloy, perpetual
      attributes: half, newton on
      pair build: half/nsq/newton
      stencil: none
      bin: none
Setting up cg style minimization ...
  Unit style    : metal
  Current step  : 26
Per MPI rank memory allocation (min/avg/max) = 4.449 | 4.449 | 4.449 Mbytes
   Step          Temp          PotEng         Press           Pxx            Pyy            Pzz            Pxy            Pxz            Pyz             Lx             Ly             Lz           Volume    
        26   0             -322.55984      0.17129511    -0.056785896    0.31392391     0.25674731     315.96156     -4.0575245e-07  1.7830498e-06  8.1000093      12.150014      16.200019      1594.3285    
        27   0             -322.55984      0.17127617    -0.056802784    0.31390722     0.25672408     315.96156      6.0413211e-08 -1.9315339e-08  8.1000093      12.150014      16.200019      1594.3285    
        28   0             -322.55984      0.17127317    -0.056805852    0.31390424     0.25672113     315.96156     -8.9731357e-08  8.5938948e-08  8.1000093      12.150014      16.200019      1594.3285    
        29   0             -322.55984      0.17127248    -0.056806386    0.3139035      0.25672032     315.96156     -1.189589e-08  -2.648706e-08   8.1000093      12.150014      16.200019      1594.3285    
        30   0             -322.55984      0.17127237    -0.056806496    0.31390339     0.25672021     315.96156     -7.6163049e-09 -5.0254389e-09  8.1000093      12.150014      16.200019      1594.3285    
        31   0             -322.55984      0.17127235    -0.056806508    0.31390337     0.2567202      315.96156     -8.9326295e-10 -2.8557217e-09  8.1000093      12.150014      16.200019      1594.3285    
        32   0             -322.55984      0.17127234    -0.056806512    0.31390336     0.25672019     315.96156     -5.8341327e-10 -2.299439e-10   8.1000093      12.150014      16.200019      1594.3285    
        33   0             -322.55984      0.17127234    -0.056806515    0.31390335     0.25672018     315.96156     -1.4231552e-10  1.5253825e-10  8.1000093      12.150014      16.200019      1594.3285    
        34   0             -322.55984      0.17127234    -0.056806516    0.31390335     0.25672018     315.96156     -7.887546e-11   1.5186278e-10  8.1000093      12.150014      16.200019      1594.3285    
        35   0             -322.55984      0.17127234    -0.056806517    0.31390335     0.25672018     315.96156     -6.2149461e-11  5.9165343e-11  8.1000093      12.150014      16.200019      1594.3285    
        36   0             -322.55984      0.17127234    -0.056806517    0.31390335     0.25672018     315.96156     -1.0272612e-11  8.3804038e-12  8.1000093      12.150014      16.200019      1594.3285    
        37   0             -322.55984      0.17127234    -0.056806517    0.31390335     0.25672018     315.96156     -1.0373767e-12 -1.1173544e-11  8.1000093      12.150014      16.200019      1594.3285    
        38   0             -322.55984      0.17127234    -0.056806517    0.31390335     0.25672018     315.96156      5.5416543e-12  7.8921252e-12  8.1000093      12.150014      16.200019      1594.3285    
        39   0             -322.55984      0.17127234    -0.056806517    0.31390335     0.25672018     315.96156     -1.0179383e-11  1.7819914e-11  8.1000093      12.150014      16.200019      1594.3285    
        40   0             -322.55984      0.17127234    -0.056806517    0.31390335     0.25672018     315.96156      1.1497154e-13  1.3827624e-11  8.1000093      12.150014      16.200019      1594.3285    
        41   0             -322.55984      0.17127234    -0.056806518    0.31390335     0.25672018     315.96156      1.7192636e-11 -8.9673625e-12  8.1000093      12.150014      16.200019      1594.3285    
        42   0             -322.55984      0.17127234    -0.056806517    0.31390335     0.25672018     315.96156     -2.0899452e-11 -1.7273709e-11  8.1000093      12.150014      16.200019      1594.3285    
        43   0             -322.55984      0.17127234    -0.056806517    0.31390335     0.25672018     315.96156      1.667292e-11  -1.7022498e-12  8.1000093      12.150014      16.200019      1594.3285    
        44   0             -322.55984      0.17127234    -0.056806517    0.31390335     0.25672018     315.96156      2.2051142e-11  1.0515639e-11  8.1000093      12.150014      16.200019      1594.3285    
        45   0             -322.55984      0.17127234    -0.056806518    0.31390335     0.25672018     315.96156     -1.1979179e-11  7.2709141e-12  8.1000093      12.150014      16.200019      1594.3285    
        46   0             -322.55984      0.17127234    -0.056806517    0.31390335     0.25672018     315.96156     -1.9037774e-13 -2.0074241e-11  8.1000093      12.150014      16.200019      1594.3285    
        47   0             -322.55984      0.17127234    -0.056806517    0.31390335     0.25672018     315.96156      4.57244e-12   -2.1115872e-11  8.1000093      12.150014      16.200019      1594.3285    
        48   0             -322.55984      0.17127234    -0.056806518    0.31390335     0.25672018     315.96156     -1.8694237e-11 -1.8235291e-11  8.1000093      12.150014      16.200019      1594.3285    
        49   0             -322.55984      0.17127234    -0.056806517    0.31390335     0.25672018     315.96156     -1.3622073e-11 -2.7060688e-11  8.1000093      12.150014      16.200019      1594.3285    
        50   0             -322.55984      0.17127234    -0.056806518    0.31390335     0.25672018     315.96156     -2.0650488e-11  2.4427287e-11  8.1000093      12.150014      16.200019      1594.3285    
        51   0             -322.55984      0.17127234    -0.056806518    0.31390335     0.25672018     315.96156     -1.4226496e-11 -1.3932863e-11  8.1000093      12.150014      16.200019      1594.3285    
        52   0             -322.55984      0.17127234    -0.056806517    0.31390335     0.25672018     315.96156     -6.6300864e-12  2.1793027e-11  8.1000093      12.150014      16.200019      1594.3285    
Loop time of 0.007805 on 1 procs for 26 steps with 96 atoms

200.2% CPU use with 1 MPI tasks x 1 OpenMP threads

Minimization stats:
  Stopping criterion = force tolerance
  Energy initial, next-to-last, final = 
     -322.559841642336  -322.559841662776  -322.559841662777
  Force two-norm initial, final = 0.00049230026 5.4656392e-11
  Force max component initial, final = 7.4945741e-05 9.009158e-12
  Final line search alpha, max atom move = 1 9.009158e-12
  Iterations, force evaluations = 26 52

MPI task timing breakdown:
Section |  min time  |  avg time  |  max time  |%varavg| %total
---------------------------------------------------------------
Pair    | 0.007311   | 0.007311   | 0.007311   |   0.0 | 93.67
Neigh   | 0          | 0          | 0          |   0.0 |  0.00
Comm    | 0.000146   | 0.000146   | 0.000146   |   0.0 |  1.87
Output  | 0.000233   | 0.000233   | 0.000233   |   0.0 |  2.99
Modify  | 0          | 0          | 0          |   0.0 |  0.00
Other   |            | 0.000115   |            |       |  1.47

Nlocal:             96 ave          96 max          96 min
Histogram: 1 0 0 0 0 0 0 0 0 0
Nghost:            976 ave         976 max         976 min
Histogram: 1 0 0 0 0 0 0 0 0 0
Neighs:           4128 ave        4128 max        4128 min
Histogram: 1 0 0 0 0 0 0 0 0 0

Total # of neighbors = 4128
Ave neighs/atom = 43
Neighbor list builds = 0
Dangerous builds = 0
OMP_NUM_THREADS environment is not set. Defaulting to 1 thread. (src/comm.cpp:98)
  using 1 OpenMP thread(s) per MPI task
Loaded 1 plugins from F:\Lammps\LAMMPS 64-bit 2Aug2023\plugins

The 'box' command has been removed and will be ignored

Reading restart file ...
  restart file = 2 Aug 2023, LAMMPS = 2 Aug 2023
  restoring atom style atomic from restart
  triclinic box = (-0.010004662 -0.015006993 -0.020009324) to (8.0900047 12.135007 16.180009) with tilt (0 0 0)
  1 by 1 by 1 MPI processor grid
  pair style eam/alloy stores no restart info
  96 atoms
  read_restart CPU = 0.000 seconds
Changing box ...
  triclinic box = (-0.010004662 -0.015006993 -0.020009324) to (8.0900047 12.135007 16.180009) with tilt (0.012150014 0 0)
Neighbor list info ...
  update: every = 1 steps, delay = 0 steps, check = yes
  max neighbors/atom: 2000, page size: 100000
  master list distance cutoff = 7.28721
  ghost atom cutoff = 7.28721
  1 neighbor lists, perpetual/occasional/extra = 1 0 0
  (1) pair eam/alloy, perpetual
      attributes: half, newton on
      pair build: half/nsq/newton
      stencil: none
      bin: none
Setting up cg style minimization ...
  Unit style    : metal
  Current step  : 26
Per MPI rank memory allocation (min/avg/max) = 4.449 | 4.449 | 4.449 Mbytes
   Step          Temp          PotEng         Press           Pxx            Pyy            Pzz            Pxy            Pxz            Pyz             Lx             Ly             Lz           Volume    
        26   0             -322.55984      0.1712951     -0.056785922    0.31392389     0.25674732    -315.96156     -3.8549905e-07  1.7627661e-06  8.1000093      12.150014      16.200019      1594.3285    
        27   0             -322.55984      0.17127619    -0.056802783    0.31390723     0.2567241     -315.96156      7.1150997e-08 -2.9955873e-08  8.1000093      12.150014      16.200019      1594.3285    
        28   0             -322.55984      0.17127318    -0.056805852    0.31390425     0.25672113    -315.96156     -8.8880013e-08  8.429362e-08   8.1000093      12.150014      16.200019      1594.3285    
        29   0             -322.55984      0.17127248    -0.056806387    0.3139035      0.25672032    -315.96156     -1.1560854e-08 -2.7294511e-08  8.1000093      12.150014      16.200019      1594.3285    
        30   0             -322.55984      0.17127237    -0.056806496    0.31390339     0.25672021    -315.96156     -7.3672055e-09 -5.3990563e-09  8.1000093      12.150014      16.200019      1594.3285    
        31   0             -322.55984      0.17127235    -0.056806508    0.31390337     0.2567202     -315.96156     -8.2422393e-10 -2.9740917e-09  8.1000093      12.150014      16.200019      1594.3285    
        32   0             -322.55984      0.17127234    -0.056806512    0.31390336     0.25672019    -315.96156     -6.027145e-10  -2.5069366e-10  8.1000093      12.150014      16.200019      1594.3285    
        33   0             -322.55984      0.17127234    -0.056806515    0.31390335     0.25672018    -315.96156     -1.8077686e-10  1.7840112e-10  8.1000093      12.150014      16.200019      1594.3285    
        34   0             -322.55984      0.17127234    -0.056806516    0.31390335     0.25672018    -315.96156     -7.1927299e-11  1.1368035e-10  8.1000093      12.150014      16.200019      1594.3285    
        35   0             -322.55984      0.17127234    -0.056806517    0.31390335     0.25672018    -315.96156     -5.8089537e-11  5.9301784e-11  8.1000093      12.150014      16.200019      1594.3285    
        36   0             -322.55984      0.17127234    -0.056806517    0.31390335     0.25672018    -315.96156     -3.0679441e-11  1.7159919e-11  8.1000093      12.150014      16.200019      1594.3285    
        37   0             -322.55984      0.17127234    -0.056806517    0.31390335     0.25672018    -315.96156     -1.1825527e-11 -4.43547e-11    8.1000093      12.150014      16.200019      1594.3285    
        38   0             -322.55984      0.17127234    -0.056806517    0.31390335     0.25672018    -315.96156     -3.7379594e-13  9.9525203e-12  8.1000093      12.150014      16.200019      1594.3285    
        39   0             -322.55984      0.17127234    -0.056806517    0.31390335     0.25672018    -315.96156     -7.6548572e-12 -7.5475838e-12  8.1000093      12.150014      16.200019      1594.3285    
        40   0             -322.55984      0.17127234    -0.056806517    0.31390335     0.25672018    -315.96156     -2.4950879e-11  9.929254e-12   8.1000093      12.150014      16.200019      1594.3285    
        41   0             -322.55984      0.17127234    -0.056806517    0.31390335     0.25672018    -315.96156     -1.0336798e-11 -2.2977031e-12  8.1000093      12.150014      16.200019      1594.3285    
        42   0             -322.55984      0.17127234    -0.056806517    0.31390335     0.25672018    -315.96156      2.7145497e-13  1.5837844e-11  8.1000093      12.150014      16.200019      1594.3285    
        43   0             -322.55984      0.17127234    -0.056806518    0.31390335     0.25672018    -315.96156     -1.419156e-13   1.3347648e-11  8.1000093      12.150014      16.200019      1594.3285    
        44   0             -322.55984      0.17127234    -0.056806518    0.31390335     0.25672018    -315.96156     -2.6461743e-11 -3.3189789e-11  8.1000093      12.150014      16.200019      1594.3285    
        45   0             -322.55984      0.17127234    -0.056806517    0.31390335     0.25672018    -315.96156      6.0391038e-12 -5.8749839e-12  8.1000093      12.150014      16.200019      1594.3285    
        46   0             -322.55984      0.17127234    -0.056806517    0.31390335     0.25672018    -315.96156     -3.9135737e-12 -2.2330349e-11  8.1000093      12.150014      16.200019      1594.3285    
        47   0             -322.55984      0.17127234    -0.056806518    0.31390335     0.25672018    -315.96156     -4.9773962e-12  8.6191786e-12  8.1000093      12.150014      16.200019      1594.3285    
        48   0             -322.55984      0.17127234    -0.056806518    0.31390335     0.25672018    -315.96156      7.261901e-12  -1.5281573e-11  8.1000093      12.150014      16.200019      1594.3285    
        49   0             -322.55984      0.17127234    -0.056806517    0.31390335     0.25672018    -315.96156     -9.194245e-12  -5.5091112e-12  8.1000093      12.150014      16.200019      1594.3285    
        50   0             -322.55984      0.17127234    -0.056806517    0.31390335     0.25672018    -315.96156      6.305637e-12   5.5021375e-11  8.1000093      12.150014      16.200019      1594.3285    
        51   0             -322.55984      0.17127234    -0.056806517    0.31390335     0.25672018    -315.96156     -2.5511904e-12 -3.5101012e-12  8.1000093      12.150014      16.200019      1594.3285    
        52   0             -322.55984      0.17127234    -0.056806517    0.31390335     0.25672018    -315.96156      6.3074387e-12 -1.413383e-11   8.1000093      12.150014      16.200019      1594.3285    
Loop time of 0.007811 on 1 procs for 26 steps with 96 atoms

200.0% CPU use with 1 MPI tasks x 1 OpenMP threads

Minimization stats:
  Stopping criterion = force tolerance
  Energy initial, next-to-last, final = 
      -322.55984164234  -322.559841662776  -322.559841662776
  Force two-norm initial, final = 0.00049222488 5.4740306e-11
  Force max component initial, final = 7.5000147e-05 1.0384249e-11
  Final line search alpha, max atom move = 1 1.0384249e-11
  Iterations, force evaluations = 26 52

MPI task timing breakdown:
Section |  min time  |  avg time  |  max time  |%varavg| %total
---------------------------------------------------------------
Pair    | 0.007346   | 0.007346   | 0.007346   |   0.0 | 94.05
Neigh   | 0          | 0          | 0          |   0.0 |  0.00
Comm    | 0.000135   | 0.000135   | 0.000135   |   0.0 |  1.73
Output  | 0.000223   | 0.000223   | 0.000223   |   0.0 |  2.85
Modify  | 0          | 0          | 0          |   0.0 |  0.00
Other   |            | 0.000107   |            |       |  1.37

Nlocal:             96 ave          96 max          96 min
Histogram: 1 0 0 0 0 0 0 0 0 0
Nghost:            976 ave         976 max         976 min
Histogram: 1 0 0 0 0 0 0 0 0 0
Neighs:           4128 ave        4128 max        4128 min
Histogram: 1 0 0 0 0 0 0 0 0 0

Total # of neighbors = 4128
Ave neighs/atom = 43
Neighbor list builds = 0
Dangerous builds = 0
=========================================
Components of the Elastic Constant Tensor
=========================================
Elastic Constant C11all = 113.757718020426 GPa
Elastic Constant C22all = 113.757718020442 GPa
Elastic Constant C33all = 113.757718020424 GPa
Elastic Constant C12all = 61.514401244423 GPa
Elastic Constant C13all = 61.5144012444182 GPa
Elastic Constant C23all = 61.5144012444232 GPa
Elastic Constant C44all = 31.596156282499 GPa
Elastic Constant C55all = 31.5961562825008 GPa
Elastic Constant C66all = 31.5961562825005 GPa
Elastic Constant C14all = 8.04979435424328e-13 GPa
Elastic Constant C15all = -3.43997496415195e-13 GPa
Elastic Constant C16all = -4.24515705409054e-13 GPa
Elastic Constant C24all = 1.84560863989475e-12 GPa
Elastic Constant C25all = -1.49497313902373e-13 GPa
Elastic Constant C26all = -1.04605933522678e-12 GPa
Elastic Constant C34all = 3.87163676093995e-13 GPa
Elastic Constant C35all = 1.29576586426199e-12 GPa
Elastic Constant C36all = -1.12098679936779e-12 GPa
Elastic Constant C45all = 8.84689101891788e-13 GPa
Elastic Constant C46all = 1.21492223045839e-12 GPa
Elastic Constant C56all = -1.49896341458585e-13 GPa
=========================================
Average properties for a cubic crystal
=========================================
Bulk Modulus = 78.928840169758 GPa
Shear Modulus 1 = 31.5961562825001 GPa
Shear Modulus 2 = 26.1216583880048 GPa
Poisson Ratio = 0.350965124986408
Total wall time: 0:00:00
