LAMMPS (2 Aug 2023 - Update 3)
OMP_NUM_THREADS environment is not set. Defaulting to 1 thread. (src/comm.cpp:98)
  using 1 OpenMP thread(s) per MPI task
Loaded 1 plugins from F:\Lammps\LAMMPS 64-bit 2Aug2023\plugins
Lattice spacing in x,y,z = 4.04 4.04 4.04
Created triclinic box = (0 0 0) to (8.08 12.12 16.16) with tilt (0 0 0)
  1 by 1 by 1 MPI processor grid
Created 96 atoms
  using lattice units in triclinic box = (0 0 0) to (8.08 12.12 16.16) with tilt (0 0 0)
  create_atoms CPU = 0.000 seconds
Neighbor list info ...
  update: every = 1 steps, delay = 0 steps, check = yes
  max neighbors/atom: 2000, page size: 100000
  master list distance cutoff = 7.28721
  ghost atom cutoff = 7.28721
  1 neighbor lists, perpetual/occasional/extra = 1 0 0
  (1) pair eam/alloy, perpetual
      attributes: half, newton on
      pair build: half/nsq/newton
      stencil: none
      bin: none
Setting up cg style minimization ...
  Unit style    : metal
  Current step  : 0
WARNING: Energy due to 3 extra global DOFs will be included in minimizer energies
 (src/min.cpp:228)
Per MPI rank memory allocation (min/avg/max) = 4.452 | 4.452 | 4.452 Mbytes
   Step          Temp          PotEng         Press           Pxx            Pyy            Pzz            Pxy            Pxz            Pyz             Lx             Ly             Lz           Volume    
         0   0             -322.53849      5853.9553      5853.9553      5853.9553      5853.9553     -3.7724158e-11  3.2153346e-11 -2.3463443e-12  8.08           12.12          16.16          1582.5423    
         1   0             -322.54019      5617.5567      5617.5567      5617.5567      5617.5567     -3.4243542e-11 -4.1069777e-11 -3.7024601e-11  8.080808       12.121212      16.161616      1583.0171    
         2   0             -322.54182      5381.1323      5381.1323      5381.1323      5381.1323     -4.0481757e-11  3.1094988e-11 -2.7268669e-11  8.081616       12.122424      16.163232      1583.4921    
         3   0             -322.54338      5144.6807      5144.6807      5144.6807      5144.6807     -2.8018507e-11 -1.3517947e-11  1.2619558e-11  8.082424       12.123636      16.164848      1583.9671    
         4   0             -322.54487      4908.1615      4908.1615      4908.1615      4908.1615      6.6657316e-12  3.6051083e-11  5.6693802e-12  8.083232       12.124848      16.166464      1584.4421    
         5   0             -322.54629      4671.587       4671.587       4671.587       4671.587       1.6596203e-11 -1.0234091e-11 -2.784739e-11   8.08404        12.12606       16.16808       1584.9173    
         6   0             -322.54764      4434.9279      4434.9279      4434.9279      4434.9279     -2.1429751e-11  9.6700348e-12 -1.9634588e-11  8.084848       12.127272      16.169696      1585.3926    
         7   0             -322.54892      4198.254       4198.254       4198.254       4198.254       1.2618452e-12 -1.2415155e-11 -2.847564e-11   8.085656       12.128484      16.171312      1585.868     
         8   0             -322.55013      3961.7998      3961.7998      3961.7998      3961.7998      1.1367219e-11  2.5131225e-11 -9.5170675e-12  8.086464       12.129696      16.172928      1586.3435    
         9   0             -322.55127      3725.5885      3725.5885      3725.5885      3725.5885      2.410081e-12  -1.6891585e-11 -9.8645177e-12  8.087272       12.130908      16.174544      1586.819     
        10   0             -322.55234      3489.6055      3489.6055      3489.6055      3489.6055     -1.4750319e-11  2.2580735e-11 -3.0957459e-12  8.08808        12.13212       16.17616       1587.2947    
        11   0             -322.55334      3253.6093      3253.6093      3253.6093      3253.6093      2.4646517e-12 -3.2362557e-11 -1.7560643e-11  8.088888       12.133332      16.177776      1587.7705    
        12   0             -322.55428      3017.3986      3017.3986      3017.3986      3017.3986      1.619743e-11   3.0252935e-11  3.0196936e-11  8.089696       12.134544      16.179392      1588.2463    
        13   0             -322.55514      2780.9526      2780.9526      2780.9526      2780.9526      2.4491798e-12  4.6674369e-12  1.8879677e-11  8.090504       12.135756      16.181008      1588.7223    
        14   0             -322.55593      2544.2981      2544.2981      2544.2981      2544.2981     -1.523633e-11  -3.4565064e-11 -1.0577287e-11  8.091312       12.136968      16.182624      1589.1983    
        15   0             -322.55665      2307.6749      2307.6749      2307.6749      2307.6749      1.7651506e-11  1.8805427e-11 -5.8605237e-12  8.09212        12.13818       16.18424       1589.6745    
        16   0             -322.5573       2071.1579      2071.1579      2071.1579      2071.1579      2.4357935e-11 -3.4705163e-11 -2.6035864e-11  8.092928       12.139392      16.185856      1590.1507    
        17   0             -322.55788      1834.7355      1834.7355      1834.7355      1834.7355     -2.8348507e-11  4.2005554e-12  5.2587319e-11  8.093736       12.140604      16.187472      1590.627     
        18   0             -322.55839      1598.3877      1598.3877      1598.3877      1598.3877      5.8412859e-12  9.8519296e-12 -2.089168e-11   8.094544       12.141816      16.189088      1591.1035    
        19   0             -322.55883      1362.0625      1362.0625      1362.0625      1362.0625     -1.5646606e-12 -1.5150665e-11 -2.58169e-11    8.095352       12.143028      16.190704      1591.58      
        20   0             -322.5592       1125.7462      1125.7462      1125.7462      1125.7462     -8.9382413e-13 -1.3512107e-11 -1.2373878e-11  8.09616        12.14424       16.19232       1592.0566    
        21   0             -322.5595       889.44216      889.44216      889.44216      889.44216     -6.7016743e-13 -8.3561501e-12 -4.691172e-12   8.096968       12.145452      16.193936      1592.5333    
        22   0             -322.55973      653.14788      653.14788      653.14788      653.14788     -2.6798673e-11  5.0449899e-11 -2.0992294e-11  8.097776       12.146664      16.195552      1593.0101    
        23   0             -322.55989      416.85116      416.85116      416.85116      416.85116      7.5348712e-13  4.2697603e-11  1.6395322e-11  8.098584       12.147876      16.197168      1593.487     
        24   0             -322.55998      180.54532      180.54532      180.54532      180.54532      6.8491012e-12  1.6453187e-11 -6.3985391e-11  8.099392       12.149088      16.198784      1593.964     
        25   0             -322.56         0.0073580099   0.0073580099   0.00735801     0.0073580098  -1.2495706e-11  4.7974586e-12 -3.5464934e-11  8.1000093      12.150014      16.200019      1594.3285    
        26   0             -322.56         9.278171e-09   9.257017e-09   9.29145e-09    9.2860459e-09  1.3527717e-11  1.1045312e-11 -1.5312818e-11  8.1000093      12.150014      16.200019      1594.3285    
Loop time of 0.0053 on 1 procs for 26 steps with 96 atoms

294.8% CPU use with 1 MPI tasks x 1 OpenMP threads

Minimization stats:
  Stopping criterion = force tolerance
  Energy initial, next-to-last, final = 
     -322.538487346493  -322.559998865654  -322.559998865637
  Force two-norm initial, final = 10.015094 1.5957412e-11
  Force max component initial, final = 5.782217 9.2230973e-12
  Final line search alpha, max atom move = 1 9.2230973e-12
  Iterations, force evaluations = 26 28

MPI task timing breakdown:
Section |  min time  |  avg time  |  max time  |%varavg| %total
---------------------------------------------------------------
Pair    | 0.003965   | 0.003965   | 0.003965   |   0.0 | 74.81
Neigh   | 0          | 0          | 0          |   0.0 |  0.00
Comm    | 7.8e-05    | 7.8e-05    | 7.8e-05    |   0.0 |  1.47
Output  | 0.000235   | 0.000235   | 0.000235   |   0.0 |  4.43
Modify  | 0          | 0          | 0          |   0.0 |  0.00
Other   |            | 0.001022   |            |       | 19.28

Nlocal:             96 ave          96 max          96 min
Histogram: 1 0 0 0 0 0 0 0 0 0
Nghost:            976 ave         976 max         976 min
Histogram: 1 0 0 0 0 0 0 0 0 0
Neighs:           4128 ave        4128 max        4128 min
Histogram: 1 0 0 0 0 0 0 0 0 0

Total # of neighbors = 4128
Ave neighs/atom = 43
Neighbor list builds = 0
Dangerous builds = 0
Displacing atoms ...
System init for write_restart ...
OMP_NUM_THREADS environment is not set. Defaulting to 1 thread. (src/comm.cpp:98)
  using 1 OpenMP thread(s) per MPI task
Loaded 1 plugins from F:\Lammps\LAMMPS 64-bit 2Aug2023\plugins

The 'box' command has been removed and will be ignored

Reading restart file ...
  restart file = 2 Aug 2023, LAMMPS = 2 Aug 2023
  restoring atom style atomic from restart
  triclinic box = (-0.010004662 -0.015006993 -0.020009324) to (8.0900047 12.135007 16.180009) with tilt (0 0 0)
  1 by 1 by 1 MPI processor grid
  pair style eam/alloy stores no restart info
  96 atoms
  read_restart CPU = 0.000 seconds
Changing box ...
  triclinic box = (-0.010004662 -0.015006993 -0.020009324) to (8.0891947 12.135007 16.180009) with tilt (0 0 0)
  triclinic box = (-0.010004662 -0.015006993 -0.020009324) to (8.0891947 12.135007 16.180009) with tilt (0 0 0)
  triclinic box = (-0.010004662 -0.015006993 -0.020009324) to (8.0891947 12.135007 16.180009) with tilt (0 0 0)
Neighbor list info ...
  update: every = 1 steps, delay = 0 steps, check = yes
  max neighbors/atom: 2000, page size: 100000
  master list distance cutoff = 7.28721
  ghost atom cutoff = 7.28721
  1 neighbor lists, perpetual/occasional/extra = 1 0 0
  (1) pair eam/alloy, perpetual
      attributes: half, newton on
      pair build: half/nsq/newton
      stencil: none
      bin: none
Setting up cg style minimization ...
  Unit style    : metal
  Current step  : 26
Per MPI rank memory allocation (min/avg/max) = 4.449 | 4.449 | 4.449 Mbytes
   Step          Temp          PotEng         Press           Pxx            Pyy            Pzz            Pxy            Pxz            Pyz             Lx             Ly             Lz           Volume    
        26   0             -322.55999      78.971122      113.80898      61.552188      61.552195      1.6299239e-06 -3.8509045e-07  1.7626284e-06  8.0991993      12.150014      16.200019      1594.1691    
        27   0             -322.55999      78.971103      113.80897      61.552172      61.552172     -3.1464293e-07  6.8527041e-08 -2.6152174e-08  8.0991993      12.150014      16.200019      1594.1691    
        28   0             -322.55999      78.9711        113.80896      61.552169      61.552169      6.4661724e-08 -8.925783e-08   8.4659585e-08  8.0991993      12.150014      16.200019      1594.1691    
        29   0             -322.55999      78.971099      113.80896      61.552168      61.552168     -1.0695964e-08 -1.2033093e-08 -2.6662368e-08  8.0991993      12.150014      16.200019      1594.1691    
        30   0             -322.55999      78.971099      113.80896      61.552168      61.552168     -1.0366563e-08 -7.6140563e-09 -5.1046814e-09  8.0991993      12.150014      16.200019      1594.1691    
        31   0             -322.55999      78.971099      113.80896      61.552168      61.552168     -8.7844777e-09 -9.2378783e-10 -2.87854e-09    8.0991993      12.150014      16.200019      1594.1691    
        32   0             -322.55999      78.971099      113.80896      61.552168      61.552168     -4.6118021e-09 -5.7827953e-10 -2.1201582e-10  8.0991993      12.150014      16.200019      1594.1691    
        33   0             -322.55999      78.971099      113.80896      61.552168      61.552168     -2.6790558e-09 -1.4686251e-10  1.859779e-10   8.0991993      12.150014      16.200019      1594.1691    
        34   0             -322.55999      78.971099      113.80896      61.552168      61.552168     -1.4401416e-09 -7.6827595e-11  1.3131301e-10  8.0991993      12.150014      16.200019      1594.1691    
        35   0             -322.55999      78.971099      113.80896      61.552168      61.552168     -7.3317449e-10 -6.1890236e-11  8.853737e-11   8.0991993      12.150014      16.200019      1594.1691    
        36   0             -322.55999      78.971099      113.80896      61.552168      61.552168     -3.6331133e-10 -2.4136709e-11  1.9107012e-11  8.0991993      12.150014      16.200019      1594.1691    
        37   0             -322.55999      78.971099      113.80896      61.552168      61.552168     -1.0664604e-10 -2.6116305e-11 -4.1634762e-11  8.0991993      12.150014      16.200019      1594.1691    
        38   0             -322.55999      78.971099      113.80896      61.552168      61.552168     -2.608879e-11  -2.5479746e-12 -3.9113044e-11  8.0991993      12.150014      16.200019      1594.1691    
        39   0             -322.55999      78.971099      113.80896      61.552168      61.552168     -1.442171e-11   6.8047352e-12 -1.4299099e-11  8.0991993      12.150014      16.200019      1594.1691    
        40   0             -322.55999      78.971099      113.80896      61.552168      61.552168      1.5293428e-11 -1.2855832e-11 -1.7439117e-12  8.0991993      12.150014      16.200019      1594.1691    
        41   0             -322.55999      78.971099      113.80896      61.552168      61.552168     -4.4318166e-12 -2.7858628e-12  1.3185999e-12  8.0991993      12.150014      16.200019      1594.1691    
        42   0             -322.55999      78.971099      113.80896      61.552168      61.552168      9.7109435e-12 -4.0256505e-11 -1.9467134e-14  8.0991993      12.150014      16.200019      1594.1691    
        43   0             -322.55999      78.971099      113.80896      61.552168      61.552168     -7.0399982e-12 -7.6354121e-12  1.070754e-12   8.0991993      12.150014      16.200019      1594.1691    
        44   0             -322.55999      78.971099      113.80896      61.552168      61.552168      1.4752963e-11  4.7519272e-12  4.4552627e-11  8.0991993      12.150014      16.200019      1594.1691    
        45   0             -322.55999      78.971099      113.80896      61.552168      61.552168     -5.0350458e-12 -8.6983229e-12 -2.0760243e-11  8.0991993      12.150014      16.200019      1594.1691    
        46   0             -322.55999      78.971099      113.80896      61.552168      61.552168     -7.5316474e-13  9.5726642e-12 -9.1935314e-12  8.0991993      12.150014      16.200019      1594.1691    
        47   0             -322.55999      78.971099      113.80896      61.552168      61.552168     -5.1291914e-12  3.8106919e-12 -2.6800962e-11  8.0991993      12.150014      16.200019      1594.1691    
        48   0             -322.55999      78.971099      113.80896      61.552168      61.552168     -1.610587e-11  -9.9443536e-13 -2.5023227e-12  8.0991993      12.150014      16.200019      1594.1691    
        49   0             -322.55999      78.971099      113.80896      61.552168      61.552168      7.9396116e-12 -4.7919969e-12 -1.215403e-11   8.0991993      12.150014      16.200019      1594.1691    
        50   0             -322.55999      78.971099      113.80896      61.552168      61.552168     -2.2141649e-12 -1.1788338e-11 -1.5538332e-11  8.0991993      12.150014      16.200019      1594.1691    
        51   0             -322.55999      78.971099      113.80896      61.552168      61.552168      5.0978095e-12  2.0363325e-12 -9.9718187e-12  8.0991993      12.150014      16.200019      1594.1691    
Loop time of 0.007487 on 1 procs for 25 steps with 96 atoms

208.7% CPU use with 1 MPI tasks x 1 OpenMP threads

Minimization stats:
  Stopping criterion = force tolerance
  Energy initial, next-to-last, final = 
     -322.559993182848  -322.559993203287  -322.559993203289
  Force two-norm initial, final = 0.00049231981 7.5304413e-11
  Force max component initial, final = 7.4984359e-05 1.5116259e-11
  Final line search alpha, max atom move = 1 1.5116259e-11
  Iterations, force evaluations = 25 50

MPI task timing breakdown:
Section |  min time  |  avg time  |  max time  |%varavg| %total
---------------------------------------------------------------
Pair    | 0.007      | 0.007      | 0.007      |   0.0 | 93.50
Neigh   | 0          | 0          | 0          |   0.0 |  0.00
Comm    | 0.000134   | 0.000134   | 0.000134   |   0.0 |  1.79
Output  | 0.000238   | 0.000238   | 0.000238   |   0.0 |  3.18
Modify  | 0          | 0          | 0          |   0.0 |  0.00
Other   |            | 0.000115   |            |       |  1.54

Nlocal:             96 ave          96 max          96 min
Histogram: 1 0 0 0 0 0 0 0 0 0
Nghost:            976 ave         976 max         976 min
Histogram: 1 0 0 0 0 0 0 0 0 0
Neighs:           4128 ave        4128 max        4128 min
Histogram: 1 0 0 0 0 0 0 0 0 0

Total # of neighbors = 4128
Ave neighs/atom = 43
Neighbor list builds = 0
Dangerous builds = 0
OMP_NUM_THREADS environment is not set. Defaulting to 1 thread. (src/comm.cpp:98)
  using 1 OpenMP thread(s) per MPI task
Loaded 1 plugins from F:\Lammps\LAMMPS 64-bit 2Aug2023\plugins

The 'box' command has been removed and will be ignored

Reading restart file ...
  restart file = 2 Aug 2023, LAMMPS = 2 Aug 2023
  restoring atom style atomic from restart
  triclinic box = (-0.010004662 -0.015006993 -0.020009324) to (8.0900047 12.135007 16.180009) with tilt (0 0 0)
  1 by 1 by 1 MPI processor grid
  pair style eam/alloy stores no restart info
  96 atoms
  read_restart CPU = 0.000 seconds
Changing box ...
  triclinic box = (-0.010004662 -0.015006993 -0.020009324) to (8.0908147 12.135007 16.180009) with tilt (0 0 0)
  triclinic box = (-0.010004662 -0.015006993 -0.020009324) to (8.0908147 12.135007 16.180009) with tilt (0 0 0)
  triclinic box = (-0.010004662 -0.015006993 -0.020009324) to (8.0908147 12.135007 16.180009) with tilt (0 0 0)
Neighbor list info ...
  update: every = 1 steps, delay = 0 steps, check = yes
  max neighbors/atom: 2000, page size: 100000
  master list distance cutoff = 7.28721
  ghost atom cutoff = 7.28721
  1 neighbor lists, perpetual/occasional/extra = 1 0 0
  (1) pair eam/alloy, perpetual
      attributes: half, newton on
      pair build: half/nsq/newton
      stencil: none
      bin: none
Setting up cg style minimization ...
  Unit style    : metal
  Current step  : 26
Per MPI rank memory allocation (min/avg/max) = 4.449 | 4.449 | 4.449 Mbytes
   Step          Temp          PotEng         Press           Pxx            Pyy            Pzz            Pxy            Pxz            Pyz             Lx             Ly             Lz           Volume    
        26   0             -322.55999     -78.956864     -113.77366     -61.548471     -61.548465      1.6343767e-06 -3.9535954e-07  1.7666869e-06  8.1008193      12.150014      16.200019      1594.4879    
        27   0             -322.55999     -78.956884     -113.77367     -61.548489     -61.548489     -3.1047598e-07  6.6981324e-08 -2.6285979e-08  8.1008193      12.150014      16.200019      1594.4879    
        28   0             -322.55999     -78.956887     -113.77368     -61.548492     -61.548492      6.5889297e-08 -8.8398146e-08  8.4985232e-08  8.1008193      12.150014      16.200019      1594.4879    
        29   0             -322.55999     -78.956888     -113.77368     -61.548493     -61.548493     -1.0346309e-08 -1.1429508e-08 -2.6537255e-08  8.1008193      12.150014      16.200019      1594.4879    
        30   0             -322.55999     -78.956888     -113.77368     -61.548493     -61.548493     -1.0158969e-08 -7.4090384e-09 -5.1202993e-09  8.1008193      12.150014      16.200019      1594.4879    
        31   0             -322.55999     -78.956888     -113.77368     -61.548493     -61.548493     -8.6652856e-09 -8.3261009e-10 -2.8619508e-09  8.1008193      12.150014      16.200019      1594.4879    
        32   0             -322.55999     -78.956888     -113.77368     -61.548493     -61.548493     -4.5764991e-09 -6.0389527e-10 -2.0224978e-10  8.1008193      12.150014      16.200019      1594.4879    
        33   0             -322.55999     -78.956888     -113.77368     -61.548493     -61.548493     -2.6572857e-09 -1.7581228e-10  1.9383273e-10  8.1008193      12.150014      16.200019      1594.4879    
        34   0             -322.55999     -78.956888     -113.77368     -61.548493     -61.548493     -1.4188564e-09 -7.3412732e-11  1.1639028e-10  8.1008193      12.150014      16.200019      1594.4879    
        35   0             -322.55999     -78.956888     -113.77368     -61.548493     -61.548493     -7.3330677e-10 -8.2768954e-11  6.3669899e-11  8.1008193      12.150014      16.200019      1594.4879    
        36   0             -322.55999     -78.956888     -113.77368     -61.548493     -61.548493     -3.6018827e-10 -2.1854419e-11 -1.1011299e-11  8.1008193      12.150014      16.200019      1594.4879    
        37   0             -322.55999     -78.956888     -113.77368     -61.548493     -61.548493     -1.0063894e-10 -4.6925149e-12 -2.4835123e-11  8.1008193      12.150014      16.200019      1594.4879    
        38   0             -322.55999     -78.956888     -113.77368     -61.548493     -61.548493     -1.8671961e-11 -1.8946688e-11 -8.5367535e-12  8.1008193      12.150014      16.200019      1594.4879    
        39   0             -322.55999     -78.956888     -113.77368     -61.548493     -61.548493     -2.4438097e-12  2.1417893e-11 -6.3915998e-12  8.1008193      12.150014      16.200019      1594.4879    
        40   0             -322.55999     -78.956888     -113.77368     -61.548493     -61.548493     -6.7283206e-12  2.4773092e-11 -2.7964969e-13  8.1008193      12.150014      16.200019      1594.4879    
        41   0             -322.55999     -78.956888     -113.77368     -61.548493     -61.548493     -9.4754277e-12  6.7918668e-12  1.3273936e-11  8.1008193      12.150014      16.200019      1594.4879    
        42   0             -322.55999     -78.956888     -113.77368     -61.548493     -61.548493     -9.8379901e-12  2.8963137e-12 -4.9650127e-12  8.1008193      12.150014      16.200019      1594.4879    
        43   0             -322.55999     -78.956888     -113.77368     -61.548493     -61.548493     -2.0390646e-11  3.816263e-11   4.7046298e-12  8.1008193      12.150014      16.200019      1594.4879    
        44   0             -322.55999     -78.956888     -113.77368     -61.548493     -61.548493      3.9602965e-12  2.4277304e-11  3.9745197e-12  8.1008193      12.150014      16.200019      1594.4879    
        45   0             -322.55999     -78.956888     -113.77368     -61.548493     -61.548493      5.0270665e-12  6.3854431e-12  1.5205955e-12  8.1008193      12.150014      16.200019      1594.4879    
        46   0             -322.55999     -78.956888     -113.77368     -61.548493     -61.548493     -1.3805259e-12  9.2611824e-12  1.2747162e-11  8.1008193      12.150014      16.200019      1594.4879    
        47   0             -322.55999     -78.956888     -113.77368     -61.548493     -61.548493     -2.8203168e-12 -8.7323179e-12  2.1492056e-11  8.1008193      12.150014      16.200019      1594.4879    
        48   0             -322.55999     -78.956888     -113.77368     -61.548493     -61.548493     -2.1621267e-11 -1.3036419e-11 -1.3058364e-11  8.1008193      12.150014      16.200019      1594.4879    
        49   0             -322.55999     -78.956888     -113.77368     -61.548493     -61.548493     -4.0718541e-12  2.1281141e-11 -9.8831659e-12  8.1008193      12.150014      16.200019      1594.4879    
        50   0             -322.55999     -78.956888     -113.77368     -61.548493     -61.548493      1.8950855e-11 -5.0978937e-13 -3.7726054e-11  8.1008193      12.150014      16.200019      1594.4879    
        51   0             -322.55999     -78.956888     -113.77368     -61.548493     -61.548493     -1.5112575e-11 -8.4052223e-12 -1.2107764e-11  8.1008193      12.150014      16.200019      1594.4879    
Loop time of 0.007819 on 1 procs for 25 steps with 96 atoms

0.0% CPU use with 1 MPI tasks x 1 OpenMP threads

Minimization stats:
  Stopping criterion = force tolerance
  Energy initial, next-to-last, final = 
     -322.559993184008  -322.559993204444  -322.559993204444
  Force two-norm initial, final = 0.00049218938 7.4880489e-11
  Force max component initial, final = 7.4959183e-05 1.2792153e-11
  Final line search alpha, max atom move = 1 1.2792153e-11
  Iterations, force evaluations = 25 50

MPI task timing breakdown:
Section |  min time  |  avg time  |  max time  |%varavg| %total
---------------------------------------------------------------
Pair    | 0.007336   | 0.007336   | 0.007336   |   0.0 | 93.82
Neigh   | 0          | 0          | 0          |   0.0 |  0.00
Comm    | 0.000137   | 0.000137   | 0.000137   |   0.0 |  1.75
Output  | 0.000233   | 0.000233   | 0.000233   |   0.0 |  2.98
Modify  | 0          | 0          | 0          |   0.0 |  0.00
Other   |            | 0.000113   |            |       |  1.45

Nlocal:             96 ave          96 max          96 min
Histogram: 1 0 0 0 0 0 0 0 0 0
Nghost:            976 ave         976 max         976 min
Histogram: 1 0 0 0 0 0 0 0 0 0
Neighs:           4128 ave        4128 max        4128 min
Histogram: 1 0 0 0 0 0 0 0 0 0

Total # of neighbors = 4128
Ave neighs/atom = 43
Neighbor list builds = 0
Dangerous builds = 0
OMP_NUM_THREADS environment is not set. Defaulting to 1 thread. (src/comm.cpp:98)
  using 1 OpenMP thread(s) per MPI task
Loaded 1 plugins from F:\Lammps\LAMMPS 64-bit 2Aug2023\plugins

The 'box' command has been removed and will be ignored

Reading restart file ...
  restart file = 2 Aug 2023, LAMMPS = 2 Aug 2023
  restoring atom style atomic from restart
  triclinic box = (-0.010004662 -0.015006993 -0.020009324) to (8.0900047 12.135007 16.180009) with tilt (0 0 0)
  1 by 1 by 1 MPI processor grid
  pair style eam/alloy stores no restart info
  96 atoms
  read_restart CPU = 0.000 seconds
Changing box ...
  triclinic box = (-0.010004662 -0.015006993 -0.020009324) to (8.0900047 12.133792 16.180009) with tilt (0 0 0)
  triclinic box = (-0.010004662 -0.015006993 -0.020009324) to (8.0900047 12.133792 16.180009) with tilt (0 0 0)
Neighbor list info ...
  update: every = 1 steps, delay = 0 steps, check = yes
  max neighbors/atom: 2000, page size: 100000
  master list distance cutoff = 7.28721
  ghost atom cutoff = 7.28721
  1 neighbor lists, perpetual/occasional/extra = 1 0 0
  (1) pair eam/alloy, perpetual
      attributes: half, newton on
      pair build: half/nsq/newton
      stencil: none
      bin: none
Setting up cg style minimization ...
  Unit style    : metal
  Current step  : 26
Per MPI rank memory allocation (min/avg/max) = 4.449 | 4.449 | 4.449 Mbytes
   Step          Temp          PotEng         Press           Pxx            Pyy            Pzz            Pxy            Pxz            Pyz             Lx             Ly             Lz           Volume    
        26   0             -322.55999      78.971122      61.552188      113.80898      61.552195      1.6400433e-06 -4.0417914e-07  1.7755735e-06  8.1000093      12.148799      16.200019      1594.1691    
        27   0             -322.55999      78.971103      61.552172      113.80897      61.552172     -3.1234058e-07  6.3915237e-08 -2.574361e-08   8.1000093      12.148799      16.200019      1594.1691    
        28   0             -322.55999      78.9711        61.552169      113.80896      61.552169      6.622784e-08  -8.9816076e-08  8.4668471e-08  8.1000093      12.148799      16.200019      1594.1691    
        29   0             -322.55999      78.971099      61.552168      113.80896      61.552168     -1.0426523e-08 -1.1927246e-08 -2.6833331e-08  8.1000093      12.148799      16.200019      1594.1691    
        30   0             -322.55999      78.971099      61.552168      113.80896      61.552168     -1.0280458e-08 -7.6125099e-09 -5.2626548e-09  8.1000093      12.148799      16.200019      1594.1691    
        31   0             -322.55999      78.971099      61.552168      113.80896      61.552168     -8.7631764e-09 -9.2071454e-10 -2.927752e-09   8.1000093      12.148799      16.200019      1594.1691    
        32   0             -322.55999      78.971099      61.552168      113.80896      61.552168     -4.6231065e-09 -5.9045232e-10 -1.9811629e-10  8.1000093      12.148799      16.200019      1594.1691    
        33   0             -322.55999      78.971099      61.552168      113.80896      61.552168     -2.7132376e-09 -1.2705467e-10  1.7291202e-10  8.1000093      12.148799      16.200019      1594.1691    
        34   0             -322.55999      78.971099      61.552168      113.80896      61.552168     -1.436585e-09  -7.4128567e-11  1.0587742e-10  8.1000093      12.148799      16.200019      1594.1691    
        35   0             -322.55999      78.971099      61.552168      113.80896      61.552168     -7.4817851e-10 -4.9024269e-11  1.2712438e-11  8.1000093      12.148799      16.200019      1594.1691    
        36   0             -322.55999      78.971099      61.552168      113.80896      61.552168     -3.5935721e-10 -1.1568464e-11 -1.3701985e-11  8.1000093      12.148799      16.200019      1594.1691    
        37   0             -322.55999      78.971099      61.552168      113.80896      61.552168     -1.0632176e-10  2.011959e-11  -1.6625374e-11  8.1000093      12.148799      16.200019      1594.1691    
        38   0             -322.55999      78.971099      61.552168      113.80896      61.552168     -2.2703035e-11 -8.4091618e-12 -4.6874891e-12  8.1000093      12.148799      16.200019      1594.1691    
        39   0             -322.55999      78.971099      61.552168      113.80896      61.552168      1.7225157e-12  1.8700304e-11 -2.3319557e-11  8.1000093      12.148799      16.200019      1594.1691    
        40   0             -322.55999      78.971099      61.552168      113.80896      61.552168     -9.2332418e-12 -1.0500591e-11  6.1320745e-12  8.1000093      12.148799      16.200019      1594.1691    
        41   0             -322.55999      78.971099      61.552168      113.80896      61.552168     -5.8126186e-12 -1.4143926e-11 -5.5005038e-12  8.1000093      12.148799      16.200019      1594.1691    
        42   0             -322.55999      78.971099      61.552168      113.80896      61.552168     -6.8726283e-12 -8.7280093e-12 -6.3676291e-12  8.1000093      12.148799      16.200019      1594.1691    
        43   0             -322.55999      78.971099      61.552168      113.80896      61.552168     -1.0122395e-11 -7.1439994e-12 -3.1582589e-12  8.1000093      12.148799      16.200019      1594.1691    
        44   0             -322.55999      78.971099      61.552168      113.80896      61.552168      9.1356094e-12  1.014753e-11  -3.0921986e-11  8.1000093      12.148799      16.200019      1594.1691    
        45   0             -322.55999      78.971099      61.552168      113.80896      61.552168      1.8490892e-11  1.2706813e-12  1.6894074e-11  8.1000093      12.148799      16.200019      1594.1691    
        46   0             -322.55999      78.971099      61.552168      113.80896      61.552168     -3.8529956e-12 -1.1449505e-11 -1.1943384e-11  8.1000093      12.148799      16.200019      1594.1691    
        47   0             -322.55999      78.971099      61.552168      113.80896      61.552168      2.6883797e-12 -7.7875616e-12 -1.1400491e-11  8.1000093      12.148799      16.200019      1594.1691    
        48   0             -322.55999      78.971099      61.552168      113.80896      61.552168     -1.1959977e-12 -2.2659561e-11 -6.8905615e-12  8.1000093      12.148799      16.200019      1594.1691    
        49   0             -322.55999      78.971099      61.552168      113.80896      61.552168      1.3208278e-11 -3.5451326e-11 -1.2915389e-11  8.1000093      12.148799      16.200019      1594.1691    
        50   0             -322.55999      78.971099      61.552168      113.80896      61.552168      1.3047882e-11  6.7725156e-12 -1.2229648e-12  8.1000093      12.148799      16.200019      1594.1691    
        51   0             -322.55999      78.971099      61.552168      113.80896      61.552168     -5.2512319e-12 -4.2999139e-12 -8.5203566e-12  8.1000093      12.148799      16.200019      1594.1691    
Loop time of 0.007613 on 1 procs for 25 steps with 96 atoms

0.0% CPU use with 1 MPI tasks x 1 OpenMP threads

Minimization stats:
  Stopping criterion = force tolerance
  Energy initial, next-to-last, final = 
     -322.559993182848  -322.559993203288  -322.559993203289
  Force two-norm initial, final = 0.00049232331 8.0555119e-11
  Force max component initial, final = 7.4989361e-05 1.2400692e-11
  Final line search alpha, max atom move = 1 1.2400692e-11
  Iterations, force evaluations = 25 50

MPI task timing breakdown:
Section |  min time  |  avg time  |  max time  |%varavg| %total
---------------------------------------------------------------
Pair    | 0.007101   | 0.007101   | 0.007101   |   0.0 | 93.27
Neigh   | 0          | 0          | 0          |   0.0 |  0.00
Comm    | 0.000122   | 0.000122   | 0.000122   |   0.0 |  1.60
Output  | 0.000243   | 0.000243   | 0.000243   |   0.0 |  3.19
Modify  | 0          | 0          | 0          |   0.0 |  0.00
Other   |            | 0.000147   |            |       |  1.93

Nlocal:             96 ave          96 max          96 min
Histogram: 1 0 0 0 0 0 0 0 0 0
Nghost:            976 ave         976 max         976 min
Histogram: 1 0 0 0 0 0 0 0 0 0
Neighs:           4128 ave        4128 max        4128 min
Histogram: 1 0 0 0 0 0 0 0 0 0

Total # of neighbors = 4128
Ave neighs/atom = 43
Neighbor list builds = 0
Dangerous builds = 0
OMP_NUM_THREADS environment is not set. Defaulting to 1 thread. (src/comm.cpp:98)
  using 1 OpenMP thread(s) per MPI task
Loaded 1 plugins from F:\Lammps\LAMMPS 64-bit 2Aug2023\plugins

The 'box' command has been removed and will be ignored

Reading restart file ...
  restart file = 2 Aug 2023, LAMMPS = 2 Aug 2023
  restoring atom style atomic from restart
  triclinic box = (-0.010004662 -0.015006993 -0.020009324) to (8.0900047 12.135007 16.180009) with tilt (0 0 0)
  1 by 1 by 1 MPI processor grid
  pair style eam/alloy stores no restart info
  96 atoms
  read_restart CPU = 0.000 seconds
Changing box ...
  triclinic box = (-0.010004662 -0.015006993 -0.020009324) to (8.0900047 12.136222 16.180009) with tilt (0 0 0)
  triclinic box = (-0.010004662 -0.015006993 -0.020009324) to (8.0900047 12.136222 16.180009) with tilt (0 0 0)
Neighbor list info ...
  update: every = 1 steps, delay = 0 steps, check = yes
  max neighbors/atom: 2000, page size: 100000
  master list distance cutoff = 7.28721
  ghost atom cutoff = 7.28721
  1 neighbor lists, perpetual/occasional/extra = 1 0 0
  (1) pair eam/alloy, perpetual
      attributes: half, newton on
      pair build: half/nsq/newton
      stencil: none
      bin: none
Setting up cg style minimization ...
  Unit style    : metal
  Current step  : 26
Per MPI rank memory allocation (min/avg/max) = 4.449 | 4.449 | 4.449 Mbytes
   Step          Temp          PotEng         Press           Pxx            Pyy            Pzz            Pxy            Pxz            Pyz             Lx             Ly             Lz           Volume    
        26   0             -322.55999     -78.956864     -61.548471     -113.77366     -61.548465      1.6347686e-06 -4.0042878e-07  1.7739149e-06  8.1000093      12.151229      16.200019      1594.4879    
        27   0             -322.55999     -78.956884     -61.548489     -113.77367     -61.548489     -3.0999074e-07  6.4156674e-08 -2.524879e-08   8.1000093      12.151229      16.200019      1594.4879    
        28   0             -322.55999     -78.956887     -61.548493     -113.77368     -61.548492      6.5932466e-08 -8.9584763e-08  8.480689e-08   8.1000093      12.151229      16.200019      1594.4879    
        29   0             -322.55999     -78.956888     -61.548493     -113.77368     -61.548493     -1.0367073e-08 -1.183803e-08  -2.6782509e-08  8.1000093      12.151229      16.200019      1594.4879    
        30   0             -322.55999     -78.956888     -61.548493     -113.77368     -61.548493     -1.014736e-08  -7.5266087e-09 -5.1517952e-09  8.1000093      12.151229      16.200019      1594.4879    
        31   0             -322.55999     -78.956888     -61.548493     -113.77368     -61.548493     -8.6639539e-09 -9.282035e-10  -2.8763026e-09  8.1000093      12.151229      16.200019      1594.4879    
        32   0             -322.55999     -78.956888     -61.548493     -113.77368     -61.548493     -4.5528593e-09 -5.9404153e-10 -2.5289128e-10  8.1000093      12.151229      16.200019      1594.4879    
        33   0             -322.55999     -78.956888     -61.548493     -113.77368     -61.548493     -2.6724367e-09 -1.381304e-10   1.566687e-10   8.1000093      12.151229      16.200019      1594.4879    
        34   0             -322.55999     -78.956888     -61.548493     -113.77368     -61.548493     -1.4164544e-09 -7.372052e-11   1.4091579e-10  8.1000093      12.151229      16.200019      1594.4879    
        35   0             -322.55999     -78.956888     -61.548493     -113.77368     -61.548493     -7.3769238e-10 -4.404942e-11   3.6993302e-11  8.1000093      12.151229      16.200019      1594.4879    
        36   0             -322.55999     -78.956888     -61.548493     -113.77368     -61.548493     -3.5858463e-10 -3.7898154e-11  1.7444123e-11  8.1000093      12.151229      16.200019      1594.4879    
        37   0             -322.55999     -78.956888     -61.548493     -113.77368     -61.548493     -1.0775423e-10  3.4210375e-12 -1.684176e-11   8.1000093      12.151229      16.200019      1594.4879    
        38   0             -322.55999     -78.956888     -61.548493     -113.77368     -61.548493     -1.2714086e-11  5.0512016e-12 -1.3542934e-11  8.1000093      12.151229      16.200019      1594.4879    
        39   0             -322.55999     -78.956888     -61.548493     -113.77368     -61.548493     -2.3130781e-11 -6.6990912e-12  8.4620144e-12  8.1000093      12.151229      16.200019      1594.4879    
        40   0             -322.55999     -78.956888     -61.548493     -113.77368     -61.548493     -1.1242919e-11 -5.1535166e-12 -1.8157852e-11  8.1000093      12.151229      16.200019      1594.4879    
        41   0             -322.55999     -78.956888     -61.548493     -113.77368     -61.548493      6.4459403e-12  1.3738432e-11  6.8324133e-13  8.1000093      12.151229      16.200019      1594.4879    
        42   0             -322.55999     -78.956888     -61.548493     -113.77368     -61.548493     -5.9265e-12    -3.3138342e-12  1.0346081e-11  8.1000093      12.151229      16.200019      1594.4879    
        43   0             -322.55999     -78.956888     -61.548493     -113.77368     -61.548493     -1.3383432e-11 -8.3366324e-12  3.7904052e-11  8.1000093      12.151229      16.200019      1594.4879    
        44   0             -322.55999     -78.956888     -61.548493     -113.77368     -61.548493      4.5668912e-12 -4.0971714e-11 -2.5180084e-11  8.1000093      12.151229      16.200019      1594.4879    
        45   0             -322.55999     -78.956888     -61.548493     -113.77368     -61.548493     -2.3448023e-11  1.4259936e-11  4.5347456e-11  8.1000093      12.151229      16.200019      1594.4879    
        46   0             -322.55999     -78.956888     -61.548493     -113.77368     -61.548493      1.1591537e-11 -2.555432e-11  -8.1722679e-12  8.1000093      12.151229      16.200019      1594.4879    
        47   0             -322.55999     -78.956888     -61.548493     -113.77368     -61.548493     -1.0775772e-11 -2.4766145e-11  3.4871221e-11  8.1000093      12.151229      16.200019      1594.4879    
        48   0             -322.55999     -78.956888     -61.548493     -113.77368     -61.548493      1.2306203e-11  7.599749e-12  -2.708658e-12   8.1000093      12.151229      16.200019      1594.4879    
        49   0             -322.55999     -78.956888     -61.548493     -113.77368     -61.548493     -1.5415872e-11 -9.4774855e-12  3.1262433e-11  8.1000093      12.151229      16.200019      1594.4879    
        50   0             -322.55999     -78.956888     -61.548493     -113.77368     -61.548493      3.357188e-12   2.5374621e-12  1.8972154e-11  8.1000093      12.151229      16.200019      1594.4879    
        51   0             -322.55999     -78.956888     -61.548493     -113.77368     -61.548493      2.3984894e-12  1.2911452e-12  3.1229023e-11  8.1000093      12.151229      16.200019      1594.4879    
Loop time of 0.007311 on 1 procs for 25 steps with 96 atoms

0.0% CPU use with 1 MPI tasks x 1 OpenMP threads

Minimization stats:
  Stopping criterion = force tolerance
  Energy initial, next-to-last, final = 
     -322.559993184008  -322.559993204443  -322.559993204442
  Force two-norm initial, final = 0.00049218586 8.0281479e-11
  Force max component initial, final = 7.4954154e-05 1.3684064e-11
  Final line search alpha, max atom move = 1 1.3684064e-11
  Iterations, force evaluations = 25 50

MPI task timing breakdown:
Section |  min time  |  avg time  |  max time  |%varavg| %total
---------------------------------------------------------------
Pair    | 0.006844   | 0.006844   | 0.006844   |   0.0 | 93.61
Neigh   | 0          | 0          | 0          |   0.0 |  0.00
Comm    | 0.000135   | 0.000135   | 0.000135   |   0.0 |  1.85
Output  | 0.000218   | 0.000218   | 0.000218   |   0.0 |  2.98
Modify  | 0          | 0          | 0          |   0.0 |  0.00
Other   |            | 0.000114   |            |       |  1.56

Nlocal:             96 ave          96 max          96 min
Histogram: 1 0 0 0 0 0 0 0 0 0
Nghost:            976 ave         976 max         976 min
Histogram: 1 0 0 0 0 0 0 0 0 0
Neighs:           4128 ave        4128 max        4128 min
Histogram: 1 0 0 0 0 0 0 0 0 0

Total # of neighbors = 4128
Ave neighs/atom = 43
Neighbor list builds = 0
Dangerous builds = 0
OMP_NUM_THREADS environment is not set. Defaulting to 1 thread. (src/comm.cpp:98)
  using 1 OpenMP thread(s) per MPI task
Loaded 1 plugins from F:\Lammps\LAMMPS 64-bit 2Aug2023\plugins

The 'box' command has been removed and will be ignored

Reading restart file ...
  restart file = 2 Aug 2023, LAMMPS = 2 Aug 2023
  restoring atom style atomic from restart
  triclinic box = (-0.010004662 -0.015006993 -0.020009324) to (8.0900047 12.135007 16.180009) with tilt (0 0 0)
  1 by 1 by 1 MPI processor grid
  pair style eam/alloy stores no restart info
  96 atoms
  read_restart CPU = 0.000 seconds
Changing box ...
  triclinic box = (-0.010004662 -0.015006993 -0.020009324) to (8.0900047 12.135007 16.178389) with tilt (0 0 0)
Neighbor list info ...
  update: every = 1 steps, delay = 0 steps, check = yes
  max neighbors/atom: 2000, page size: 100000
  master list distance cutoff = 7.28721
  ghost atom cutoff = 7.28721
  1 neighbor lists, perpetual/occasional/extra = 1 0 0
  (1) pair eam/alloy, perpetual
      attributes: half, newton on
      pair build: half/nsq/newton
      stencil: none
      bin: none
Setting up cg style minimization ...
  Unit style    : metal
  Current step  : 26
Per MPI rank memory allocation (min/avg/max) = 4.449 | 4.449 | 4.449 Mbytes
   Step          Temp          PotEng         Press           Pxx            Pyy            Pzz            Pxy            Pxz            Pyz             Lx             Ly             Lz           Volume    
        26   0             -322.55999      78.971122      61.552188      61.552188      113.80899      1.6262092e-06 -3.9289131e-07  1.757945e-06   8.1000093      12.150014      16.198399      1594.1691    
        27   0             -322.55999      78.971103      61.552172      61.552172      113.80897     -3.146783e-07   6.3236844e-08 -2.4189894e-08  8.1000093      12.150014      16.198399      1594.1691    
        28   0             -322.55999      78.9711        61.552169      61.552169      113.80896      6.5105907e-08 -8.9063787e-08  8.5122028e-08  8.1000093      12.150014      16.198399      1594.1691    
        29   0             -322.55999      78.971099      61.552168      61.552168      113.80896     -1.0607311e-08 -1.1442592e-08 -2.6828837e-08  8.1000093      12.150014      16.198399      1594.1691    
        30   0             -322.55999      78.971099      61.552168      61.552168      113.80896     -1.0338441e-08 -7.3803258e-09 -5.1557703e-09  8.1000093      12.150014      16.198399      1594.1691    
        31   0             -322.55999      78.971099      61.552168      61.552168      113.80896     -8.7545464e-09 -8.3751409e-10 -2.9031029e-09  8.1000093      12.150014      16.198399      1594.1691    
        32   0             -322.55999      78.971099      61.552168      61.552168      113.80896     -4.605571e-09  -6.0290588e-10 -1.9585018e-10  8.1000093      12.150014      16.198399      1594.1691    
        33   0             -322.55999      78.971099      61.552168      61.552168      113.80896     -2.7011905e-09 -1.7531444e-10  1.7438294e-10  8.1000093      12.150014      16.198399      1594.1691    
        34   0             -322.55999      78.971099      61.552168      61.552168      113.80896     -1.4436983e-09 -7.4071362e-11  1.1528296e-10  8.1000093      12.150014      16.198399      1594.1691    
        35   0             -322.55999      78.971099      61.552168      61.552168      113.80896     -7.5448278e-10 -6.9642413e-11  2.6728546e-11  8.1000093      12.150014      16.198399      1594.1691    
        36   0             -322.55999      78.971099      61.552168      61.552168      113.80896     -3.6635537e-10 -2.4268404e-11  1.1785374e-11  8.1000093      12.150014      16.198399      1594.1691    
        37   0             -322.55999      78.971099      61.552168      61.552168      113.80896     -1.0097638e-10 -1.3298935e-11 -5.9003553e-12  8.1000093      12.150014      16.198399      1594.1691    
        38   0             -322.55999      78.971099      61.552168      61.552168      113.80896     -1.9798469e-11 -3.5403884e-12 -1.0375771e-11  8.1000093      12.150014      16.198399      1594.1691    
        39   0             -322.55999      78.971099      61.552168      61.552168      113.80896      3.3473988e-13 -1.9620601e-12 -1.3479772e-11  8.1000093      12.150014      16.198399      1594.1691    
        40   0             -322.55999      78.971099      61.552168      61.552168      113.80896     -1.5607247e-11  1.5259264e-11  4.555379e-12   8.1000093      12.150014      16.198399      1594.1691    
        41   0             -322.55999      78.971099      61.552168      61.552168      113.80896     -4.9932033e-12  9.9361579e-12  1.6120306e-11  8.1000093      12.150014      16.198399      1594.1691    
        42   0             -322.55999      78.971099      61.552168      61.552168      113.80896     -1.3330319e-11 -9.0572425e-13  7.6025522e-12  8.1000093      12.150014      16.198399      1594.1691    
        43   0             -322.55999      78.971099      61.552168      61.552168      113.80896      1.0028249e-11  1.1378095e-11  8.2939915e-12  8.1000093      12.150014      16.198399      1594.1691    
        44   0             -322.55999      78.971099      61.552168      61.552168      113.80896      5.2965613e-12 -6.7528733e-12 -4.1535444e-12  8.1000093      12.150014      16.198399      1594.1691    
        45   0             -322.55999      78.971099      61.552168      61.552168      113.80896      1.9191753e-11 -1.2029788e-12 -3.2390246e-11  8.1000093      12.150014      16.198399      1594.1691    
        46   0             -322.55999      78.971099      61.552168      61.552168      113.80896      1.0349041e-11  1.149294e-11  -4.5545224e-11  8.1000093      12.150014      16.198399      1594.1691    
        47   0             -322.55999      78.971099      61.552168      61.552168      113.80896      2.8519141e-11 -3.5083571e-12 -3.0002104e-11  8.1000093      12.150014      16.198399      1594.1691    
        48   0             -322.55999      78.971099      61.552168      61.552168      113.80896      3.9471411e-12 -5.0163408e-12  3.6569101e-13  8.1000093      12.150014      16.198399      1594.1691    
        49   0             -322.55999      78.971099      61.552168      61.552168      113.80896     -3.6263488e-12  1.866568e-11   3.7825121e-11  8.1000093      12.150014      16.198399      1594.1691    
        50   0             -322.55999      78.971099      61.552168      61.552168      113.80896     -1.0725624e-11 -1.3588472e-11  1.3736229e-11  8.1000093      12.150014      16.198399      1594.1691    
        51   0             -322.55999      78.971099      61.552168      61.552168      113.80896      1.0021275e-11  8.2454951e-12 -6.3795787e-12  8.1000093      12.150014      16.198399      1594.1691    
Loop time of 0.011196 on 1 procs for 25 steps with 96 atoms

0.0% CPU use with 1 MPI tasks x 1 OpenMP threads

Minimization stats:
  Stopping criterion = force tolerance
  Energy initial, next-to-last, final = 
     -322.559993182848  -322.559993203287   -322.55999320329
  Force two-norm initial, final = 0.0004923351 7.831509e-11
  Force max component initial, final = 7.4979765e-05 1.2051388e-11
  Final line search alpha, max atom move = 1 1.2051388e-11
  Iterations, force evaluations = 25 50

MPI task timing breakdown:
Section |  min time  |  avg time  |  max time  |%varavg| %total
---------------------------------------------------------------
Pair    | 0.010239   | 0.010239   | 0.010239   |   0.0 | 91.45
Neigh   | 0          | 0          | 0          |   0.0 |  0.00
Comm    | 0.000276   | 0.000276   | 0.000276   |   0.0 |  2.47
Output  | 0.000386   | 0.000386   | 0.000386   |   0.0 |  3.45
Modify  | 0          | 0          | 0          |   0.0 |  0.00
Other   |            | 0.000295   |            |       |  2.63

Nlocal:             96 ave          96 max          96 min
Histogram: 1 0 0 0 0 0 0 0 0 0
Nghost:            976 ave         976 max         976 min
Histogram: 1 0 0 0 0 0 0 0 0 0
Neighs:           4128 ave        4128 max        4128 min
Histogram: 1 0 0 0 0 0 0 0 0 0

Total # of neighbors = 4128
Ave neighs/atom = 43
Neighbor list builds = 0
Dangerous builds = 0
OMP_NUM_THREADS environment is not set. Defaulting to 1 thread. (src/comm.cpp:98)
  using 1 OpenMP thread(s) per MPI task
Loaded 1 plugins from F:\Lammps\LAMMPS 64-bit 2Aug2023\plugins

The 'box' command has been removed and will be ignored

Reading restart file ...
  restart file = 2 Aug 2023, LAMMPS = 2 Aug 2023
  restoring atom style atomic from restart
  triclinic box = (-0.010004662 -0.015006993 -0.020009324) to (8.0900047 12.135007 16.180009) with tilt (0 0 0)
  1 by 1 by 1 MPI processor grid
  pair style eam/alloy stores no restart info
  96 atoms
  read_restart CPU = 0.000 seconds
Changing box ...
  triclinic box = (-0.010004662 -0.015006993 -0.020009324) to (8.0900047 12.135007 16.181629) with tilt (0 0 0)
Neighbor list info ...
  update: every = 1 steps, delay = 0 steps, check = yes
  max neighbors/atom: 2000, page size: 100000
  master list distance cutoff = 7.28721
  ghost atom cutoff = 7.28721
  1 neighbor lists, perpetual/occasional/extra = 1 0 0
  (1) pair eam/alloy, perpetual
      attributes: half, newton on
      pair build: half/nsq/newton
      stencil: none
      bin: none
Setting up cg style minimization ...
  Unit style    : metal
  Current step  : 26
Per MPI rank memory allocation (min/avg/max) = 4.449 | 4.449 | 4.449 Mbytes
   Step          Temp          PotEng         Press           Pxx            Pyy            Pzz            Pxy            Pxz            Pyz             Lx             Ly             Lz           Volume    
        26   0             -322.55999     -78.956864     -61.548471     -61.548471     -113.77365      1.6322771e-06 -3.9563368e-07  1.7746441e-06  8.1000093      12.150014      16.201639      1594.4879    
        27   0             -322.55999     -78.956884     -61.548489     -61.548489     -113.77367     -3.1094724e-07  6.6855552e-08 -2.5222014e-08  8.1000093      12.150014      16.201639      1594.4879    
        28   0             -322.55999     -78.956887     -61.548493     -61.548492     -113.77368      6.559915e-08  -8.8284317e-08  8.4807822e-08  8.1000093      12.150014      16.201639      1594.4879    
        29   0             -322.55999     -78.956888     -61.548493     -61.548493     -113.77368     -1.047085e-08  -1.1448203e-08 -2.6745738e-08  8.1000093      12.150014      16.201639      1594.4879    
        30   0             -322.55999     -78.956888     -61.548493     -61.548493     -113.77368     -1.0197286e-08 -7.3787572e-09 -5.1158887e-09  8.1000093      12.150014      16.201639      1594.4879    
        31   0             -322.55999     -78.956888     -61.548493     -61.548493     -113.77368     -8.6724427e-09 -8.6062448e-10 -2.9226154e-09  8.1000093      12.150014      16.201639      1594.4879    
        32   0             -322.55999     -78.956888     -61.548493     -61.548493     -113.77368     -4.5552369e-09 -5.8540123e-10 -2.3204198e-10  8.1000093      12.150014      16.201639      1594.4879    
        33   0             -322.55999     -78.956888     -61.548493     -61.548493     -113.77368     -2.6653423e-09 -1.4747651e-10  1.6650475e-10  8.1000093      12.150014      16.201639      1594.4879    
        34   0             -322.55999     -78.956888     -61.548493     -61.548493     -113.77368     -1.41757e-09   -9.3423708e-11  9.6418708e-11  8.1000093      12.150014      16.201639      1594.4879    
        35   0             -322.55999     -78.956888     -61.548493     -61.548493     -113.77368     -7.1960261e-10 -5.1320346e-11  3.7440024e-11  8.1000093      12.150014      16.201639      1594.4879    
        36   0             -322.55999     -78.956888     -61.548493     -61.548493     -113.77368     -3.3568742e-10 -6.0385514e-11  8.3493904e-12  8.1000093      12.150014      16.201639      1594.4879    
        37   0             -322.55999     -78.956888     -61.548493     -61.548493     -113.77368     -9.2540555e-11 -4.8660942e-12 -6.5080652e-12  8.1000093      12.150014      16.201639      1594.4879    
        38   0             -322.55999     -78.956888     -61.548493     -61.548493     -113.77368     -3.0469183e-11  1.3872723e-11 -1.9283352e-11  8.1000093      12.150014      16.201639      1594.4879    
        39   0             -322.55999     -78.956888     -61.548493     -61.548493     -113.77368     -1.9421489e-11  1.6712367e-11 -3.3296633e-11  8.1000093      12.150014      16.201639      1594.4879    
        40   0             -322.55999     -78.956888     -61.548493     -61.548493     -113.77368     -4.5703774e-12 -5.7382989e-12 -1.1211591e-11  8.1000093      12.150014      16.201639      1594.4879    
        41   0             -322.55999     -78.956888     -61.548493     -61.548493     -113.77368      2.0568441e-12  1.1309242e-11 -3.1331323e-11  8.1000093      12.150014      16.201639      1594.4879    
        42   0             -322.55999     -78.956888     -61.548493     -61.548493     -113.77368     -3.3885636e-12  5.5557658e-12  1.7369522e-12  8.1000093      12.150014      16.201639      1594.4879    
        43   0             -322.55999     -78.956888     -61.548493     -61.548493     -113.77368      8.7851648e-12  4.216557e-12   4.003559e-11   8.1000093      12.150014      16.201639      1594.4879    
        44   0             -322.55999     -78.956888     -61.548493     -61.548493     -113.77368     -4.8562439e-12 -1.1440584e-11  5.1107369e-11  8.1000093      12.150014      16.201639      1594.4879    
        45   0             -322.55999     -78.956888     -61.548493     -61.548493     -113.77368      6.8642815e-12 -3.3810427e-13 -1.3049175e-11  8.1000093      12.150014      16.201639      1594.4879    
        46   0             -322.55999     -78.956888     -61.548493     -61.548493     -113.77368     -1.3617005e-11 -1.2647486e-11 -6.7072116e-12  8.1000093      12.150014      16.201639      1594.4879    
        47   0             -322.55999     -78.956888     -61.548493     -61.548493     -113.77368      9.7229462e-12 -1.5542165e-12  1.7343606e-11  8.1000093      12.150014      16.201639      1594.4879    
        48   0             -322.55999     -78.956888     -61.548493     -61.548493     -113.77368      9.7717527e-12  3.041163e-11  -1.6296886e-11  8.1000093      12.150014      16.201639      1594.4879    
        49   0             -322.55999     -78.956888     -61.548493     -61.548493     -113.77368      4.5982668e-12  1.2983174e-11 -2.6330006e-12  8.1000093      12.150014      16.201639      1594.4879    
        50   0             -322.55999     -78.956888     -61.548493     -61.548493     -113.77368      1.0939622e-11 -2.4783531e-12  7.3063937e-12  8.1000093      12.150014      16.201639      1594.4879    
        51   0             -322.55999     -78.956888     -61.548493     -61.548493     -113.77368      1.3020869e-11  5.4929776e-12 -1.1812543e-11  8.1000093      12.150014      16.201639      1594.4879    
Loop time of 0.007232 on 1 procs for 25 steps with 96 atoms

216.1% CPU use with 1 MPI tasks x 1 OpenMP threads

Minimization stats:
  Stopping criterion = force tolerance
  Energy initial, next-to-last, final = 
     -322.559993184009  -322.559993204443  -322.559993204444
  Force two-norm initial, final = 0.0004921741 7.7936799e-11
  Force max component initial, final = 7.4963776e-05 1.2419196e-11
  Final line search alpha, max atom move = 1 1.2419196e-11
  Iterations, force evaluations = 25 50

MPI task timing breakdown:
Section |  min time  |  avg time  |  max time  |%varavg| %total
---------------------------------------------------------------
Pair    | 0.006747   | 0.006747   | 0.006747   |   0.0 | 93.29
Neigh   | 0          | 0          | 0          |   0.0 |  0.00
Comm    | 0.000144   | 0.000144   | 0.000144   |   0.0 |  1.99
Output  | 0.000229   | 0.000229   | 0.000229   |   0.0 |  3.17
Modify  | 0          | 0          | 0          |   0.0 |  0.00
Other   |            | 0.000112   |            |       |  1.55

Nlocal:             96 ave          96 max          96 min
Histogram: 1 0 0 0 0 0 0 0 0 0
Nghost:            976 ave         976 max         976 min
Histogram: 1 0 0 0 0 0 0 0 0 0
Neighs:           4128 ave        4128 max        4128 min
Histogram: 1 0 0 0 0 0 0 0 0 0

Total # of neighbors = 4128
Ave neighs/atom = 43
Neighbor list builds = 0
Dangerous builds = 0
OMP_NUM_THREADS environment is not set. Defaulting to 1 thread. (src/comm.cpp:98)
  using 1 OpenMP thread(s) per MPI task
Loaded 1 plugins from F:\Lammps\LAMMPS 64-bit 2Aug2023\plugins

The 'box' command has been removed and will be ignored

Reading restart file ...
  restart file = 2 Aug 2023, LAMMPS = 2 Aug 2023
  restoring atom style atomic from restart
  triclinic box = (-0.010004662 -0.015006993 -0.020009324) to (8.0900047 12.135007 16.180009) with tilt (0 0 0)
  1 by 1 by 1 MPI processor grid
  pair style eam/alloy stores no restart info
  96 atoms
  read_restart CPU = 0.000 seconds
Changing box ...
  triclinic box = (-0.010004662 -0.015006993 -0.020009324) to (8.0900047 12.135007 16.180009) with tilt (0 0 -0.0016200019)
Neighbor list info ...
  update: every = 1 steps, delay = 0 steps, check = yes
  max neighbors/atom: 2000, page size: 100000
  master list distance cutoff = 7.28721
  ghost atom cutoff = 7.28721
  1 neighbor lists, perpetual/occasional/extra = 1 0 0
  (1) pair eam/alloy, perpetual
      attributes: half, newton on
      pair build: half/nsq/newton
      stencil: none
      bin: none
Setting up cg style minimization ...
  Unit style    : metal
  Current step  : 26
Per MPI rank memory allocation (min/avg/max) = 4.449 | 4.449 | 4.449 Mbytes
   Step          Temp          PotEng         Press           Pxx            Pyy            Pzz            Pxy            Pxz            Pyz             Lx             Ly             Lz           Volume    
        26   0             -322.56         0.0016772293   0.0025624658  -0.00062207509  0.0030912971   1.6318355e-06 -3.976563e-07   31.594579      8.1000093      12.150014      16.200019      1594.3285    
        27   0             -322.56         0.0016584624   0.0025457359  -0.00063861378  0.003068265   -3.0978364e-07  6.4698287e-08  31.594577      8.1000093      12.150014      16.200019      1594.3285    
        28   0             -322.56         0.0016555004   0.0025427164  -0.00064156356  0.0030653485   6.5545644e-08 -8.9557414e-08  31.594577      8.1000093      12.150014      16.200019      1594.3285    
        29   0             -322.56         0.0016548141   0.0025421921  -0.00064230373  0.0030645539  -1.0504733e-08 -1.1870928e-08  31.594577      8.1000093      12.150014      16.200019      1594.3285    
        30   0             -322.56         0.0016547079   0.0025420846  -0.00064240483  0.0030644439  -1.0203508e-08 -7.5982574e-09  31.594577      8.1000093      12.150014      16.200019      1594.3285    
        31   0             -322.56         0.0016546914   0.002542073   -0.00064242723  0.0030644283  -8.6656117e-09 -9.4181241e-10  31.594577      8.1000093      12.150014      16.200019      1594.3285    
        32   0             -322.56         0.0016546835   0.0025420695  -0.00064244045  0.0030644214  -4.5576902e-09 -6.2592477e-10  31.594577      8.1000093      12.150014      16.200019      1594.3285    
        33   0             -322.56         0.0016546791   0.0025420666  -0.00064244651  0.0030644171  -2.6755385e-09 -1.7687455e-10  31.594577      8.1000093      12.150014      16.200019      1594.3285    
        34   0             -322.56         0.0016546773   0.0025420653  -0.00064244835  0.003064415   -1.4294823e-09 -8.6901148e-11  31.594577      8.1000093      12.150014      16.200019      1594.3285    
        35   0             -322.56         0.0016546766   0.0025420647  -0.00064244872  0.0030644137  -7.1382767e-10 -6.7981533e-11  31.594577      8.1000093      12.150014      16.200019      1594.3285    
        36   0             -322.56         0.0016546762   0.0025420644  -0.00064244904  0.0030644133  -3.5366962e-10 -3.3647599e-11  31.594577      8.1000093      12.150014      16.200019      1594.3285    
        37   0             -322.56         0.0016546761   0.0025420643  -0.00064244908  0.003064413   -9.6737126e-11  7.030502e-12   31.594577      8.1000093      12.150014      16.200019      1594.3285    
        38   0             -322.56         0.0016546759   0.0025420642  -0.00064244923  0.0030644128  -1.4922327e-11 -1.4219058e-11  31.594577      8.1000093      12.150014      16.200019      1594.3285    
        39   0             -322.56         0.0016546759   0.0025420642  -0.00064244925  0.0030644128  -1.4172725e-11 -3.1199222e-12  31.594577      8.1000093      12.150014      16.200019      1594.3285    
        40   0             -322.56         0.0016546759   0.0025420641  -0.00064244931  0.0030644128   1.34545e-11   -3.0465395e-11  31.594577      8.1000093      12.150014      16.200019      1594.3285    
        41   0             -322.56         0.0016546759   0.0025420642  -0.00064244925  0.0030644128  -3.1657648e-12  1.625115e-11   31.594577      8.1000093      12.150014      16.200019      1594.3285    
        42   0             -322.56         0.0016546759   0.0025420642  -0.00064244927  0.0030644128   7.9701964e-12 -3.2050968e-11  31.594577      8.1000093      12.150014      16.200019      1594.3285    
        43   0             -322.56         0.0016546759   0.0025420642  -0.00064244931  0.0030644127   6.8998332e-12 -1.7033488e-11  31.594577      8.1000093      12.150014      16.200019      1594.3285    
        44   0             -322.56         0.0016546759   0.0025420642  -0.00064244926  0.0030644128   2.8101392e-12 -1.9067138e-12  31.594577      8.1000093      12.150014      16.200019      1594.3285    
        45   0             -322.56         0.0016546759   0.0025420642  -0.0006424493   0.0030644128   6.0665537e-13  6.814626e-12   31.594577      8.1000093      12.150014      16.200019      1594.3285    
        46   0             -322.56         0.0016546759   0.0025420642  -0.00064244929  0.0030644128  -5.1914359e-12 -2.0719742e-12  31.594577      8.1000093      12.150014      16.200019      1594.3285    
        47   0             -322.56         0.0016546759   0.0025420642  -0.00064244926  0.0030644128  -1.140791e-11   3.9214239e-12  31.594577      8.1000093      12.150014      16.200019      1594.3285    
        48   0             -322.56         0.0016546759   0.0025420642  -0.00064244926  0.0030644128   4.3511833e-12  3.9812711e-12  31.594577      8.1000093      12.150014      16.200019      1594.3285    
        49   0             -322.56         0.0016546759   0.0025420642  -0.00064244924  0.0030644128  -1.3904262e-11 -1.3105782e-11  31.594577      8.1000093      12.150014      16.200019      1594.3285    
        50   0             -322.56         0.0016546759   0.0025420642  -0.00064244931  0.0030644127   8.810449e-12  -1.4604698e-11  31.594577      8.1000093      12.150014      16.200019      1594.3285    
        51   0             -322.56         0.0016546759   0.0025420642  -0.00064244927  0.0030644128  -2.8240853e-12  1.4491522e-11  31.594577      8.1000093      12.150014      16.200019      1594.3285    
        52   0             -322.56         0.0016546759   0.0025420642  -0.00064244928  0.0030644128  -1.8478583e-13  1.7257467e-12  31.594577      8.1000093      12.150014      16.200019      1594.3285    
Loop time of 0.007954 on 1 procs for 26 steps with 96 atoms

0.0% CPU use with 1 MPI tasks x 1 OpenMP threads

Minimization stats:
  Stopping criterion = force tolerance
  Energy initial, next-to-last, final = 
     -322.559997273215  -322.559997293652  -322.559997293654
  Force two-norm initial, final = 0.00049225989 4.1006033e-11
  Force max component initial, final = 7.4975954e-05 6.0651553e-12
  Final line search alpha, max atom move = 1 6.0651553e-12
  Iterations, force evaluations = 26 52

MPI task timing breakdown:
Section |  min time  |  avg time  |  max time  |%varavg| %total
---------------------------------------------------------------
Pair    | 0.007405   | 0.007405   | 0.007405   |   0.0 | 93.10
Neigh   | 0          | 0          | 0          |   0.0 |  0.00
Comm    | 0.000156   | 0.000156   | 0.000156   |   0.0 |  1.96
Output  | 0.000251   | 0.000251   | 0.000251   |   0.0 |  3.16
Modify  | 0          | 0          | 0          |   0.0 |  0.00
Other   |            | 0.000142   |            |       |  1.79

Nlocal:             96 ave          96 max          96 min
Histogram: 1 0 0 0 0 0 0 0 0 0
Nghost:            976 ave         976 max         976 min
Histogram: 1 0 0 0 0 0 0 0 0 0
Neighs:           4128 ave        4128 max        4128 min
Histogram: 1 0 0 0 0 0 0 0 0 0

Total # of neighbors = 4128
Ave neighs/atom = 43
Neighbor list builds = 0
Dangerous builds = 0
OMP_NUM_THREADS environment is not set. Defaulting to 1 thread. (src/comm.cpp:98)
  using 1 OpenMP thread(s) per MPI task
Loaded 1 plugins from F:\Lammps\LAMMPS 64-bit 2Aug2023\plugins

The 'box' command has been removed and will be ignored

Reading restart file ...
  restart file = 2 Aug 2023, LAMMPS = 2 Aug 2023
  restoring atom style atomic from restart
  triclinic box = (-0.010004662 -0.015006993 -0.020009324) to (8.0900047 12.135007 16.180009) with tilt (0 0 0)
  1 by 1 by 1 MPI processor grid
  pair style eam/alloy stores no restart info
  96 atoms
  read_restart CPU = 0.000 seconds
Changing box ...
  triclinic box = (-0.010004662 -0.015006993 -0.020009324) to (8.0900047 12.135007 16.180009) with tilt (0 0 0.0016200019)
Neighbor list info ...
  update: every = 1 steps, delay = 0 steps, check = yes
  max neighbors/atom: 2000, page size: 100000
  master list distance cutoff = 7.28721
  ghost atom cutoff = 7.28721
  1 neighbor lists, perpetual/occasional/extra = 1 0 0
  (1) pair eam/alloy, perpetual
      attributes: half, newton on
      pair build: half/nsq/newton
      stencil: none
      bin: none
Setting up cg style minimization ...
  Unit style    : metal
  Current step  : 26
Per MPI rank memory allocation (min/avg/max) = 4.449 | 4.449 | 4.449 Mbytes
   Step          Temp          PotEng         Press           Pxx            Pyy            Pzz            Pxy            Pxz            Pyz             Lx             Ly             Lz           Volume    
        26   0             -322.56         0.0016772409   0.0025624693  -0.0006220598   0.0030913131   1.6304776e-06 -3.9803503e-07 -31.594576      8.1000093      12.150014      16.200019      1594.3285    
        27   0             -322.56         0.0016584641   0.0025457366  -0.00063861188  0.0030682674  -3.1106149e-07  6.4286121e-08 -31.594577      8.1000093      12.150014      16.200019      1594.3285    
        28   0             -322.56         0.0016555007   0.0025427168  -0.00064156328  0.0030653487   6.5491874e-08 -8.9643735e-08 -31.594577      8.1000093      12.150014      16.200019      1594.3285    
        29   0             -322.56         0.0016548139   0.0025421922  -0.00064230405  0.0030645537  -1.0472838e-08 -1.1901541e-08 -31.594577      8.1000093      12.150014      16.200019      1594.3285    
        30   0             -322.56         0.0016547078   0.0025420846  -0.00064240493  0.0030644439  -1.0201939e-08 -7.5786054e-09 -31.594577      8.1000093      12.150014      16.200019      1594.3285    
        31   0             -322.56         0.0016546914   0.002542073   -0.00064242726  0.0030644283  -8.6650957e-09 -9.005579e-10  -31.594577      8.1000093      12.150014      16.200019      1594.3285    
        32   0             -322.56         0.0016546835   0.0025420695  -0.00064244038  0.0030644214  -4.5629235e-09 -5.9670416e-10 -31.594577      8.1000093      12.150014      16.200019      1594.3285    
        33   0             -322.56         0.0016546791   0.0025420666  -0.00064244652  0.0030644171  -2.6735965e-09 -1.2682553e-10 -31.594577      8.1000093      12.150014      16.200019      1594.3285    
        34   0             -322.56         0.0016546773   0.0025420653  -0.00064244835  0.003064415   -1.4263339e-09 -7.4864517e-11 -31.594577      8.1000093      12.150014      16.200019      1594.3285    
        35   0             -322.56         0.0016546766   0.0025420646  -0.00064244868  0.0030644138  -7.5433411e-10 -7.2705064e-11 -31.594577      8.1000093      12.150014      16.200019      1594.3285    
        36   0             -322.56         0.0016546762   0.0025420644  -0.00064244901  0.0030644132  -3.4685346e-10 -3.4859829e-11 -31.594577      8.1000093      12.150014      16.200019      1594.3285    
        37   0             -322.56         0.0016546761   0.0025420643  -0.00064244911  0.003064413   -9.6496556e-11 -1.3416783e-11 -31.594577      8.1000093      12.150014      16.200019      1594.3285    
        38   0             -322.56         0.001654676    0.0025420642  -0.00064244919  0.0030644128  -1.0612982e-11  2.8958059e-12 -31.594577      8.1000093      12.150014      16.200019      1594.3285    
        39   0             -322.56         0.0016546759   0.0025420642  -0.00064244924  0.0030644128  -2.0605363e-12 -1.3900149e-11 -31.594577      8.1000093      12.150014      16.200019      1594.3285    
        40   0             -322.56         0.0016546759   0.0025420642  -0.00064244925  0.0030644128  -6.4500715e-13  1.2039844e-11 -31.594577      8.1000093      12.150014      16.200019      1594.3285    
        41   0             -322.56         0.0016546759   0.0025420642  -0.00064244926  0.0030644128   1.6449425e-11  1.1453534e-11 -31.594577      8.1000093      12.150014      16.200019      1594.3285    
        42   0             -322.56         0.0016546759   0.0025420642  -0.00064244926  0.0030644128  -1.3220903e-11 -1.4576449e-11 -31.594577      8.1000093      12.150014      16.200019      1594.3285    
        43   0             -322.56         0.0016546759   0.0025420641  -0.00064244933  0.0030644128  -5.836443e-12   6.8648272e-12 -31.594577      8.1000093      12.150014      16.200019      1594.3285    
        44   0             -322.56         0.0016546759   0.0025420642  -0.00064244925  0.0030644128  -5.8747948e-12  1.894496e-11  -31.594577      8.1000093      12.150014      16.200019      1594.3285    
        45   0             -322.56         0.0016546759   0.0025420642  -0.00064244926  0.0030644128   4.2919124e-12  4.3514663e-13 -31.594577      8.1000093      12.150014      16.200019      1594.3285    
        46   0             -322.56         0.0016546759   0.0025420642  -0.00064244926  0.0030644128   9.7622703e-12  6.5067804e-12 -31.594577      8.1000093      12.150014      16.200019      1594.3285    
        47   0             -322.56         0.0016546759   0.0025420642  -0.00064244929  0.0030644128  -4.7242415e-12  6.3019969e-12 -31.594577      8.1000093      12.150014      16.200019      1594.3285    
        48   0             -322.56         0.0016546759   0.0025420642  -0.00064244926  0.0030644128  -1.1055771e-11  2.7059217e-11 -31.594577      8.1000093      12.150014      16.200019      1594.3285    
        49   0             -322.56         0.0016546759   0.0025420642  -0.00064244931  0.0030644127  -5.5784402e-14  6.3139534e-12 -31.594577      8.1000093      12.150014      16.200019      1594.3285    
        50   0             -322.56         0.0016546758   0.0025420641  -0.00064244932  0.0030644127  -1.5326764e-11  5.3568449e-12 -31.594577      8.1000093      12.150014      16.200019      1594.3285    
        51   0             -322.56         0.0016546759   0.0025420642  -0.00064244924  0.0030644128  -3.8421507e-12  2.8076621e-12 -31.594577      8.1000093      12.150014      16.200019      1594.3285    
        52   0             -322.56         0.0016546759   0.0025420642  -0.00064244929  0.0030644128  -1.2872251e-11  3.4789826e-12 -31.594577      8.1000093      12.150014      16.200019      1594.3285    
Loop time of 0.007841 on 1 procs for 26 steps with 96 atoms

199.3% CPU use with 1 MPI tasks x 1 OpenMP threads

Minimization stats:
  Stopping criterion = force tolerance
  Energy initial, next-to-last, final = 
     -322.559997273217  -322.559997293654  -322.559997293655
  Force two-norm initial, final = 0.00049225228 4.0976276e-11
  Force max component initial, final = 7.4968175e-05 7.3884232e-12
  Final line search alpha, max atom move = 1 7.3884232e-12
  Iterations, force evaluations = 26 52

MPI task timing breakdown:
Section |  min time  |  avg time  |  max time  |%varavg| %total
---------------------------------------------------------------
Pair    | 0.007297   | 0.007297   | 0.007297   |   0.0 | 93.06
Neigh   | 0          | 0          | 0          |   0.0 |  0.00
Comm    | 0.000156   | 0.000156   | 0.000156   |   0.0 |  1.99
Output  | 0.00027    | 0.00027    | 0.00027    |   0.0 |  3.44
Modify  | 0          | 0          | 0          |   0.0 |  0.00
Other   |            | 0.000118   |            |       |  1.50

Nlocal:             96 ave          96 max          96 min
Histogram: 1 0 0 0 0 0 0 0 0 0
Nghost:            976 ave         976 max         976 min
Histogram: 1 0 0 0 0 0 0 0 0 0
Neighs:           4128 ave        4128 max        4128 min
Histogram: 1 0 0 0 0 0 0 0 0 0

Total # of neighbors = 4128
Ave neighs/atom = 43
Neighbor list builds = 0
Dangerous builds = 0
OMP_NUM_THREADS environment is not set. Defaulting to 1 thread. (src/comm.cpp:98)
  using 1 OpenMP thread(s) per MPI task
Loaded 1 plugins from F:\Lammps\LAMMPS 64-bit 2Aug2023\plugins

The 'box' command has been removed and will be ignored

Reading restart file ...
  restart file = 2 Aug 2023, LAMMPS = 2 Aug 2023
  restoring atom style atomic from restart
  triclinic box = (-0.010004662 -0.015006993 -0.020009324) to (8.0900047 12.135007 16.180009) with tilt (0 0 0)
  1 by 1 by 1 MPI processor grid
  pair style eam/alloy stores no restart info
  96 atoms
  read_restart CPU = 0.000 seconds
Changing box ...
  triclinic box = (-0.010004662 -0.015006993 -0.020009324) to (8.0900047 12.135007 16.180009) with tilt (0 -0.0016200019 0)
Neighbor list info ...
  update: every = 1 steps, delay = 0 steps, check = yes
  max neighbors/atom: 2000, page size: 100000
  master list distance cutoff = 7.28721
  ghost atom cutoff = 7.28721
  1 neighbor lists, perpetual/occasional/extra = 1 0 0
  (1) pair eam/alloy, perpetual
      attributes: half, newton on
      pair build: half/nsq/newton
      stencil: none
      bin: none
Setting up cg style minimization ...
  Unit style    : metal
  Current step  : 26
Per MPI rank memory allocation (min/avg/max) = 4.449 | 4.449 | 4.449 Mbytes
   Step          Temp          PotEng         Press           Pxx            Pyy            Pzz            Pxy            Pxz            Pyz             Lx             Ly             Lz           Volume    
        26   0             -322.56         0.0016772375  -0.0006219974   0.0025624025   0.0030913076   1.6302582e-06  31.594577      1.7614094e-06  8.1000093      12.150014      16.200019      1594.3285    
        27   0             -322.56         0.0016584629  -0.00063876807  0.0025458903   0.0030682664  -3.1092901e-07  31.594577     -2.6575542e-08  8.1000093      12.150014      16.200019      1594.3285    
        28   0             -322.56         0.0016555004  -0.00064179494  0.002542948    0.0030653481   6.5391543e-08  31.594577      8.4650076e-08  8.1000093      12.150014      16.200019      1594.3285    
        29   0             -322.56         0.0016548139  -0.00064232109  0.0025422091   0.0030645536  -1.0445057e-08  31.594577     -2.6473717e-08  8.1000093      12.150014      16.200019      1594.3285    
        30   0             -322.56         0.0016547078  -0.0006424288   0.0025421084   0.0030644438  -1.01896e-08    31.594577     -5.0479586e-09  8.1000093      12.150014      16.200019      1594.3285    
        31   0             -322.56         0.0016546913  -0.00064244048  0.0025420862   0.0030644283  -8.6600856e-09  31.594577     -2.8807983e-09  8.1000093      12.150014      16.200019      1594.3285    
        32   0             -322.56         0.0016546835  -0.000642444    0.0025420731   0.0030644215  -4.5690389e-09  31.594577     -1.9916828e-10  8.1000093      12.150014      16.200019      1594.3285    
        33   0             -322.56         0.0016546791  -0.00064244688  0.002542067    0.0030644171  -2.6617492e-09  31.594577      1.406083e-10   8.1000093      12.150014      16.200019      1594.3285    
        34   0             -322.56         0.0016546773  -0.00064244825  0.0025420652   0.0030644151  -1.4152084e-09  31.594577      1.0055284e-10  8.1000093      12.150014      16.200019      1594.3285    
        35   0             -322.56         0.0016546766  -0.00064244885  0.0025420648   0.0030644138  -7.4407676e-10  31.594577      6.0866204e-11  8.1000093      12.150014      16.200019      1594.3285    
        36   0             -322.56         0.0016546762  -0.00064244911  0.0025420645   0.0030644133  -3.6217326e-10  31.594577     -3.9843527e-12  8.1000093      12.150014      16.200019      1594.3285    
        37   0             -322.56         0.0016546761  -0.00064244922  0.0025420644   0.003064413   -1.0092096e-10  31.594577     -1.0223795e-11  8.1000093      12.150014      16.200019      1594.3285    
        38   0             -322.56         0.001654676   -0.00064244927  0.0025420643   0.0030644128  -2.6487131e-11  31.594577     -2.0145765e-11  8.1000093      12.150014      16.200019      1594.3285    
        39   0             -322.56         0.0016546759  -0.00064244936  0.0025420643   0.0030644128  -1.0260843e-11  31.594577     -1.0000102e-11  8.1000093      12.150014      16.200019      1594.3285    
[...]
        50   0             -322.56         0.0016546759  -0.00064244936  0.0025420643   0.0030644128   8.7965029e-12 -31.594577      4.9625319e-12  8.1000093      12.150014      16.200019      1594.3285    
        51   0             -322.56         0.0016546759  -0.00064244936  0.0025420642   0.0030644128   1.6791105e-11 -31.594577     -1.1846667e-11  8.1000093      12.150014      16.200019      1594.3285    
Loop time of 0.007794 on 1 procs for 25 steps with 96 atoms

0.0% CPU use with 1 MPI tasks x 1 OpenMP threads

Minimization stats:
  Stopping criterion = force tolerance
  Energy initial, next-to-last, final = 
     -322.559997273216  -322.559997293653  -322.559997293652
  Force two-norm initial, final = 0.00049226019 9.5221148e-11
  Force max component initial, final = 7.4969376e-05 1.58841e-11
  Final line search alpha, max atom move = 1 1.58841e-11
  Iterations, force evaluations = 25 50

MPI task timing breakdown:
Section |  min time  |  avg time  |  max time  |%varavg| %total
---------------------------------------------------------------
Pair    | 0.007255   | 0.007255   | 0.007255   |   0.0 | 93.08
Neigh   | 0          | 0          | 0          |   0.0 |  0.00
Comm    | 0.000144   | 0.000144   | 0.000144   |   0.0 |  1.85
Output  | 0.000275   | 0.000275   | 0.000275   |   0.0 |  3.53
Modify  | 0          | 0          | 0          |   0.0 |  0.00
Other   |            | 0.00012    |            |       |  1.54

Nlocal:             96 ave          96 max          96 min
Histogram: 1 0 0 0 0 0 0 0 0 0
Nghost:            976 ave         976 max         976 min
Histogram: 1 0 0 0 0 0 0 0 0 0
Neighs:           4128 ave        4128 max        4128 min
Histogram: 1 0 0 0 0 0 0 0 0 0

Total # of neighbors = 4128
Ave neighs/atom = 43
Neighbor list builds = 0
Dangerous builds = 0
OMP_NUM_THREADS environment is not set. Defaulting to 1 thread. (src/comm.cpp:98)
  using 1 OpenMP thread(s) per MPI task
Loaded 1 plugins from F:\Lammps\LAMMPS 64-bit 2Aug2023\plugins

The 'box' command has been removed and will be ignored

Reading restart file ...
  restart file = 2 Aug 2023, LAMMPS = 2 Aug 2023
  restoring atom style atomic from restart
  triclinic box = (-0.010004662 -0.015006993 -0.020009324) to (8.0900047 12.135007 16.180009) with tilt (0 0 0)
  1 by 1 by 1 MPI processor grid
  pair style eam/alloy stores no restart info
  96 atoms
  read_restart CPU = 0.000 seconds
Changing box ...
  triclinic box = (-0.010004662 -0.015006993 -0.020009324) to (8.0900047 12.135007 16.180009) with tilt (-0.0012150014 0 0)
Neighbor list info ...
  update: every = 1 steps, delay = 0 steps, check = yes
  max neighbors/atom: 2000, page size: 100000
  master list distance cutoff = 7.28721
  ghost atom cutoff = 7.28721
  1 neighbor lists, perpetual/occasional/extra = 1 0 0
  (1) pair eam/alloy, perpetual
      attributes: half, newton on
      pair build: half/nsq/newton
      stencil: none
      bin: none
Setting up cg style minimization ...
  Unit style    : metal
  Current step  : 26
Per MPI rank memory allocation (min/avg/max) = 4.449 | 4.449 | 4.449 Mbytes
   Step          Temp          PotEng         Press           Pxx            Pyy            Pzz            Pxy            Pxz            Pyz             Lx             Ly             Lz           Volume    
        26   0             -322.56         0.0016772359  -0.00062199922  0.003084795    0.0025689119   31.594579     -3.9874095e-07  1.7618595e-06  8.1000093      12.150014      16.200019      1594.3285    
        27   0             -322.56         0.0016584628  -0.00063876838  0.0030682483   0.0025459086   31.594577      6.3832129e-08 -2.6150607e-08  8.1000093      12.150014      16.200019      1594.3285    
        28   0             -322.56         0.0016555005  -0.00064179478  0.0030652983   0.0025429979   31.594577     -8.9670627e-08  8.4736995e-08  8.1000093      12.150014      16.200019      1594.3285    
        29   0             -322.56         0.001654814   -0.00064232094  0.0030645582   0.0025422047   31.594577     -1.1911833e-08 -2.6474609e-08  8.1000093      12.150014      16.200019      1594.3285    
        30   0             -322.56         0.0016547079  -0.00064242874  0.0030644571   0.0025420952   31.594577     -7.6044002e-09 -5.0488568e-09  8.1000093      12.150014      16.200019      1594.3285    
        31   0             -322.56         0.0016546914  -0.00064244043  0.0030644347   0.0025420798   31.594577     -9.1170734e-10 -2.834043e-09   8.1000093      12.150014      16.200019      1594.3285    
        32   0             -322.56         0.0016546835  -0.00064244401  0.0030644216   0.0025420729   31.594577     -6.0303288e-10 -1.9367013e-10  8.1000093      12.150014      16.200019      1594.3285    
        33   0             -322.56         0.0016546791  -0.00064244686  0.0030644155   0.0025420686   31.594577     -1.1818948e-10  1.7165398e-10  8.1000093      12.150014      16.200019      1594.3285    
        34   0             -322.56         0.0016546773  -0.00064244826  0.0030644136   0.0025420666   31.594577     -7.4784926e-11  1.1964635e-10  8.1000093      12.150014      16.200019      1594.3285    
        35   0             -322.56         0.0016546766  -0.00064244889  0.0030644133   0.0025420653   31.594577     -5.9954975e-11  5.2009574e-11  8.1000093      12.150014      16.200019      1594.3285    
        36   0             -322.56         0.0016546762  -0.00064244915  0.003064413    0.0025420647   31.594577     -1.5624441e-11  2.7939363e-11  8.1000093      12.150014      16.200019      1594.3285    
        37   0             -322.56         0.0016546761  -0.00064244922  0.0030644129   0.0025420645   31.594577     -1.883012e-11  -1.055422e-11   8.1000093      12.150014      16.200019      1594.3285    
        38   0             -322.56         0.0016546759  -0.0006424493   0.0030644128   0.0025420643   31.594577     -3.0451594e-12  1.6422966e-11  8.1000093      12.150014      16.200019      1594.3285    
        39   0             -322.56         0.0016546759  -0.00064244932  0.0030644128   0.0025420643   31.594577     -4.3950791e-12 -3.9398569e-11  8.1000093      12.150014      16.200019      1594.3285    
        40   0             -322.56         0.0016546759  -0.00064244932  0.0030644128   0.0025420643   31.594577     -8.881011e-12   1.7342898e-15  8.1000093      12.150014      16.200019      1594.3285    
        41   0             -322.56         0.0016546759  -0.00064244933  0.0030644128   0.0025420643   31.594577     -2.0053444e-11  3.2885564e-11  8.1000093      12.150014      16.200019      1594.3285    
        42   0             -322.56         0.0016546759  -0.00064244933  0.0030644127   0.0025420643   31.594577      1.5037549e-12 -2.8391118e-11  8.1000093      12.150014      16.200019      1594.3285    
        43   0             -322.56         0.0016546759  -0.00064244932  0.0030644127   0.0025420643   31.594577      1.0169477e-12  1.4182405e-11  8.1000093      12.150014      16.200019      1594.3285    
        44   0             -322.56         0.0016546759  -0.00064244934  0.0030644127   0.0025420643   31.594577      1.6643629e-11 -2.1541153e-11  8.1000093      12.150014      16.200019      1594.3285    
        45   0             -322.56         0.0016546759  -0.00064244933  0.0030644127   0.0025420643   31.594577     -5.5613437e-12  1.3333322e-11  8.1000093      12.150014      16.200019      1594.3285    
        46   0             -322.56         0.0016546759  -0.00064244935  0.0030644127   0.0025420643   31.594577      1.3856411e-11  1.8312912e-11  8.1000093      12.150014      16.200019      1594.3285    
        47   0             -322.56         0.0016546759  -0.00064244934  0.0030644127   0.0025420643   31.594577      1.9164181e-11  1.7617585e-11  8.1000093      12.150014      16.200019      1594.3285    
        48   0             -322.56         0.0016546759  -0.00064244934  0.0030644127   0.0025420643   31.594577     -7.8924573e-12  2.5214277e-11  8.1000093      12.150014      16.200019      1594.3285    
        49   0             -322.56         0.0016546759  -0.00064244934  0.0030644128   0.0025420643   31.594577      7.1277039e-12 -1.0591064e-11  8.1000093      12.150014      16.200019      1594.3285    
        50   0             -322.56         0.0016546759  -0.00064244931  0.0030644127   0.0025420643   31.594577     -9.8706334e-13  3.6664401e-11  8.1000093      12.150014      16.200019      1594.3285    
        51   0             -322.56         0.0016546759  -0.00064244935  0.0030644128   0.0025420643   31.594577      2.3960029e-11 -9.2127139e-12  8.1000093      12.150014      16.200019      1594.3285    
Loop time of 0.007652 on 1 procs for 25 steps with 96 atoms

0.0% CPU use with 1 MPI tasks x 1 OpenMP threads

Minimization stats:
  Stopping criterion = force tolerance
  Energy initial, next-to-last, final = 
     -322.559997273216  -322.559997293653  -322.559997293653
  Force two-norm initial, final = 0.00049225983 9.8654898e-11
  Force max component initial, final = 7.4969343e-05 1.5896229e-11
  Final line search alpha, max atom move = 1 1.5896229e-11
  Iterations, force evaluations = 25 50

MPI task timing breakdown:
Section |  min time  |  avg time  |  max time  |%varavg| %total
---------------------------------------------------------------
Pair    | 0.007153   | 0.007153   | 0.007153   |   0.0 | 93.48
Neigh   | 0          | 0          | 0          |   0.0 |  0.00
Comm    | 0.000131   | 0.000131   | 0.000131   |   0.0 |  1.71
Output  | 0.000251   | 0.000251   | 0.000251   |   0.0 |  3.28
Modify  | 0          | 0          | 0          |   0.0 |  0.00
Other   |            | 0.000117   |            |       |  1.53

Nlocal:             96 ave          96 max          96 min
Histogram: 1 0 0 0 0 0 0 0 0 0
Nghost:            976 ave         976 max         976 min
Histogram: 1 0 0 0 0 0 0 0 0 0
Neighs:           4128 ave        4128 max        4128 min
Histogram: 1 0 0 0 0 0 0 0 0 0

Total # of neighbors = 4128
Ave neighs/atom = 43
Neighbor list builds = 0
Dangerous builds = 0
OMP_NUM_THREADS environment is not set. Defaulting to 1 thread. (src/comm.cpp:98)
  using 1 OpenMP thread(s) per MPI task
Loaded 1 plugins from F:\Lammps\LAMMPS 64-bit 2Aug2023\plugins

The 'box' command has been removed and will be ignored

Reading restart file ...
  restart file = 2 Aug 2023, LAMMPS = 2 Aug 2023
  restoring atom style atomic from restart
  triclinic box = (-0.010004662 -0.015006993 -0.020009324) to (8.0900047 12.135007 16.180009) with tilt (0 0 0)
  1 by 1 by 1 MPI processor grid
  pair style eam/alloy stores no restart info
  96 atoms
  read_restart CPU = 0.000 seconds
Changing box ...
  triclinic box = (-0.010004662 -0.015006993 -0.020009324) to (8.0900047 12.135007 16.180009) with tilt (0.0012150014 0 0)
Neighbor list info ...
  update: every = 1 steps, delay = 0 steps, check = yes
  max neighbors/atom: 2000, page size: 100000
  master list distance cutoff = 7.28721
  ghost atom cutoff = 7.28721
  1 neighbor lists, perpetual/occasional/extra = 1 0 0
  (1) pair eam/alloy, perpetual
      attributes: half, newton on
      pair build: half/nsq/newton
      stencil: none
      bin: none
Setting up cg style minimization ...
  Unit style    : metal
  Current step  : 26
Per MPI rank memory allocation (min/avg/max) = 4.449 | 4.449 | 4.449 Mbytes
   Step          Temp          PotEng         Press           Pxx            Pyy            Pzz            Pxy            Pxz            Pyz             Lx             Ly             Lz           Volume    
        26   0             -322.56         0.0016772389  -0.00062199492  0.0030847994   0.002568912   -31.594576     -3.9694257e-07  1.7606073e-06  8.1000093      12.150014      16.200019      1594.3285    
        27   0             -322.56         0.0016584628  -0.00063876879  0.0030682489   0.0025459081  -31.594578      6.515695e-08  -2.7323213e-08  8.1000093      12.150014      16.200019      1594.3285    
        28   0             -322.56         0.0016555011  -0.00064179417  0.0030652992   0.0025429983  -31.594577     -8.9537322e-08  8.4672589e-08  8.1000093      12.150014      16.200019      1594.3285    
        29   0             -322.56         0.0016548141  -0.00064232074  0.0030645584   0.0025422048  -31.594577     -1.1862308e-08 -2.6532154e-08  8.1000093      12.150014      16.200019      1594.3285    
        30   0             -322.56         0.0016547079  -0.00064242869  0.0030644572   0.0025420952  -31.594577     -7.5766972e-09 -5.0528632e-09  8.1000093      12.150014      16.200019      1594.3285    
        31   0             -322.56         0.0016546914  -0.00064244045  0.0030644348   0.0025420798  -31.594577     -9.5341292e-10 -2.8804103e-09  8.1000093      12.150014      16.200019      1594.3285    
        32   0             -322.56         0.0016546835  -0.00064244401  0.0030644216   0.0025420729  -31.594577     -6.353944e-10  -2.3089367e-10  8.1000093      12.150014      16.200019      1594.3285    
        33   0             -322.56         0.0016546791  -0.00064244685  0.0030644155   0.0025420686  -31.594577     -1.5312821e-10  1.7126473e-10  8.1000093      12.150014      16.200019      1594.3285    
        34   0             -322.56         0.0016546773  -0.00064244826  0.0030644136   0.0025420666  -31.594577     -8.9067278e-11  1.2090323e-10  8.1000093      12.150014      16.200019      1594.3285    
        35   0             -322.56         0.0016546766  -0.00064244885  0.0030644133   0.0025420653  -31.594577     -5.825937e-11   5.5345268e-11  8.1000093      12.150014      16.200019      1594.3285    
        36   0             -322.56         0.0016546762  -0.00064244912  0.003064413    0.0025420647  -31.594577     -4.8172929e-11  1.6015017e-11  8.1000093      12.150014      16.200019      1594.3285    
        37   0             -322.56         0.0016546761  -0.00064244921  0.0030644129   0.0025420645  -31.594577     -2.1259132e-11 -3.9958138e-11  8.1000093      12.150014      16.200019      1594.3285    
        38   0             -322.56         0.001654676   -0.00064244929  0.0030644128   0.0025420644  -31.594577     -1.051549e-11   1.8858128e-11  8.1000093      12.150014      16.200019      1594.3285    
        39   0             -322.56         0.0016546759  -0.00064244934  0.0030644128   0.0025420643  -31.594577      1.6121435e-11  3.3377815e-11  8.1000093      12.150014      16.200019      1594.3285    
        40   0             -322.56         0.0016546759  -0.00064244935  0.0030644128   0.0025420643  -31.594577      2.1139475e-11  3.8047557e-11  8.1000093      12.150014      16.200019      1594.3285    
        41   0             -322.56         0.0016546759  -0.00064244935  0.0030644128   0.0025420643  -31.594577     -2.7683167e-12 -3.7071684e-11  8.1000093      12.150014      16.200019      1594.3285    
        42   0             -322.56         0.0016546759  -0.00064244935  0.0030644127   0.0025420643  -31.594577     -5.9429523e-12  9.617559e-12   8.1000093      12.150014      16.200019      1594.3285    
        43   0             -322.56         0.0016546759  -0.00064244938  0.0030644127   0.0025420643  -31.594577      1.478069e-11  -1.5350394e-11  8.1000093      12.150014      16.200019      1594.3285    
        44   0             -322.56         0.0016546759  -0.00064244938  0.0030644127   0.0025420643  -31.594577      8.3355758e-12 -4.8230182e-12  8.1000093      12.150014      16.200019      1594.3285    
        45   0             -322.56         0.0016546759  -0.00064244932  0.0030644128   0.0025420643  -31.594577      1.3234861e-11  1.8974387e-11  8.1000093      12.150014      16.200019      1594.3285    
        46   0             -322.56         0.0016546759  -0.00064244932  0.0030644128   0.0025420643  -31.594577      2.7585091e-11  2.1853829e-11  8.1000093      12.150014      16.200019      1594.3285    
        47   0             -322.56         0.0016546759  -0.00064244935  0.0030644127   0.0025420643  -31.594577     -6.2485829e-12  2.2390055e-12  8.1000093      12.150014      16.200019      1594.3285    
        48   0             -322.56         0.0016546759  -0.00064244937  0.0030644127   0.0025420642  -31.594577      9.0139816e-14 -2.3487593e-11  8.1000093      12.150014      16.200019      1594.3285    
        49   0             -322.56         0.0016546759  -0.00064244936  0.0030644128   0.0025420643  -31.594577     -1.763272e-12  -1.364523e-11   8.1000093      12.150014      16.200019      1594.3285    
        50   0             -322.56         0.0016546759  -0.00064244937  0.0030644127   0.0025420643  -31.594577      5.8621887e-12 -1.3789563e-11  8.1000093      12.150014      16.200019      1594.3285    
        51   0             -322.56         0.0016546759  -0.00064244934  0.0030644128   0.0025420643  -31.594577     -4.797302e-12   3.9088578e-11  8.1000093      12.150014      16.200019      1594.3285    
Loop time of 0.007534 on 1 procs for 25 steps with 96 atoms

207.4% CPU use with 1 MPI tasks x 1 OpenMP threads

Minimization stats:
  Stopping criterion = force tolerance
  Energy initial, next-to-last, final = 
     -322.559997273215  -322.559997293652  -322.559997293652
  Force two-norm initial, final = 0.00049225232 9.8448424e-11
  Force max component initial, final = 7.4974795e-05 1.6977243e-11
  Final line search alpha, max atom move = 1 1.6977243e-11
  Iterations, force evaluations = 25 50

MPI task timing breakdown:
Section |  min time  |  avg time  |  max time  |%varavg| %total
---------------------------------------------------------------
Pair    | 0.007064   | 0.007064   | 0.007064   |   0.0 | 93.76
Neigh   | 0          | 0          | 0          |   0.0 |  0.00
Comm    | 0.000137   | 0.000137   | 0.000137   |   0.0 |  1.82
Output  | 0.000231   | 0.000231   | 0.000231   |   0.0 |  3.07
Modify  | 0          | 0          | 0          |   0.0 |  0.00
Other   |            | 0.000102   |            |       |  1.35

Nlocal:             96 ave          96 max          96 min
Histogram: 1 0 0 0 0 0 0 0 0 0
Nghost:            976 ave         976 max         976 min
Histogram: 1 0 0 0 0 0 0 0 0 0
Neighs:           4128 ave        4128 max        4128 min
Histogram: 1 0 0 0 0 0 0 0 0 0

Total # of neighbors = 4128
Ave neighs/atom = 43
Neighbor list builds = 0
Dangerous builds = 0
=========================================
Components of the Elastic Constant Tensor
=========================================
Elastic Constant C11all = 113.791319459005 GPa
Elastic Constant C22all = 113.791319458807 GPa
Elastic Constant C33all = 113.791319458994 GPa
Elastic Constant C12all = 61.5503305477596 GPa
Elastic Constant C13all = 61.5503305478007 GPa
Elastic Constant C23all = 61.5503305477581 GPa
Elastic Constant C44all = 31.5945773638123 GPa
Elastic Constant C55all = 31.5945773638018 GPa
Elastic Constant C66all = 31.5945773638129 GPa
Elastic Constant C14all = 3.24824379280985e-12 GPa
Elastic Constant C15all = 7.8166424478843e-12 GPa
Elastic Constant C16all = 1.21131713227744e-12 GPa
Elastic Constant C24all = -8.185366284955e-12 GPa
Elastic Constant C25all = 1.47509477954782e-11 GPa
Elastic Constant C26all = -8.1393628332269e-12 GPa
Elastic Constant C34all = -1.95555399175695e-12 GPa
Elastic Constant C35all = 4.46145933340374e-12 GPa
Elastic Constant C36all = -2.54067097709333e-12 GPa
Elastic Constant C45all = -6.1415972917939e-13 GPa
Elastic Constant C46all = -8.9034567948677e-12 GPa
Elastic Constant C56all = 2.20273011581515e-12 GPa
=========================================
Average properties for a cubic crystal
=========================================
Bulk Modulus = 78.9639935181602 GPa
Shear Modulus 1 = 31.594577363809 GPa
Shear Modulus 2 = 26.1204944555811 GPa
Poisson Ratio = 0.351030862008075
Total wall time: 0:00:00
