LAMMPS (2 Aug 2023 - Update 3)
OMP_NUM_THREADS environment is not set. Defaulting to 1 thread. (src/comm.cpp:98)
  using 1 OpenMP thread(s) per MPI task
Loaded 1 plugins from F:\Lammps\LAMMPS 64-bit 2Aug2023\plugins
Lattice spacing in x,y,z = 4.04 4.04 4.04
Created triclinic box = (0 0 0) to (8.08 12.12 16.16) with tilt (0 0 0)
  1 by 1 by 1 MPI processor grid
Created 96 atoms
  using lattice units in triclinic box = (0 0 0) to (8.08 12.12 16.16) with tilt (0 0 0)
  create_atoms CPU = 0.000 seconds
Neighbor list info ...
  update: every = 1 steps, delay = 0 steps, check = yes
  max neighbors/atom: 2000, page size: 100000
  master list distance cutoff = 7.28721
  ghost atom cutoff = 7.28721
  1 neighbor lists, perpetual/occasional/extra = 1 0 0
  (1) pair eam/alloy, perpetual
      attributes: half, newton on
      pair build: half/nsq/newton
      stencil: none
      bin: none
Setting up cg style minimization ...
  Unit style    : metal
  Current step  : 0
WARNING: Energy due to 3 extra global DOFs will be included in minimizer energies
 (src/min.cpp:228)
Per MPI rank memory allocation (min/avg/max) = 4.452 | 4.452 | 4.452 Mbytes
   Step          Temp          PotEng         Press           Pxx            Pyy            Pzz            Pxy            Pxz            Pyz             Lx             Ly             Lz           Volume    
         0   0             -322.53849      5853.9553      5853.9553      5853.9553      5853.9553     -3.7724158e-11  3.2153346e-11 -2.3463443e-12  8.08           12.12          16.16          1582.5423    
         1   0             -322.54019      5617.5567      5617.5567      5617.5567      5617.5567     -3.4243542e-11 -4.1069777e-11 -3.7024601e-11  8.080808       12.121212      16.161616      1583.0171    
         2   0             -322.54182      5381.1323      5381.1323      5381.1323      5381.1323     -4.0481757e-11  3.1094988e-11 -2.7268669e-11  8.081616       12.122424      16.163232      1583.4921    
         3   0             -322.54338      5144.6807      5144.6807      5144.6807      5144.6807     -2.8018507e-11 -1.3517947e-11  1.2619558e-11  8.082424       12.123636      16.164848      1583.9671    
         4   0             -322.54487      4908.1615      4908.1615      4908.1615      4908.1615      6.6657316e-12  3.6051083e-11  5.6693802e-12  8.083232       12.124848      16.166464      1584.4421    
         5   0             -322.54629      4671.587       4671.587       4671.587       4671.587       1.6596203e-11 -1.0234091e-11 -2.784739e-11   8.08404        12.12606       16.16808       1584.9173    
         6   0             -322.54764      4434.9279      4434.9279      4434.9279      4434.9279     -2.1429751e-11  9.6700348e-12 -1.9634588e-11  8.084848       12.127272      16.169696      1585.3926    
         7   0             -322.54892      4198.254       4198.254       4198.254       4198.254       1.2618452e-12 -1.2415155e-11 -2.847564e-11   8.085656       12.128484      16.171312      1585.868     
         8   0             -322.55013      3961.7998      3961.7998      3961.7998      3961.7998      1.1367219e-11  2.5131225e-11 -9.5170675e-12  8.086464       12.129696      16.172928      1586.3435    
         9   0             -322.55127      3725.5885      3725.5885      3725.5885      3725.5885      2.410081e-12  -1.6891585e-11 -9.8645177e-12  8.087272       12.130908      16.174544      1586.819     
        10   0             -322.55234      3489.6055      3489.6055      3489.6055      3489.6055     -1.4750319e-11  2.2580735e-11 -3.0957459e-12  8.08808        12.13212       16.17616       1587.2947    
        11   0             -322.55334      3253.6093      3253.6093      3253.6093      3253.6093      2.4646517e-12 -3.2362557e-11 -1.7560643e-11  8.088888       12.133332      16.177776      1587.7705    
        12   0             -322.55428      3017.3986      3017.3986      3017.3986      3017.3986      1.619743e-11   3.0252935e-11  3.0196936e-11  8.089696       12.134544      16.179392      1588.2463    
        13   0             -322.55514      2780.9526      2780.9526      2780.9526      2780.9526      2.4491798e-12  4.6674369e-12  1.8879677e-11  8.090504       12.135756      16.181008      1588.7223    
        14   0             -322.55593      2544.2981      2544.2981      2544.2981      2544.2981     -1.523633e-11  -3.4565064e-11 -1.0577287e-11  8.091312       12.136968      16.182624      1589.1983    
        15   0             -322.55665      2307.6749      2307.6749      2307.6749      2307.6749      1.7651506e-11  1.8805427e-11 -5.8605237e-12  8.09212        12.13818       16.18424       1589.6745    
        16   0             -322.5573       2071.1579      2071.1579      2071.1579      2071.1579      2.4357935e-11 -3.4705163e-11 -2.6035864e-11  8.092928       12.139392      16.185856      1590.1507    
        17   0             -322.55788      1834.7355      1834.7355      1834.7355      1834.7355     -2.8348507e-11  4.2005554e-12  5.2587319e-11  8.093736       12.140604      16.187472      1590.627     
        18   0             -322.55839      1598.3877      1598.3877      1598.3877      1598.3877      5.8412859e-12  9.8519296e-12 -2.089168e-11   8.094544       12.141816      16.189088      1591.1035    
        19   0             -322.55883      1362.0625      1362.0625      1362.0625      1362.0625     -1.5646606e-12 -1.5150665e-11 -2.58169e-11    8.095352       12.143028      16.190704      1591.58      
        20   0             -322.5592       1125.7462      1125.7462      1125.7462      1125.7462     -8.9382413e-13 -1.3512107e-11 -1.2373878e-11  8.09616        12.14424       16.19232       1592.0566    
        21   0             -322.5595       889.44216      889.44216      889.44216      889.44216     -6.7016743e-13 -8.3561501e-12 -4.691172e-12   8.096968       12.145452      16.193936      1592.5333    
        22   0             -322.55973      653.14788      653.14788      653.14788      653.14788     -2.6798673e-11  5.0449899e-11 -2.0992294e-11  8.097776       12.146664      16.195552      1593.0101    
        23   0             -322.55989      416.85116      416.85116      416.85116      416.85116      7.5348712e-13  4.2697603e-11  1.6395322e-11  8.098584       12.147876      16.197168      1593.487     
        24   0             -322.55998      180.54532      180.54532      180.54532      180.54532      6.8491012e-12  1.6453187e-11 -6.3985391e-11  8.099392       12.149088      16.198784      1593.964     
        25   0             -322.56         0.0073580099   0.0073580099   0.00735801     0.0073580098  -1.2495706e-11  4.7974586e-12 -3.5464934e-11  8.1000093      12.150014      16.200019      1594.3285    
        26   0             -322.56         9.278171e-09   9.257017e-09   9.29145e-09    9.2860459e-09  1.3527717e-11  1.1045312e-11 -1.5312818e-11  8.1000093      12.150014      16.200019      1594.3285    
Loop time of 0.005246 on 1 procs for 26 steps with 96 atoms

297.8% CPU use with 1 MPI tasks x 1 OpenMP threads

Minimization stats:
  Stopping criterion = force tolerance
  Energy initial, next-to-last, final = 
     -322.538487346493  -322.559998865654  -322.559998865637
  Force two-norm initial, final = 10.015094 1.5957412e-11
  Force max component initial, final = 5.782217 9.2230973e-12
  Final line search alpha, max atom move = 1 9.2230973e-12
  Iterations, force evaluations = 26 28

MPI task timing breakdown:
Section |  min time  |  avg time  |  max time  |%varavg| %total
---------------------------------------------------------------
Pair    | 0.003945   | 0.003945   | 0.003945   |   0.0 | 75.20
Neigh   | 0          | 0          | 0          |   0.0 |  0.00
Comm    | 8e-05      | 8e-05      | 8e-05      |   0.0 |  1.52
Output  | 0.000232   | 0.000232   | 0.000232   |   0.0 |  4.42
Modify  | 0          | 0          | 0          |   0.0 |  0.00
Other   |            | 0.000989   |            |       | 18.85

Nlocal:             96 ave          96 max          96 min
Histogram: 1 0 0 0 0 0 0 0 0 0
Nghost:            976 ave         976 max         976 min
Histogram: 1 0 0 0 0 0 0 0 0 0
Neighs:           4128 ave        4128 max        4128 min
Histogram: 1 0 0 0 0 0 0 0 0 0

Total # of neighbors = 4128
Ave neighs/atom = 43
Neighbor list builds = 0
Dangerous builds = 0
Displacing atoms ...
System init for write_restart ...
OMP_NUM_THREADS environment is not set. Defaulting to 1 thread. (src/comm.cpp:98)
  using 1 OpenMP thread(s) per MPI task
Loaded 1 plugins from F:\Lammps\LAMMPS 64-bit 2Aug2023\plugins

The 'box' command has been removed and will be ignored

Reading restart file ...
  restart file = 2 Aug 2023, LAMMPS = 2 Aug 2023
  restoring atom style atomic from restart
  triclinic box = (-0.010004662 -0.015006993 -0.020009324) to (8.0900047 12.135007 16.180009) with tilt (0 0 0)
  1 by 1 by 1 MPI processor grid
  pair style eam/alloy stores no restart info
  96 atoms
  read_restart CPU = 0.000 seconds
Changing box ...
  triclinic box = (-0.010004662 -0.015006993 -0.020009324) to (8.0899237 12.135007 16.180009) with tilt (0 0 0)
  triclinic box = (-0.010004662 -0.015006993 -0.020009324) to (8.0899237 12.135007 16.180009) with tilt (0 0 0)
  triclinic box = (-0.010004662 -0.015006993 -0.020009324) to (8.0899237 12.135007 16.180009) with tilt (0 0 0)
Neighbor list info ...
  update: every = 1 steps, delay = 0 steps, check = yes
  max neighbors/atom: 2000, page size: 100000
  master list distance cutoff = 7.28721
  ghost atom cutoff = 7.28721
  1 neighbor lists, perpetual/occasional/extra = 1 0 0
  (1) pair eam/alloy, perpetual
      attributes: half, newton on
      pair build: half/nsq/newton
      stencil: none
      bin: none
Setting up cg style minimization ...
  Unit style    : metal
  Current step  : 26
Per MPI rank memory allocation (min/avg/max) = 4.449 | 4.449 | 4.449 Mbytes
   Step          Temp          PotEng         Press           Pxx            Pyy            Pzz            Pxy            Pxz            Pyz             Lx             Ly             Lz           Volume    
        26   0             -322.56         7.896893       11.379734      6.1554694      6.1554759      1.6310493e-06 -3.9771736e-07  1.7606499e-06  8.0999283      12.150014      16.200019      1594.3126    
        27   0             -322.56         7.8968742      11.379717      6.1554528      6.1554529     -3.1038152e-07  6.4435156e-08 -2.6766738e-08  8.0999283      12.150014      16.200019      1594.3126    
        28   0             -322.56         7.8968713      11.379714      6.1554499      6.1554499      6.5518229e-08 -8.9613599e-08  8.4690958e-08  8.0999283      12.150014      16.200019      1594.3126    
        29   0             -322.56         7.8968706      11.379713      6.1554492      6.1554491     -1.0522121e-08 -1.1914031e-08 -2.6477554e-08  8.0999283      12.150014      16.200019      1594.3126    
        30   0             -322.56         7.8968705      11.379713      6.1554491      6.155449      -1.0189363e-08 -7.592765e-09  -5.0574774e-09  8.0999283      12.150014      16.200019      1594.3126    
        31   0             -322.56         7.8968705      11.379713      6.155449       6.155449      -8.6721764e-09 -9.2474741e-10 -2.8775143e-09  8.0999283      12.150014      16.200019      1594.3126    
        32   0             -322.56         7.8968705      11.379713      6.155449       6.155449      -4.5571117e-09 -5.8630217e-10 -1.696009e-10   8.0999283      12.150014      16.200019      1594.3126    
        33   0             -322.56         7.8968705      11.379713      6.155449       6.155449      -2.6639724e-09 -1.493353e-10   1.7976944e-10  8.0999283      12.150014      16.200019      1594.3126    
        34   0             -322.56         7.8968705      11.379713      6.155449       6.155449      -1.4085702e-09 -6.2302399e-11  9.7122418e-11  8.0999283      12.150014      16.200019      1594.3126    
        35   0             -322.56         7.8968705      11.379713      6.155449       6.155449      -7.3842551e-10 -4.9502008e-11  3.1659365e-11  8.0999283      12.150014      16.200019      1594.3126    
        36   0             -322.56         7.8968705      11.379713      6.155449       6.155449      -3.3802199e-10 -2.865129e-11  -6.5513666e-12  8.0999283      12.150014      16.200019      1594.3126    
        37   0             -322.56         7.8968705      11.379713      6.155449       6.155449      -1.1856047e-10 -7.9962301e-12 -1.1011334e-11  8.0999283      12.150014      16.200019      1594.3126    
        38   0             -322.56         7.8968705      11.379713      6.155449       6.155449      -1.4824853e-11  6.7942073e-12  3.8457897e-11  8.0999283      12.150014      16.200019      1594.3126    
        39   0             -322.56         7.8968705      11.379713      6.155449       6.155449      -9.8983438e-12  1.1709761e-11 -3.4863211e-12  8.0999283      12.150014      16.200019      1594.3126    
        40   0             -322.56         7.8968705      11.379713      6.155449       6.155449      -1.0564277e-11 -1.5926749e-11 -4.4594398e-14  8.0999283      12.150014      16.200019      1594.3126    
        41   0             -322.56         7.8968705      11.379713      6.155449       6.155449       5.1705684e-12  8.2948551e-12  4.0262364e-11  8.0999283      12.150014      16.200019      1594.3126    
        42   0             -322.56         7.8968705      11.379713      6.155449       6.155449      -1.2300584e-11 -2.0099925e-11 -5.1617918e-12  8.0999283      12.150014      16.200019      1594.3126    
        43   0             -322.56         7.8968705      11.379713      6.155449       6.155449       5.9550444e-12  1.5283103e-11  1.7935296e-12  8.0999283      12.150014      16.200019      1594.3126    
        44   0             -322.56         7.8968705      11.379713      6.155449       6.155449       6.7813592e-12 -1.1415495e-11 -4.6033239e-12  8.0999283      12.150014      16.200019      1594.3126    
        45   0             -322.56         7.8968705      11.379713      6.155449       6.155449       3.169283e-12   1.2473405e-11  5.538227e-13   8.0999283      12.150014      16.200019      1594.3126    
        46   0             -322.56         7.8968705      11.379713      6.155449       6.155449       5.0206464e-13  2.6335516e-12  7.0999551e-12  8.0999283      12.150014      16.200019      1594.3126    
        47   0             -322.56         7.8968705      11.379713      6.155449       6.155449      -9.8495319e-12  4.7255522e-12 -7.6659885e-12  8.0999283      12.150014      16.200019      1594.3126    
        48   0             -322.56         7.8968705      11.379713      6.155449       6.155449      -4.0025709e-12 -1.7438321e-11  5.7390613e-12  8.0999283      12.150014      16.200019      1594.3126    
        49   0             -322.56         7.8968705      11.379713      6.155449       6.155449      -4.4697699e-12 -2.1708628e-12  1.5961526e-11  8.0999283      12.150014      16.200019      1594.3126    
        50   0             -322.56         7.8968705      11.379713      6.155449       6.155449       4.912563e-12   5.7300484e-12 -2.3687848e-11  8.0999283      12.150014      16.200019      1594.3126    
        51   0             -322.56         7.8968705      11.379713      6.155449       6.155449       1.9071483e-12 -2.5350672e-11 -3.5626151e-11  8.0999283      12.150014      16.200019      1594.3126    
Loop time of 0.00739 on 1 procs for 25 steps with 96 atoms

0.0% CPU use with 1 MPI tasks x 1 OpenMP threads

Minimization stats:
  Stopping criterion = force tolerance
  Energy initial, next-to-last, final = 
     -322.559998788586  -322.559998809024  -322.559998809026
  Force two-norm initial, final = 0.00049226244 6.2912173e-11
  Force max component initial, final = 7.4973292e-05 1.1276976e-11
  Final line search alpha, max atom move = 1 1.1276976e-11
  Iterations, force evaluations = 25 50

MPI task timing breakdown:
Section |  min time  |  avg time  |  max time  |%varavg| %total
---------------------------------------------------------------
Pair    | 0.00692    | 0.00692    | 0.00692    |   0.0 | 93.64
Neigh   | 0          | 0          | 0          |   0.0 |  0.00
Comm    | 0.000133   | 0.000133   | 0.000133   |   0.0 |  1.80
Output  | 0.000213   | 0.000213   | 0.000213   |   0.0 |  2.88
Modify  | 0          | 0          | 0          |   0.0 |  0.00
Other   |            | 0.000124   |            |       |  1.68

Nlocal:             96 ave          96 max          96 min
Histogram: 1 0 0 0 0 0 0 0 0 0
Nghost:            976 ave         976 max         976 min
Histogram: 1 0 0 0 0 0 0 0 0 0
Neighs:           4128 ave        4128 max        4128 min
Histogram: 1 0 0 0 0 0 0 0 0 0

Total # of neighbors = 4128
Ave neighs/atom = 43
Neighbor list builds = 0
Dangerous builds = 0
OMP_NUM_THREADS environment is not set. Defaulting to 1 thread. (src/comm.cpp:98)
  using 1 OpenMP thread(s) per MPI task
Loaded 1 plugins from F:\Lammps\LAMMPS 64-bit 2Aug2023\plugins

The 'box' command has been removed and will be ignored

Reading restart file ...
  restart file = 2 Aug 2023, LAMMPS = 2 Aug 2023
  restoring atom style atomic from restart
  triclinic box = (-0.010004662 -0.015006993 -0.020009324) to (8.0900047 12.135007 16.180009) with tilt (0 0 0)
  1 by 1 by 1 MPI processor grid
  pair style eam/alloy stores no restart info
  96 atoms
  read_restart CPU = 0.000 seconds
Changing box ...
  triclinic box = (-0.010004662 -0.015006993 -0.020009324) to (8.0900857 12.135007 16.180009) with tilt (0 0 0)
  triclinic box = (-0.010004662 -0.015006993 -0.020009324) to (8.0900857 12.135007 16.180009) with tilt (0 0 0)
  triclinic box = (-0.010004662 -0.015006993 -0.020009324) to (8.0900857 12.135007 16.180009) with tilt (0 0 0)
Neighbor list info ...
  update: every = 1 steps, delay = 0 steps, check = yes
  max neighbors/atom: 2000, page size: 100000
  master list distance cutoff = 7.28721
  ghost atom cutoff = 7.28721
  1 neighbor lists, perpetual/occasional/extra = 1 0 0
  (1) pair eam/alloy, perpetual
      attributes: half, newton on
      pair build: half/nsq/newton
      stencil: none
      bin: none
Setting up cg style minimization ...
  Unit style    : metal
  Current step  : 26
Per MPI rank memory allocation (min/avg/max) = 4.449 | 4.449 | 4.449 Mbytes
   Step          Temp          PotEng         Press           Pxx            Pyy            Pzz            Pxy            Pxz            Pyz             Lx             Ly             Lz           Volume    
        26   0             -322.56        -7.8967626     -11.379397     -6.1554484     -6.1554419      1.6312698e-06 -3.9796452e-07  1.761785e-06   8.1000903      12.150014      16.200019      1594.3444    
        27   0             -322.56        -7.8967826     -11.379415     -6.1554661     -6.1554661     -3.1047997e-07  6.4508189e-08 -2.6690017e-08  8.1000903      12.150014      16.200019      1594.3444    
        28   0             -322.56        -7.8967856     -11.379419     -6.1554692     -6.1554691      6.5499584e-08 -8.9587348e-08  8.4717968e-08  8.1000903      12.150014      16.200019      1594.3444    
        29   0             -322.56        -7.8967863     -11.379419     -6.1554699     -6.1554699     -1.0478259e-08 -1.1878736e-08 -2.6462141e-08  8.1000903      12.150014      16.200019      1594.3444    
        30   0             -322.56        -7.8967864     -11.379419     -6.1554701     -6.1554701     -1.0195153e-08 -7.5978895e-09 -5.0720273e-09  8.1000903      12.150014      16.200019      1594.3444    
        31   0             -322.56        -7.8967865     -11.379419     -6.1554701     -6.1554701     -8.68658e-09   -9.3401161e-10 -2.8601462e-09  8.1000903      12.150014      16.200019      1594.3444    
        32   0             -322.56        -7.8967865     -11.379419     -6.1554701     -6.1554701     -4.5698822e-09 -5.8356979e-10 -2.3330128e-10  8.1000903      12.150014      16.200019      1594.3444    
        33   0             -322.56        -7.8967865     -11.379419     -6.1554701     -6.1554701     -2.6755291e-09 -1.4180206e-10  1.2637626e-10  8.1000903      12.150014      16.200019      1594.3444    
        34   0             -322.56        -7.8967865     -11.379419     -6.1554701     -6.1554701     -1.419277e-09  -9.0131838e-11  9.1489621e-11  8.1000903      12.150014      16.200019      1594.3444    
        35   0             -322.56        -7.8967865     -11.379419     -6.1554701     -6.1554701     -7.0980409e-10 -5.9496286e-11  2.563355e-11   8.1000903      12.150014      16.200019      1594.3444    
        36   0             -322.56        -7.8967865     -11.379419     -6.1554701     -6.1554701     -3.4774254e-10 -3.577934e-11   3.4201654e-11  8.1000903      12.150014      16.200019      1594.3444    
        37   0             -322.56        -7.8967865     -11.379419     -6.1554701     -6.1554701     -8.8152419e-11 -6.1819396e-12 -3.5048356e-11  8.1000903      12.150014      16.200019      1594.3444    
        38   0             -322.56        -7.8967865     -11.379419     -6.1554701     -6.1554701     -1.9834643e-11  1.8969524e-11  4.2666636e-12  8.1000903      12.150014      16.200019      1594.3444    
        39   0             -322.56        -7.8967865     -11.379419     -6.1554701     -6.1554701      4.5951941e-12 -2.6335991e-11  2.5425277e-11  8.1000903      12.150014      16.200019      1594.3444    
        40   0             -322.56        -7.8967865     -11.379419     -6.1554701     -6.1554701     -3.75495e-12    1.3209104e-12 -6.0343235e-12  8.1000903      12.150014      16.200019      1594.3444    
        41   0             -322.56        -7.8967865     -11.379419     -6.1554701     -6.1554701     -1.4413151e-11 -1.1914988e-11  6.866207e-12   8.1000903      12.150014      16.200019      1594.3444    
        42   0             -322.56        -7.8967865     -11.379419     -6.1554701     -6.1554701      7.5587109e-12 -9.3953851e-12  8.5274293e-12  8.1000903      12.150014      16.200019      1594.3444    
        43   0             -322.56        -7.8967865     -11.379419     -6.1554701     -6.1554701     -1.3461339e-11  1.1253007e-11 -2.1217625e-11  8.1000903      12.150014      16.200019      1594.3444    
        44   0             -322.56        -7.8967865     -11.379419     -6.1554701     -6.1554701      8.4442794e-12 -3.7740285e-12 -9.5985011e-12  8.1000903      12.150014      16.200019      1594.3444    
        45   0             -322.56        -7.8967865     -11.379419     -6.1554701     -6.1554701     -1.7261613e-11 -8.9807928e-12  4.6947586e-12  8.1000903      12.150014      16.200019      1594.3444    
        46   0             -322.56        -7.8967865     -11.379419     -6.1554701     -6.1554701      7.9143329e-13 -1.7748058e-12 -5.425727e-12   8.1000903      12.150014      16.200019      1594.3444    
        47   0             -322.56        -7.8967865     -11.379419     -6.1554701     -6.1554701     -5.8119792e-12  7.4868223e-12 -8.2909797e-12  8.1000903      12.150014      16.200019      1594.3444    
        48   0             -322.56        -7.8967865     -11.379419     -6.1554701     -6.1554701      1.5863531e-12  1.7610994e-11 -6.3298005e-12  8.1000903      12.150014      16.200019      1594.3444    
        49   0             -322.56        -7.8967865     -11.379419     -6.1554701     -6.1554701      1.7317397e-11 -1.0885319e-11  2.6375516e-12  8.1000903      12.150014      16.200019      1594.3444    
        50   0             -322.56        -7.8967865     -11.379419     -6.1554701     -6.1554701      3.6468688e-12  1.3692987e-11  2.2933923e-11  8.1000903      12.150014      16.200019      1594.3444    
        51   0             -322.56        -7.8967865     -11.379419     -6.1554701     -6.1554701     -1.4148177e-11 -5.2150219e-13 -6.2156072e-12  8.1000903      12.150014      16.200019      1594.3444    
Loop time of 0.008109 on 1 procs for 25 steps with 96 atoms

0.0% CPU use with 1 MPI tasks x 1 OpenMP threads

Minimization stats:
  Stopping criterion = force tolerance
  Energy initial, next-to-last, final = 
     -322.559998788589  -322.559998809024  -322.559998809025
  Force two-norm initial, final = 0.00049224951 6.2835598e-11
  Force max component initial, final = 7.4970799e-05 1.0310567e-11
  Final line search alpha, max atom move = 1 1.0310567e-11
  Iterations, force evaluations = 25 50

MPI task timing breakdown:
Section |  min time  |  avg time  |  max time  |%varavg| %total
---------------------------------------------------------------
Pair    | 0.007581   | 0.007581   | 0.007581   |   0.0 | 93.49
Neigh   | 0          | 0          | 0          |   0.0 |  0.00
Comm    | 0.000149   | 0.000149   | 0.000149   |   0.0 |  1.84
Output  | 0.000243   | 0.000243   | 0.000243   |   0.0 |  3.00
Modify  | 0          | 0          | 0          |   0.0 |  0.00
Other   |            | 0.000136   |            |       |  1.68

Nlocal:             96 ave          96 max          96 min
Histogram: 1 0 0 0 0 0 0 0 0 0
Nghost:            976 ave         976 max         976 min
Histogram: 1 0 0 0 0 0 0 0 0 0
Neighs:           4128 ave        4128 max        4128 min
Histogram: 1 0 0 0 0 0 0 0 0 0

Total # of neighbors = 4128
Ave neighs/atom = 43
Neighbor list builds = 0
Dangerous builds = 0
OMP_NUM_THREADS environment is not set. Defaulting to 1 thread. (src/comm.cpp:98)
  using 1 OpenMP thread(s) per MPI task
Loaded 1 plugins from F:\Lammps\LAMMPS 64-bit 2Aug2023\plugins

The 'box' command has been removed and will be ignored

Reading restart file ...
  restart file = 2 Aug 2023, LAMMPS = 2 Aug 2023
  restoring atom style atomic from restart
  triclinic box = (-0.010004662 -0.015006993 -0.020009324) to (8.0900047 12.135007 16.180009) with tilt (0 0 0)
  1 by 1 by 1 MPI processor grid
  pair style eam/alloy stores no restart info
  96 atoms
  read_restart CPU = 0.000 seconds
Changing box ...
  triclinic box = (-0.010004662 -0.015006993 -0.020009324) to (8.0900047 12.134885 16.180009) with tilt (0 0 0)
  triclinic box = (-0.010004662 -0.015006993 -0.020009324) to (8.0900047 12.134885 16.180009) with tilt (0 0 0)
Neighbor list info ...
  update: every = 1 steps, delay = 0 steps, check = yes
  max neighbors/atom: 2000, page size: 100000
  master list distance cutoff = 7.28721
  ghost atom cutoff = 7.28721
  1 neighbor lists, perpetual/occasional/extra = 1 0 0
  (1) pair eam/alloy, perpetual
      attributes: half, newton on
      pair build: half/nsq/newton
      stencil: none
      bin: none
Setting up cg style minimization ...
  Unit style    : metal
  Current step  : 26
Per MPI rank memory allocation (min/avg/max) = 4.449 | 4.449 | 4.449 Mbytes
   Step          Temp          PotEng         Press           Pxx            Pyy            Pzz            Pxy            Pxz            Pyz             Lx             Ly             Lz           Volume    
        26   0             -322.56         7.896893       6.1554694      11.379734      6.1554759      1.6309923e-06 -3.9758577e-07  1.7608112e-06  8.1000093      12.149892      16.200019      1594.3126    
        27   0             -322.56         7.8968742      6.1554527      11.379717      6.1554529     -3.1043713e-07  6.4522083e-08 -2.6763458e-08  8.1000093      12.149892      16.200019      1594.3126    
        28   0             -322.56         7.8968713      6.1554497      11.379714      6.1554499      6.5484169e-08 -8.9605861e-08  8.4677286e-08  8.1000093      12.149892      16.200019      1594.3126    
        29   0             -322.56         7.8968706      6.1554491      11.379714      6.1554491     -1.0475227e-08 -1.1903734e-08 -2.6493483e-08  8.1000093      12.149892      16.200019      1594.3126    
        30   0             -322.56         7.8968705      6.155449       11.379713      6.155449      -1.0200004e-08 -7.5994237e-09 -5.034615e-09   8.1000093      12.149892      16.200019      1594.3126    
        31   0             -322.56         7.8968705      6.155449       11.379713      6.155449      -8.6631323e-09 -9.1934084e-10 -2.8468201e-09  8.1000093      12.149892      16.200019      1594.3126    
        32   0             -322.56         7.8968705      6.155449       11.379713      6.155449      -4.5613653e-09 -5.9647723e-10 -2.1402216e-10  8.1000093      12.149892      16.200019      1594.3126    
        33   0             -322.56         7.8968705      6.155449       11.379713      6.155449      -2.6757953e-09 -1.6251648e-10  1.3253194e-10  8.1000093      12.149892      16.200019      1594.3126    
        34   0             -322.56         7.8968705      6.155449       11.379713      6.155449      -1.4039575e-09 -7.3070051e-11  1.4486364e-10  8.1000093      12.149892      16.200019      1594.3126    
        35   0             -322.56         7.8968705      6.155449       11.379713      6.155449      -7.383244e-10  -7.4444446e-11  3.9132112e-12  8.1000093      12.149892      16.200019      1594.3126    
        36   0             -322.56         7.8968705      6.155449       11.379713      6.155449      -3.5498062e-10 -4.410669e-11   1.3249654e-11  8.1000093      12.149892      16.200019      1594.3126    
        37   0             -322.56         7.8968705      6.155449       11.379713      6.155449      -1.0792995e-10  1.5603535e-11 -4.6039577e-12  8.1000093      12.149892      16.200019      1594.3126    
        38   0             -322.56         7.8968705      6.155449       11.379713      6.155449      -3.6026624e-11  3.2523386e-11 -1.6052091e-11  8.1000093      12.149892      16.200019      1594.3126    
        39   0             -322.56         7.8968705      6.155449       11.379713      6.155449      -5.6238212e-12 -1.160453e-11   1.4925011e-11  8.1000093      12.149892      16.200019      1594.3126    
        40   0             -322.56         7.8968705      6.155449       11.379713      6.155449      -1.0201675e-11  6.7606435e-12  2.4872004e-11  8.1000093      12.149892      16.200019      1594.3126    
        41   0             -322.56         7.8968705      6.155449       11.379713      6.155449      -2.1839812e-11  9.0308845e-12 -2.8545201e-11  8.1000093      12.149892      16.200019      1594.3126    
        42   0             -322.56         7.8968705      6.155449       11.379713      6.155449       1.0487572e-11 -9.8580724e-12 -3.0731743e-11  8.1000093      12.149892      16.200019      1594.3126    
        43   0             -322.56         7.8968705      6.155449       11.379713      6.155449       8.8872414e-12 -2.5416777e-11  3.6354334e-11  8.1000093      12.149892      16.200019      1594.3126    
        44   0             -322.56         7.8968705      6.155449       11.379713      6.155449      -2.3464549e-12  4.5749575e-12  1.3794526e-11  8.1000093      12.149892      16.200019      1594.3126    
        45   0             -322.56         7.8968705      6.155449       11.379713      6.155449      -1.7770996e-11 -3.5486184e-12  7.5024537e-12  8.1000093      12.149892      16.200019      1594.3126    
        46   0             -322.56         7.8968705      6.155449       11.379713      6.155449       6.8824694e-12 -6.0849204e-12 -1.6333767e-11  8.1000093      12.149892      16.200019      1594.3126    
        47   0             -322.56         7.8968705      6.155449       11.379713      6.155449      -7.3671012e-12 -4.4455531e-12 -1.6380773e-11  8.1000093      12.149892      16.200019      1594.3126    
        48   0             -322.56         7.8968705      6.155449       11.379713      6.155449      -1.1596298e-11 -2.6629184e-12  2.0025276e-11  8.1000093      12.149892      16.200019      1594.3126    
        49   0             -322.56         7.8968705      6.155449       11.379713      6.155449       4.1664392e-12  1.2292018e-11 -6.4769829e-13  8.1000093      12.149892      16.200019      1594.3126    
        50   0             -322.56         7.8968705      6.155449       11.379713      6.155449      -1.7314257e-11  1.3968853e-11  5.8330871e-12  8.1000093      12.149892      16.200019      1594.3126    
        51   0             -322.56         7.8968705      6.155449       11.379713      6.155449       4.9230227e-12 -2.9556199e-11 -1.8975152e-11  8.1000093      12.149892      16.200019      1594.3126    
Loop time of 0.009929 on 1 procs for 25 steps with 96 atoms

157.4% CPU use with 1 MPI tasks x 1 OpenMP threads

Minimization stats:
  Stopping criterion = force tolerance
  Energy initial, next-to-last, final = 
     -322.559998788586  -322.559998809025  -322.559998809024
  Force two-norm initial, final = 0.00049226279 6.3062799e-11
  Force max component initial, final = 7.4973791e-05 1.0470232e-11
  Final line search alpha, max atom move = 1 1.0470232e-11
  Iterations, force evaluations = 25 50

MPI task timing breakdown:
Section |  min time  |  avg time  |  max time  |%varavg| %total
---------------------------------------------------------------
Pair    | 0.00916    | 0.00916    | 0.00916    |   0.0 | 92.26
Neigh   | 0          | 0          | 0          |   0.0 |  0.00
Comm    | 0.000173   | 0.000173   | 0.000173   |   0.0 |  1.74
Output  | 0.000429   | 0.000429   | 0.000429   |   0.0 |  4.32
Modify  | 0          | 0          | 0          |   0.0 |  0.00
Other   |            | 0.000167   |            |       |  1.68

Nlocal:             96 ave          96 max          96 min
Histogram: 1 0 0 0 0 0 0 0 0 0
Nghost:            976 ave         976 max         976 min
Histogram: 1 0 0 0 0 0 0 0 0 0
Neighs:           4128 ave        4128 max        4128 min
Histogram: 1 0 0 0 0 0 0 0 0 0

Total # of neighbors = 4128
Ave neighs/atom = 43
Neighbor list builds = 0
Dangerous builds = 0
OMP_NUM_THREADS environment is not set. Defaulting to 1 thread. (src/comm.cpp:98)
  using 1 OpenMP thread(s) per MPI task
Loaded 1 plugins from F:\Lammps\LAMMPS 64-bit 2Aug2023\plugins

The 'box' command has been removed and will be ignored

Reading restart file ...
  restart file = 2 Aug 2023, LAMMPS = 2 Aug 2023
  restoring atom style atomic from restart
  triclinic box = (-0.010004662 -0.015006993 -0.020009324) to (8.0900047 12.135007 16.180009) with tilt (0 0 0)
  1 by 1 by 1 MPI processor grid
  pair style eam/alloy stores no restart info
  96 atoms
  read_restart CPU = 0.000 seconds
Changing box ...
  triclinic box = (-0.010004662 -0.015006993 -0.020009324) to (8.0900047 12.135128 16.180009) with tilt (0 0 0)
  triclinic box = (-0.010004662 -0.015006993 -0.020009324) to (8.0900047 12.135128 16.180009) with tilt (0 0 0)
Neighbor list info ...
  update: every = 1 steps, delay = 0 steps, check = yes
  max neighbors/atom: 2000, page size: 100000
  master list distance cutoff = 7.28721
  ghost atom cutoff = 7.28721
  1 neighbor lists, perpetual/occasional/extra = 1 0 0
  (1) pair eam/alloy, perpetual
      attributes: half, newton on
      pair build: half/nsq/newton
      stencil: none
      bin: none
Setting up cg style minimization ...
  Unit style    : metal
  Current step  : 26
Per MPI rank memory allocation (min/avg/max) = 4.449 | 4.449 | 4.449 Mbytes
   Step          Temp          PotEng         Press           Pxx            Pyy            Pzz            Pxy            Pxz            Pyz             Lx             Ly             Lz           Volume    
        26   0             -322.56        -7.8967626     -6.1554484     -11.379398     -6.1554419      1.6313174e-06 -3.9810295e-07  1.7616729e-06  8.1000093      12.150135      16.200019      1594.3444    
        27   0             -322.56        -7.8967826     -6.1554663     -11.379415     -6.1554661     -3.1041765e-07  6.4459659e-08 -2.667453e-08   8.1000093      12.150135      16.200019      1594.3444    
        28   0             -322.56        -7.8967856     -6.1554694     -11.379418     -6.1554691      6.5515757e-08 -8.9606678e-08  8.4704366e-08  8.1000093      12.150135      16.200019      1594.3444    
        29   0             -322.56        -7.8967863     -6.15547       -11.379419     -6.1554699     -1.0494977e-08 -1.1894533e-08 -2.6510986e-08  8.1000093      12.150135      16.200019      1594.3444    
        30   0             -322.56        -7.8967864     -6.1554701     -11.379419     -6.1554701     -1.0198057e-08 -7.5990167e-09 -5.0368169e-09  8.1000093      12.150135      16.200019      1594.3444    
        31   0             -322.56        -7.8967865     -6.1554701     -11.379419     -6.1554701     -8.6738892e-09 -9.0730864e-10 -2.8976203e-09  8.1000093      12.150135      16.200019      1594.3444    
        32   0             -322.56        -7.8967865     -6.1554701     -11.379419     -6.1554701     -4.5658518e-09 -6.019856e-10  -2.2886737e-10  8.1000093      12.150135      16.200019      1594.3444    
        33   0             -322.56        -7.8967865     -6.1554701     -11.379419     -6.1554701     -2.6849705e-09 -1.4933902e-10  1.5809941e-10  8.1000093      12.150135      16.200019      1594.3444    
        34   0             -322.56        -7.8967865     -6.1554701     -11.379419     -6.1554701     -1.4149084e-09 -4.6059417e-11  1.0844712e-10  8.1000093      12.150135      16.200019      1594.3444    
        35   0             -322.56        -7.8967865     -6.1554701     -11.379419     -6.1554701     -7.2446827e-10 -4.8194197e-11  7.7803572e-11  8.1000093      12.150135      16.200019      1594.3444    
        36   0             -322.56        -7.8967865     -6.1554701     -11.379419     -6.1554701     -3.6074715e-10 -2.1553547e-11 -3.4093037e-11  8.1000093      12.150135      16.200019      1594.3444    
        37   0             -322.56        -7.8967865     -6.1554701     -11.379419     -6.1554701     -1.0035514e-10 -1.8648661e-11 -8.8049973e-12  8.1000093      12.150135      16.200019      1594.3444    
        38   0             -322.56        -7.8967865     -6.1554701     -11.379419     -6.1554701     -2.4984189e-11 -3.5620833e-12 -7.7920462e-12  8.1000093      12.150135      16.200019      1594.3444    
        39   0             -322.56        -7.8967865     -6.1554701     -11.379419     -6.1554701      4.7416267e-12  2.7487502e-12  2.9639064e-11  8.1000093      12.150135      16.200019      1594.3444    
        40   0             -322.56        -7.8967865     -6.1554701     -11.379419     -6.1554701      8.0886574e-13  1.9613031e-11  3.1101103e-11  8.1000093      12.150135      16.200019      1594.3444    
        41   0             -322.56        -7.8967865     -6.1554701     -11.379419     -6.1554701      3.1831656e-12  5.5844875e-12 -6.9351832e-12  8.1000093      12.150135      16.200019      1594.3444    
        42   0             -322.56        -7.8967865     -6.1554701     -11.379419     -6.1554701      1.1400823e-12  2.9169701e-12  1.099194e-11   8.1000093      12.150135      16.200019      1594.3444    
        43   0             -322.56        -7.8967865     -6.1554701     -11.379419     -6.1554701      1.8753831e-11  2.9105271e-12  7.7455716e-12  8.1000093      12.150135      16.200019      1594.3444    
        44   0             -322.56        -7.8967865     -6.1554701     -11.379419     -6.1554701     -1.3290501e-11 -1.4767322e-12  2.9904956e-11  8.1000093      12.150135      16.200019      1594.3444    
        45   0             -322.56        -7.8967865     -6.1554701     -11.379419     -6.1554701      4.9473297e-12  3.2867815e-12  2.6039938e-11  8.1000093      12.150135      16.200019      1594.3444    
        46   0             -322.56        -7.8967865     -6.1554701     -11.379419     -6.1554701     -4.1907613e-12  1.3559943e-11  8.9139471e-12  8.1000093      12.150135      16.200019      1594.3444    
        47   0             -322.56        -7.8967865     -6.1554701     -11.379419     -6.1554701     -2.4335702e-12  2.5046707e-11  3.8198486e-12  8.1000093      12.150135      16.200019      1594.3444    
        48   0             -322.56        -7.8967865     -6.1554701     -11.379419     -6.1554701     -2.9844357e-12  6.0256596e-12 -3.1267231e-11  8.1000093      12.150135      16.200019      1594.3444    
        49   0             -322.56        -7.8967865     -6.1554701     -11.379419     -6.1554701     -3.6991662e-12 -2.7762695e-12 -8.9154296e-13  8.1000093      12.150135      16.200019      1594.3444    
        50   0             -322.56        -7.8967865     -6.1554701     -11.379419     -6.1554701     -1.4092394e-11  2.886771e-12   3.8408766e-11  8.1000093      12.150135      16.200019      1594.3444    
        51   0             -322.56        -7.8967865     -6.1554701     -11.379419     -6.1554701      6.1431958e-12 -3.5860289e-12  1.0676499e-11  8.1000093      12.150135      16.200019      1594.3444    
Loop time of 0.007842 on 1 procs for 25 steps with 96 atoms

0.0% CPU use with 1 MPI tasks x 1 OpenMP threads

Minimization stats:
  Stopping criterion = force tolerance
  Energy initial, next-to-last, final = 
     -322.559998788588  -322.559998809023  -322.559998809026
  Force two-norm initial, final = 0.00049224916 6.2964666e-11
  Force max component initial, final = 7.4970299e-05 1.1122147e-11
  Final line search alpha, max atom move = 1 1.1122147e-11
  Iterations, force evaluations = 25 50

MPI task timing breakdown:
Section |  min time  |  avg time  |  max time  |%varavg| %total
---------------------------------------------------------------
Pair    | 0.007357   | 0.007357   | 0.007357   |   0.0 | 93.82
Neigh   | 0          | 0          | 0          |   0.0 |  0.00
Comm    | 0.000137   | 0.000137   | 0.000137   |   0.0 |  1.75
Output  | 0.000231   | 0.000231   | 0.000231   |   0.0 |  2.95
Modify  | 0          | 0          | 0          |   0.0 |  0.00
Other   |            | 0.000117   |            |       |  1.49

Nlocal:             96 ave          96 max          96 min
Histogram: 1 0 0 0 0 0 0 0 0 0
Nghost:            976 ave         976 max         976 min
Histogram: 1 0 0 0 0 0 0 0 0 0
Neighs:           4128 ave        4128 max        4128 min
Histogram: 1 0 0 0 0 0 0 0 0 0

Total # of neighbors = 4128
Ave neighs/atom = 43
Neighbor list builds = 0
Dangerous builds = 0
OMP_NUM_THREADS environment is not set. Defaulting to 1 thread. (src/comm.cpp:98)
  using 1 OpenMP thread(s) per MPI task
Loaded 1 plugins from F:\Lammps\LAMMPS 64-bit 2Aug2023\plugins

The 'box' command has been removed and will be ignored

Reading restart file ...
  restart file = 2 Aug 2023, LAMMPS = 2 Aug 2023
  restoring atom style atomic from restart
  triclinic box = (-0.010004662 -0.015006993 -0.020009324) to (8.0900047 12.135007 16.180009) with tilt (0 0 0)
  1 by 1 by 1 MPI processor grid
  pair style eam/alloy stores no restart info
  96 atoms
  read_restart CPU = 0.000 seconds
Changing box ...
  triclinic box = (-0.010004662 -0.015006993 -0.020009324) to (8.0900047 12.135007 16.179847) with tilt (0 0 0)
Neighbor list info ...
  update: every = 1 steps, delay = 0 steps, check = yes
  max neighbors/atom: 2000, page size: 100000
  master list distance cutoff = 7.28721
  ghost atom cutoff = 7.28721
  1 neighbor lists, perpetual/occasional/extra = 1 0 0
  (1) pair eam/alloy, perpetual
      attributes: half, newton on
      pair build: half/nsq/newton
      stencil: none
      bin: none
Setting up cg style minimization ...
  Unit style    : metal
  Current step  : 26
Per MPI rank memory allocation (min/avg/max) = 4.449 | 4.449 | 4.449 Mbytes
   Step          Temp          PotEng         Press           Pxx            Pyy            Pzz            Pxy            Pxz            Pyz             Lx             Ly             Lz           Volume    
        26   0             -322.56         7.896893       6.1554694      6.1554694      11.37974       1.6310126e-06 -3.9766271e-07  1.7607719e-06  8.1000093      12.150014      16.199857      1594.3126    
        27   0             -322.56         7.8968742      6.1554527      6.1554528      11.379717     -3.1037196e-07  6.4454633e-08 -2.6788641e-08  8.1000093      12.150014      16.199857      1594.3126    
        28   0             -322.56         7.8968713      6.1554497      6.1554499      11.379714      6.5517706e-08 -8.9595937e-08  8.4674227e-08  8.1000093      12.150014      16.199857      1594.3126    
        29   0             -322.56         7.8968706      6.1554491      6.1554492      11.379714     -1.0503433e-08 -1.1909213e-08 -2.6474729e-08  8.1000093      12.150014      16.199857      1594.3126    
        30   0             -322.56         7.8968705      6.155449       6.155449       11.379713     -1.0189294e-08 -7.5943342e-09 -5.0450565e-09  8.1000093      12.150014      16.199857      1594.3126    
        31   0             -322.56         7.8968705      6.155449       6.155449       11.379713     -8.670869e-09  -9.3185201e-10 -2.8686007e-09  8.1000093      12.150014      16.199857      1594.3126    
        32   0             -322.56         7.8968705      6.155449       6.155449       11.379713     -4.575064e-09  -5.8559532e-10 -2.4436161e-10  8.1000093      12.150014      16.199857      1594.3126    
        33   0             -322.56         7.8968705      6.155449       6.155449       11.379713     -2.6630415e-09 -1.6033992e-10  1.4019791e-10  8.1000093      12.150014      16.199857      1594.3126    
        34   0             -322.56         7.8968705      6.155449       6.155449       11.379713     -1.4153516e-09 -7.3511664e-11  8.4581924e-11  8.1000093      12.150014      16.199857      1594.3126    
        35   0             -322.56         7.8968705      6.155449       6.155449       11.379713     -7.1773278e-10 -5.2632779e-11  3.4780667e-11  8.1000093      12.150014      16.199857      1594.3126    
        36   0             -322.56         7.8968705      6.155449       6.155449       11.379713     -3.4663728e-10 -2.4814304e-11  5.5350822e-12  8.1000093      12.150014      16.199857      1594.3126    
        37   0             -322.56         7.8968705      6.155449       6.155449       11.379713     -1.0401803e-10 -2.5508236e-11  3.5043463e-12  8.1000093      12.150014      16.199857      1594.3126    
        38   0             -322.56         7.8968705      6.155449       6.155449       11.379713     -5.3215365e-11 -3.1070523e-11 -1.9545239e-11  8.1000093      12.150014      16.199857      1594.3126    
        39   0             -322.56         7.8968705      6.155449       6.155449       11.379713      8.5350988e-12  9.4625561e-13  7.3984204e-12  8.1000093      12.150014      16.199857      1594.3126    
        40   0             -322.56         7.8968705      6.155449       6.155449       11.379713     -1.6491429e-12 -1.311229e-11   1.24927e-11    8.1000093      12.150014      16.199857      1594.3126    
        41   0             -322.56         7.8968705      6.155449       6.155449       11.379713     -3.3819632e-13 -1.5852709e-11  3.5500794e-12  8.1000093      12.150014      16.199857      1594.3126    
        42   0             -322.56         7.8968705      6.155449       6.155449       11.379713      2.2198927e-11  2.727073e-11  -1.7055079e-11  8.1000093      12.150014      16.199857      1594.3126    
        43   0             -322.56         7.8968705      6.155449       6.155449       11.379713     -1.7003953e-11 -1.1772907e-11  2.7695647e-11  8.1000093      12.150014      16.199857      1594.3126    
        44   0             -322.56         7.8968705      6.155449       6.155449       11.379713     -1.2621347e-12  3.6517469e-12 -6.0906789e-12  8.1000093      12.150014      16.199857      1594.3126    
        45   0             -322.56         7.8968705      6.155449       6.155449       11.379713     -3.343611e-12  -1.3431892e-11  1.3639687e-11  8.1000093      12.150014      16.199857      1594.3126    
        46   0             -322.56         7.8968705      6.155449       6.155449       11.379713     -8.6466687e-12  6.5400554e-12  6.0688438e-12  8.1000093      12.150014      16.199857      1594.3126    
        47   0             -322.56         7.8968705      6.155449       6.155449       11.379713      2.5908627e-11 -3.4918316e-11  2.8516834e-11  8.1000093      12.150014      16.199857      1594.3126    
        48   0             -322.56         7.8968705      6.155449       6.155449       11.379713     -6.9661468e-12  1.688372e-11   3.3818625e-12  8.1000093      12.150014      16.199857      1594.3126    
        49   0             -322.56         7.8968705      6.155449       6.155449       11.379713      1.0843202e-12  1.569306e-11   2.1887437e-11  8.1000093      12.150014      16.199857      1594.3126    
        50   0             -322.56         7.8968705      6.155449       6.155449       11.379713      3.0786325e-12 -2.6690915e-11  3.6180444e-11  8.1000093      12.150014      16.199857      1594.3126    
        51   0             -322.56         7.8968705      6.155449       6.155449       11.379713     -7.9528433e-12 -9.8141121e-13 -2.5070743e-11  8.1000093      12.150014      16.199857      1594.3126    
Loop time of 0.009186 on 1 procs for 25 steps with 96 atoms

0.0% CPU use with 1 MPI tasks x 1 OpenMP threads

Minimization stats:
  Stopping criterion = force tolerance
  Energy initial, next-to-last, final = 
     -322.559998788586  -322.559998809023  -322.559998809025
  Force two-norm initial, final = 0.00049226397 6.2949724e-11
  Force max component initial, final = 7.4972832e-05 1.063025e-11
  Final line search alpha, max atom move = 1 1.063025e-11
  Iterations, force evaluations = 25 50

MPI task timing breakdown:
Section |  min time  |  avg time  |  max time  |%varavg| %total
---------------------------------------------------------------
Pair    | 0.008302   | 0.008302   | 0.008302   |   0.0 | 90.38
Neigh   | 0          | 0          | 0          |   0.0 |  0.00
Comm    | 0.000306   | 0.000306   | 0.000306   |   0.0 |  3.33
Output  | 0.000357   | 0.000357   | 0.000357   |   0.0 |  3.89
Modify  | 0          | 0          | 0          |   0.0 |  0.00
Other   |            | 0.000221   |            |       |  2.41

Nlocal:             96 ave          96 max          96 min
Histogram: 1 0 0 0 0 0 0 0 0 0
Nghost:            976 ave         976 max         976 min
Histogram: 1 0 0 0 0 0 0 0 0 0
Neighs:           4128 ave        4128 max        4128 min
Histogram: 1 0 0 0 0 0 0 0 0 0

Total # of neighbors = 4128
Ave neighs/atom = 43
Neighbor list builds = 0
Dangerous builds = 0
OMP_NUM_THREADS environment is not set. Defaulting to 1 thread. (src/comm.cpp:98)
  using 1 OpenMP thread(s) per MPI task
Loaded 1 plugins from F:\Lammps\LAMMPS 64-bit 2Aug2023\plugins

The 'box' command has been removed and will be ignored

Reading restart file ...
  restart file = 2 Aug 2023, LAMMPS = 2 Aug 2023
  restoring atom style atomic from restart
  triclinic box = (-0.010004662 -0.015006993 -0.020009324) to (8.0900047 12.135007 16.180009) with tilt (0 0 0)
  1 by 1 by 1 MPI processor grid
  pair style eam/alloy stores no restart info
  96 atoms
  read_restart CPU = 0.000 seconds
Changing box ...
  triclinic box = (-0.010004662 -0.015006993 -0.020009324) to (8.0900047 12.135007 16.180171) with tilt (0 0 0)
Neighbor list info ...
  update: every = 1 steps, delay = 0 steps, check = yes
  max neighbors/atom: 2000, page size: 100000
  master list distance cutoff = 7.28721
  ghost atom cutoff = 7.28721
  1 neighbor lists, perpetual/occasional/extra = 1 0 0
  (1) pair eam/alloy, perpetual
      attributes: half, newton on
      pair build: half/nsq/newton
      stencil: none
      bin: none
Setting up cg style minimization ...
  Unit style    : metal
  Current step  : 26
Per MPI rank memory allocation (min/avg/max) = 4.449 | 4.449 | 4.449 Mbytes
   Step          Temp          PotEng         Press           Pxx            Pyy            Pzz            Pxy            Pxz            Pyz             Lx             Ly             Lz           Volume    
        26   0             -322.56        -7.8967626     -6.1554484     -6.1554484     -11.379391      1.6312686e-06 -3.980117e-07   1.7617379e-06  8.1000093      12.150014      16.200181      1594.3444    
        27   0             -322.56        -7.8967826     -6.1554663     -6.1554661     -11.379415     -3.1047348e-07  6.4557087e-08 -2.6676275e-08  8.1000093      12.150014      16.200181      1594.3444    
        28   0             -322.56        -7.8967856     -6.1554694     -6.1554692     -11.379418      6.550845e-08  -8.9571843e-08  8.4734096e-08  8.1000093      12.150014      16.200181      1594.3444    
        29   0             -322.56        -7.8967863     -6.15547       -6.1554699     -11.379419     -1.0483942e-08 -1.1871805e-08 -2.6456755e-08  8.1000093      12.150014      16.200181      1594.3444    
        30   0             -322.56        -7.8967864     -6.1554701     -6.1554701     -11.379419     -1.0181308e-08 -7.5814947e-09 -5.0634002e-09  8.1000093      12.150014      16.200181      1594.3444    
        31   0             -322.56        -7.8967865     -6.1554701     -6.1554701     -11.379419     -8.6771979e-09 -9.0339212e-10 -2.8664484e-09  8.1000093      12.150014      16.200181      1594.3444    
        32   0             -322.56        -7.8967865     -6.1554701     -6.1554701     -11.379419     -4.5625327e-09 -5.8125799e-10 -1.6632284e-10  8.1000093      12.150014      16.200181      1594.3444    
        33   0             -322.56        -7.8967865     -6.1554701     -6.1554701     -11.379419     -2.6695393e-09 -1.5160859e-10  1.3438502e-10  8.1000093      12.150014      16.200181      1594.3444    
        34   0             -322.56        -7.8967865     -6.1554701     -6.1554701     -11.379419     -1.4220871e-09 -7.0988348e-11  1.7057165e-10  8.1000093      12.150014      16.200181      1594.3444    
        35   0             -322.56        -7.8967865     -6.1554701     -6.1554701     -11.379419     -7.3686971e-10 -6.6461006e-11  5.5648571e-11  8.1000093      12.150014      16.200181      1594.3444    
        36   0             -322.56        -7.8967865     -6.1554701     -6.1554701     -11.379419     -3.4584937e-10 -5.3307998e-11  2.7626735e-11  8.1000093      12.150014      16.200181      1594.3444    
        37   0             -322.56        -7.8967865     -6.1554701     -6.1554701     -11.379419     -1.1198258e-10  2.2650839e-11 -3.2100035e-11  8.1000093      12.150014      16.200181      1594.3444    
        38   0             -322.56        -7.8967865     -6.1554701     -6.1554701     -11.379419     -7.9770897e-12 -1.0887405e-11 -1.3778016e-11  8.1000093      12.150014      16.200181      1594.3444    
        39   0             -322.56        -7.8967865     -6.1554701     -6.1554701     -11.379419     -9.8911728e-12 -4.3388577e-12  3.1597375e-11  8.1000093      12.150014      16.200181      1594.3444    
        40   0             -322.56        -7.8967865     -6.1554701     -6.1554701     -11.379419      6.436061e-12   1.5143936e-11 -1.9673094e-11  8.1000093      12.150014      16.200181      1594.3444    
        41   0             -322.56        -7.8967865     -6.1554701     -6.1554701     -11.379419     -1.7296478e-11  3.760887e-13   3.3277677e-12  8.1000093      12.150014      16.200181      1594.3444    
        42   0             -322.56        -7.8967865     -6.1554701     -6.1554701     -11.379419      1.9085048e-11 -1.2082127e-11 -2.524532e-11   8.1000093      12.150014      16.200181      1594.3444    
        43   0             -322.56        -7.8967865     -6.1554701     -6.1554701     -11.379419     -2.3941729e-11  7.6327945e-12  1.0322613e-11  8.1000093      12.150014      16.200181      1594.3444    
        44   0             -322.56        -7.8967865     -6.1554701     -6.1554701     -11.379419     -1.3436933e-11  4.1451966e-12  1.8521887e-11  8.1000093      12.150014      16.200181      1594.3444    
        45   0             -322.56        -7.8967865     -6.1554701     -6.1554701     -11.379419     -2.0852698e-11 -1.5696975e-11 -3.270701e-11   8.1000093      12.150014      16.200181      1594.3444    
        46   0             -322.56        -7.8967865     -6.1554701     -6.1554701     -11.379419      2.7438678e-12  6.5897426e-12  8.5667275e-12  8.1000093      12.150014      16.200181      1594.3444    
        47   0             -322.56        -7.8967865     -6.1554701     -6.1554701     -11.379419     -4.6335455e-12 -7.6897451e-12 -1.0024728e-11  8.1000093      12.150014      16.200181      1594.3444    
        48   0             -322.56        -7.8967865     -6.1554701     -6.1554701     -11.379419     -1.2499068e-11  1.5733871e-11 -1.8449522e-11  8.1000093      12.150014      16.200181      1594.3444    
        49   0             -322.56        -7.8967865     -6.1554701     -6.1554701     -11.379419     -1.0382768e-11 -1.5259968e-11 -1.6784855e-11  8.1000093      12.150014      16.200181      1594.3444    
        50   0             -322.56        -7.8967865     -6.1554701     -6.1554701     -11.379419      1.9914832e-11 -1.8943595e-12  1.2304407e-11  8.1000093      12.150014      16.200181      1594.3444    
        51   0             -322.56        -7.8967865     -6.1554701     -6.1554701     -11.379419      1.640045e-11  -1.2550778e-11 -2.6640291e-11  8.1000093      12.150014      16.200181      1594.3444    
Loop time of 0.007358 on 1 procs for 25 steps with 96 atoms

0.0% CPU use with 1 MPI tasks x 1 OpenMP threads

Minimization stats:
  Stopping criterion = force tolerance
  Energy initial, next-to-last, final = 
     -322.559998788589  -322.559998809024  -322.559998809028
  Force two-norm initial, final = 0.00049224798 6.2921801e-11
  Force max component initial, final = 7.4971259e-05 1.0954779e-11
  Final line search alpha, max atom move = 1 1.0954779e-11
  Iterations, force evaluations = 25 50

MPI task timing breakdown:
Section |  min time  |  avg time  |  max time  |%varavg| %total
---------------------------------------------------------------
Pair    | 0.006858   | 0.006858   | 0.006858   |   0.0 | 93.20
Neigh   | 0          | 0          | 0          |   0.0 |  0.00
Comm    | 0.000155   | 0.000155   | 0.000155   |   0.0 |  2.11
Output  | 0.00023    | 0.00023    | 0.00023    |   0.0 |  3.13
Modify  | 0          | 0          | 0          |   0.0 |  0.00
Other   |            | 0.000115   |            |       |  1.56

Nlocal:             96 ave          96 max          96 min
Histogram: 1 0 0 0 0 0 0 0 0 0
Nghost:            976 ave         976 max         976 min
Histogram: 1 0 0 0 0 0 0 0 0 0
Neighs:           4128 ave        4128 max        4128 min
Histogram: 1 0 0 0 0 0 0 0 0 0

Total # of neighbors = 4128
Ave neighs/atom = 43
Neighbor list builds = 0
Dangerous builds = 0
OMP_NUM_THREADS environment is not set. Defaulting to 1 thread. (src/comm.cpp:98)
  using 1 OpenMP thread(s) per MPI task
Loaded 1 plugins from F:\Lammps\LAMMPS 64-bit 2Aug2023\plugins

The 'box' command has been removed and will be ignored

Reading restart file ...
  restart file = 2 Aug 2023, LAMMPS = 2 Aug 2023
  restoring atom style atomic from restart
  triclinic box = (-0.010004662 -0.015006993 -0.020009324) to (8.0900047 12.135007 16.180009) with tilt (0 0 0)
  1 by 1 by 1 MPI processor grid
  pair style eam/alloy stores no restart info
  96 atoms
  read_restart CPU = 0.000 seconds
Changing box ...
  triclinic box = (-0.010004662 -0.015006993 -0.020009324) to (8.0900047 12.135007 16.180009) with tilt (0 0 -0.00016200019)
Neighbor list info ...
  update: every = 1 steps, delay = 0 steps, check = yes
  max neighbors/atom: 2000, page size: 100000
  master list distance cutoff = 7.28721
  ghost atom cutoff = 7.28721
  1 neighbor lists, perpetual/occasional/extra = 1 0 0
  (1) pair eam/alloy, perpetual
      attributes: half, newton on
      pair build: half/nsq/newton
      stencil: none
      bin: none
Setting up cg style minimization ...
  Unit style    : metal
  Current step  : 26
Per MPI rank memory allocation (min/avg/max) = 4.449 | 4.449 | 4.449 Mbytes
   Step          Temp          PotEng         Press           Pxx            Pyy            Pzz            Pxy            Pxz            Pyz             Lx             Ly             Lz           Volume    
        26   0             -322.56         3.9166911e-05  4.5897277e-05  1.4012207e-05  5.759125e-05   1.6312247e-06 -3.9782177e-07  3.1594593      8.1000093      12.150014      16.200019      1594.3285    
        27   0             -322.56         2.0393599e-05  2.9139876e-05 -2.522385e-06   3.4563305e-05 -3.1036384e-07  6.4510735e-08  3.1594575      8.1000093      12.150014      16.200019      1594.3285    
        28   0             -322.56         1.7432639e-05  2.6117254e-05 -5.4689708e-06  3.1649635e-05  6.5550323e-08 -8.9596331e-08  3.1594576      8.1000093      12.150014      16.200019      1594.3285    
        29   0             -322.56         1.6746253e-05  2.5591749e-05 -6.2086262e-06  3.0855637e-05 -1.0499932e-08 -1.1878133e-08  3.1594575      8.1000093      12.150014      16.200019      1594.3285    
        30   0             -322.56         1.6640219e-05  2.5484148e-05 -6.3094255e-06  3.0745934e-05 -1.0185632e-08 -7.6028665e-09  3.1594575      8.1000093      12.150014      16.200019      1594.3285    
        31   0             -322.56         1.6623723e-05  2.5472509e-05 -6.3317858e-06  3.0730447e-05 -8.6644507e-09 -9.0713589e-10  3.1594575      8.1000093      12.150014      16.200019      1594.3285    
        32   0             -322.56         1.6615879e-05  2.5469014e-05 -6.3448972e-06  3.0723522e-05 -4.5682021e-09 -5.9715098e-10  3.1594575      8.1000093      12.150014      16.200019      1594.3285    
        33   0             -322.56         1.6611482e-05  2.5466148e-05 -6.3509368e-06  3.0719235e-05 -2.6660098e-09 -1.7784405e-10  3.1594575      8.1000093      12.150014      16.200019      1594.3285    
        34   0             -322.56         1.6609699e-05  2.5464744e-05 -6.3528336e-06  3.0717185e-05 -1.4210414e-09 -6.9952389e-11  3.1594575      8.1000093      12.150014      16.200019      1594.3285    
        35   0             -322.56         1.6608949e-05  2.5464148e-05 -6.3531849e-06  3.0715884e-05 -7.2765522e-10 -7.3273106e-11  3.1594575      8.1000093      12.150014      16.200019      1594.3285    
        36   0             -322.56         1.6608631e-05  2.5463899e-05 -6.3534336e-06  3.0715427e-05 -3.4332859e-10 -2.0960892e-11  3.1594575      8.1000093      12.150014      16.200019      1594.3285    
        37   0             -322.56         1.6608449e-05  2.5463799e-05 -6.353557e-06   3.0715105e-05 -9.2375483e-11 -5.3329761e-12  3.1594575      8.1000093      12.150014      16.200019      1594.3285    
        38   0             -322.56         1.6608354e-05  2.5463713e-05 -6.3536462e-06  3.0714995e-05 -3.1343861e-11 -2.0702649e-12  3.1594575      8.1000093      12.150014      16.200019      1594.3285    
        39   0             -322.56         1.6608345e-05  2.5463725e-05 -6.3536475e-06  3.0714958e-05 -5.2507068e-12 -1.2099053e-11  3.1594575      8.1000093      12.150014      16.200019      1594.3285    
        40   0             -322.56         1.6608282e-05  2.5463652e-05 -6.3537498e-06  3.0714943e-05  9.9540292e-12 -2.3951215e-12  3.1594575      8.1000093      12.150014      16.200019      1594.3285    
        41   0             -322.56         1.6608296e-05  2.5463673e-05 -6.3537195e-06  3.0714934e-05 -3.1448457e-12 -3.9750306e-12  3.1594575      8.1000093      12.150014      16.200019      1594.3285    
        42   0             -322.56         1.6608263e-05  2.5463628e-05 -6.3537454e-06  3.0714907e-05  6.2687722e-12  3.5220357e-12  3.1594575      8.1000093      12.150014      16.200019      1594.3285    
        43   0             -322.56         1.6608254e-05  2.5463637e-05 -6.3537612e-06  3.0714885e-05  7.0079155e-13 -2.8368207e-11  3.1594575      8.1000093      12.150014      16.200019      1594.3285    
        44   0             -322.56         1.6608282e-05  2.5463657e-05 -6.3537444e-06  3.0714933e-05 -1.2917576e-11  9.7834614e-12  3.1594575      8.1000093      12.150014      16.200019      1594.3285    
        45   0             -322.56         1.6608286e-05  2.5463666e-05 -6.3537424e-06  3.0714936e-05 -3.4342272e-12  1.7571097e-11  3.1594575      8.1000093      12.150014      16.200019      1594.3285    
        46   0             -322.56         1.6608267e-05  2.5463619e-05 -6.3537286e-06  3.071491e-05  -5.6760629e-12 -3.2027276e-12  3.1594575      8.1000093      12.150014      16.200019      1594.3285    
        47   0             -322.56         1.6608299e-05  2.5463676e-05 -6.3536917e-06  3.0714913e-05 -1.9141023e-12  2.8146522e-12  3.1594575      8.1000093      12.150014      16.200019      1594.3285    
        48   0             -322.56         1.6608287e-05  2.5463648e-05 -6.3537174e-06  3.071493e-05  -1.2352758e-11 -7.4175559e-12  3.1594575      8.1000093      12.150014      16.200019      1594.3285    
        49   0             -322.56         1.6608285e-05  2.5463663e-05 -6.3537098e-06  3.0714901e-05  1.650521e-11  -1.2483128e-11  3.1594575      8.1000093      12.150014      16.200019      1594.3285    
        50   0             -322.56         1.6608301e-05  2.5463659e-05 -6.3537233e-06  3.0714968e-05 -8.5454731e-12  8.3829215e-12  3.1594575      8.1000093      12.150014      16.200019      1594.3285    
        51   0             -322.56         1.6608304e-05  2.5463673e-05 -6.3537021e-06  3.0714942e-05  1.4897922e-11 -2.1952165e-12  3.1594575      8.1000093      12.150014      16.200019      1594.3285    
Loop time of 0.007527 on 1 procs for 25 steps with 96 atoms

0.0% CPU use with 1 MPI tasks x 1 OpenMP threads

Minimization stats:
  Stopping criterion = force tolerance
  Energy initial, next-to-last, final = 
     -322.559998829487  -322.559998849925  -322.559998849924
  Force two-norm initial, final = 0.00049225644 8.2899664e-11
  Force max component initial, final = 7.497245e-05 1.4741042e-11
  Final line search alpha, max atom move = 1 1.4741042e-11
  Iterations, force evaluations = 25 50

MPI task timing breakdown:
Section |  min time  |  avg time  |  max time  |%varavg| %total
---------------------------------------------------------------
Pair    | 0.006986   | 0.006986   | 0.006986   |   0.0 | 92.81
Neigh   | 0          | 0          | 0          |   0.0 |  0.00
Comm    | 0.000151   | 0.000151   | 0.000151   |   0.0 |  2.01
Output  | 0.000264   | 0.000264   | 0.000264   |   0.0 |  3.51
Modify  | 0          | 0          | 0          |   0.0 |  0.00
Other   |            | 0.000126   |            |       |  1.67

Nlocal:             96 ave          96 max          96 min
Histogram: 1 0 0 0 0 0 0 0 0 0
Nghost:            976 ave         976 max         976 min
Histogram: 1 0 0 0 0 0 0 0 0 0
Neighs:           4128 ave        4128 max        4128 min
Histogram: 1 0 0 0 0 0 0 0 0 0

Total # of neighbors = 4128
Ave neighs/atom = 43
Neighbor list builds = 0
Dangerous builds = 0
OMP_NUM_THREADS environment is not set. Defaulting to 1 thread. (src/comm.cpp:98)
  using 1 OpenMP thread(s) per MPI task
Loaded 1 plugins from F:\Lammps\LAMMPS 64-bit 2Aug2023\plugins

The 'box' command has been removed and will be ignored

Reading restart file ...
  restart file = 2 Aug 2023, LAMMPS = 2 Aug 2023
  restoring atom style atomic from restart
  triclinic box = (-0.010004662 -0.015006993 -0.020009324) to (8.0900047 12.135007 16.180009) with tilt (0 0 0)
  1 by 1 by 1 MPI processor grid
  pair style eam/alloy stores no restart info
  96 atoms
  read_restart CPU = 0.000 seconds
Changing box ...
  triclinic box = (-0.010004662 -0.015006993 -0.020009324) to (8.0900047 12.135007 16.180009) with tilt (0 0 0.00016200019)
Neighbor list info ...
  update: every = 1 steps, delay = 0 steps, check = yes
  max neighbors/atom: 2000, page size: 100000
  master list distance cutoff = 7.28721
  ghost atom cutoff = 7.28721
  1 neighbor lists, perpetual/occasional/extra = 1 0 0
  (1) pair eam/alloy, perpetual
      attributes: half, newton on
      pair build: half/nsq/newton
      stencil: none
      bin: none
Setting up cg style minimization ...
  Unit style    : metal
  Current step  : 26
Per MPI rank memory allocation (min/avg/max) = 4.449 | 4.449 | 4.449 Mbytes
   Step          Temp          PotEng         Press           Pxx            Pyy            Pzz            Pxy            Pxz            Pyz             Lx             Ly             Lz           Volume    
        26   0             -322.56         3.9167939e-05  4.589843e-05   1.4013119e-05  5.7592268e-05  1.6311017e-06 -3.9789109e-07 -3.1594558      8.1000093      12.150014      16.200019      1594.3285    
        27   0             -322.56         2.0393695e-05  2.9139971e-05 -2.522307e-06   3.4563422e-05 -3.1048316e-07  6.4481662e-08 -3.1594575      8.1000093      12.150014      16.200019      1594.3285    
        28   0             -322.56         1.7432701e-05  2.6117327e-05 -5.4688623e-06  3.1649638e-05  6.5531213e-08 -8.9607556e-08 -3.1594574      8.1000093      12.150014      16.200019      1594.3285    
        29   0             -322.56         1.6746297e-05  2.5591784e-05 -6.2085464e-06  3.0855652e-05 -1.0488255e-08 -1.1864954e-08 -3.1594575      8.1000093      12.150014      16.200019      1594.3285    
        30   0             -322.56         1.6640192e-05  2.5484139e-05 -6.3094686e-06  3.0745906e-05 -1.0196168e-08 -7.5980982e-09 -3.1594575      8.1000093      12.150014      16.200019      1594.3285    
        31   0             -322.56         1.6623728e-05  2.5472505e-05 -6.3317786e-06  3.0730456e-05 -8.6751997e-09 -9.238428e-10  -3.1594575      8.1000093      12.150014      16.200019      1594.3285    
        32   0             -322.56         1.6615862e-05  2.546897e-05  -6.3449103e-06  3.0723528e-05 -4.5521536e-09 -6.2292714e-10 -3.1594575      8.1000093      12.150014      16.200019      1594.3285    
        33   0             -322.56         1.6611463e-05  2.5466157e-05 -6.3509583e-06  3.0719191e-05 -2.662063e-09  -1.3336325e-10 -3.1594575      8.1000093      12.150014      16.200019      1594.3285    
        34   0             -322.56         1.6609732e-05  2.5464754e-05 -6.3527926e-06  3.0717233e-05 -1.4157698e-09 -7.5518825e-11 -3.1594575      8.1000093      12.150014      16.200019      1594.3285    
        35   0             -322.56         1.6608999e-05  2.5464175e-05 -6.3531267e-06  3.0715949e-05 -7.3453414e-10 -6.5393573e-11 -3.1594575      8.1000093      12.150014      16.200019      1594.3285    
        36   0             -322.56         1.6608613e-05  2.5463875e-05 -6.3534571e-06  3.0715422e-05 -3.5065378e-10 -2.4342807e-11 -3.1594575      8.1000093      12.150014      16.200019      1594.3285    
        37   0             -322.56         1.6608452e-05  2.5463788e-05 -6.3536077e-06  3.0715175e-05 -8.7877865e-11  2.5308032e-12 -3.1594575      8.1000093      12.150014      16.200019      1594.3285    
        38   0             -322.56         1.6608377e-05  2.5463722e-05 -6.3535965e-06  3.0715007e-05 -3.1413591e-11  3.968747e-11  -3.1594575      8.1000093      12.150014      16.200019      1594.3285    
        39   0             -322.56         1.6608317e-05  2.5463689e-05 -6.3536853e-06  3.0714948e-05  4.0618018e-12 -1.7471878e-11 -3.1594575      8.1000093      12.150014      16.200019      1594.3285    
        40   0             -322.56         1.6608304e-05  2.5463656e-05 -6.3537153e-06  3.0714971e-05 -9.5356462e-12 -4.5829468e-12 -3.1594575      8.1000093      12.150014      16.200019      1594.3285    
        41   0             -322.56         1.6608316e-05  2.5463669e-05 -6.3537099e-06  3.0714988e-05 -6.1188516e-12 -2.9968585e-11 -3.1594575      8.1000093      12.150014      16.200019      1594.3285    
        42   0             -322.56         1.6608264e-05  2.5463638e-05 -6.3537234e-06  3.0714877e-05 -5.696982e-12  -1.1471965e-11 -3.1594575      8.1000093      12.150014      16.200019      1594.3285    
        43   0             -322.56         1.6608304e-05  2.5463663e-05 -6.3537286e-06  3.0714979e-05  6.0247154e-12 -3.2065825e-11 -3.1594575      8.1000093      12.150014      16.200019      1594.3285    
        44   0             -322.56         1.6608333e-05  2.5463685e-05 -6.3536834e-06  3.0714997e-05 -2.3903616e-11  3.5602363e-12 -3.1594575      8.1000093      12.150014      16.200019      1594.3285    
        45   0             -322.56         1.6608269e-05  2.5463642e-05 -6.3537393e-06  3.0714903e-05 -7.1613226e-12 -1.6666837e-11 -3.1594575      8.1000093      12.150014      16.200019      1594.3285    
        46   0             -322.56         1.6608296e-05  2.5463657e-05 -6.3536971e-06  3.0714929e-05  1.174959e-11   5.4074724e-13 -3.1594575      8.1000093      12.150014      16.200019      1594.3285    
        47   0             -322.56         1.6608273e-05  2.5463632e-05 -6.3537243e-06  3.0714911e-05 -2.5873503e-11  1.9094963e-11 -3.1594575      8.1000093      12.150014      16.200019      1594.3285    
        48   0             -322.56         1.6608292e-05  2.5463673e-05 -6.3537149e-06  3.0714919e-05 -4.1140996e-12  3.2697764e-12 -3.1594575      8.1000093      12.150014      16.200019      1594.3285    
        49   0             -322.56         1.6608311e-05  2.5463674e-05 -6.3537299e-06  3.0714989e-05 -1.2635167e-11 -1.4600297e-11 -3.1594575      8.1000093      12.150014      16.200019      1594.3285    
        50   0             -322.56         1.660831e-05   2.5463684e-05 -6.353716e-06   3.0714962e-05 -3.9885847e-12  1.3628501e-11 -3.1594575      8.1000093      12.150014      16.200019      1594.3285    
        51   0             -322.56         1.6608279e-05  2.5463633e-05 -6.3537483e-06  3.0714953e-05  1.7153704e-12 -1.0116668e-11 -3.1594575      8.1000093      12.150014      16.200019      1594.3285    
Loop time of 0.007482 on 1 procs for 25 steps with 96 atoms

0.0% CPU use with 1 MPI tasks x 1 OpenMP threads

Minimization stats:
  Stopping criterion = force tolerance
  Energy initial, next-to-last, final = 
     -322.559998829485  -322.559998849923  -322.559998849924
  Force two-norm initial, final = 0.00049225568 8.3968822e-11
  Force max component initial, final = 7.4971672e-05 1.6527748e-11
  Final line search alpha, max atom move = 1 1.6527748e-11
  Iterations, force evaluations = 25 50

MPI task timing breakdown:
Section |  min time  |  avg time  |  max time  |%varavg| %total
---------------------------------------------------------------
Pair    | 0.006983   | 0.006983   | 0.006983   |   0.0 | 93.33
Neigh   | 0          | 0          | 0          |   0.0 |  0.00
Comm    | 0.000137   | 0.000137   | 0.000137   |   0.0 |  1.83
Output  | 0.000253   | 0.000253   | 0.000253   |   0.0 |  3.38
Modify  | 0          | 0          | 0          |   0.0 |  0.00
Other   |            | 0.000109   |            |       |  1.46

Nlocal:             96 ave          96 max          96 min
Histogram: 1 0 0 0 0 0 0 0 0 0
Nghost:            976 ave         976 max         976 min
Histogram: 1 0 0 0 0 0 0 0 0 0
Neighs:           4128 ave        4128 max        4128 min
Histogram: 1 0 0 0 0 0 0 0 0 0

Total # of neighbors = 4128
Ave neighs/atom = 43
Neighbor list builds = 0
Dangerous builds = 0
OMP_NUM_THREADS environment is not set. Defaulting to 1 thread. (src/comm.cpp:98)
  using 1 OpenMP thread(s) per MPI task
Loaded 1 plugins from F:\Lammps\LAMMPS 64-bit 2Aug2023\plugins

The 'box' command has been removed and will be ignored

Reading restart file ...
  restart file = 2 Aug 2023, LAMMPS = 2 Aug 2023
  restoring atom style atomic from restart
  triclinic box = (-0.010004662 -0.015006993 -0.020009324) to (8.0900047 12.135007 16.180009) with tilt (0 0 0)
  1 by 1 by 1 MPI processor grid
  pair style eam/alloy stores no restart info
  96 atoms
  read_restart CPU = 0.000 seconds
Changing box ...
  triclinic box = (-0.010004662 -0.015006993 -0.020009324) to (8.0900047 12.135007 16.180009) with tilt (0 -0.00016200019 0)
Neighbor list info ...
  update: every = 1 steps, delay = 0 steps, check = yes
  max neighbors/atom: 2000, page size: 100000
  master list distance cutoff = 7.28721
  ghost atom cutoff = 7.28721
  1 neighbor lists, perpetual/occasional/extra = 1 0 0
  (1) pair eam/alloy, perpetual
      attributes: half, newton on
      pair build: half/nsq/newton
      stencil: none
      bin: none
Setting up cg style minimization ...
  Unit style    : metal
  Current step  : 26
Per MPI rank memory allocation (min/avg/max) = 4.449 | 4.449 | 4.449 Mbytes
   Step          Temp          PotEng         Press           Pxx            Pyy            Pzz            Pxy            Pxz            Pyz             Lx             Ly             Lz           Volume    
        26   0             -322.56         3.9167609e-05  1.4080514e-05  4.5830392e-05  5.7591922e-05  1.6310799e-06  3.1594571      1.7612409e-06  8.1000093      12.150014      16.200019      1594.3285    
        27   0             -322.56         2.0393605e-05 -2.6776192e-06  2.9295111e-05  3.4563322e-05 -3.1046076e-07  3.1594576     -2.6715113e-08  8.1000093      12.150014      16.200019      1594.3285    
        28   0             -322.56         1.7432602e-05 -5.700213e-06   2.6348461e-05  3.1649558e-05  6.5515234e-08  3.1594574      8.4706314e-08  8.1000093      12.150014      16.200019      1594.3285    
        29   0             -322.56         1.6746293e-05 -6.2256735e-06  2.5608896e-05  3.0855655e-05 -1.0473567e-08  3.1594575     -2.6500701e-08  8.1000093      12.150014      16.200019      1594.3285    
        30   0             -322.56         1.6640222e-05 -6.3332973e-06  2.5508008e-05  3.0745956e-05 -1.0184952e-08  3.1594575     -5.074572e-09   8.1000093      12.150014      16.200019      1594.3285    
        31   0             -322.56         1.6623708e-05 -6.3449897e-06  2.5485694e-05  3.073042e-05  -8.6507835e-09  3.1594575     -2.8897182e-09  8.1000093      12.150014      16.200019      1594.3285    
        32   0             -322.56         1.661586e-05  -6.3484863e-06  2.5472563e-05  3.0723502e-05 -4.5544303e-09  3.1594575     -2.3049879e-10  8.1000093      12.150014      16.200019      1594.3285    
        33   0             -322.56         1.6611451e-05 -6.3513323e-06  2.5466486e-05  3.0719199e-05 -2.6812529e-09  3.1594575      1.8626343e-10  8.1000093      12.150014      16.200019      1594.3285    
        34   0             -322.56         1.6609732e-05 -6.3526848e-06  2.5464666e-05  3.0717216e-05 -1.4023955e-09  3.1594575      1.1621618e-10  8.1000093      12.150014      16.200019      1594.3285    
        35   0             -322.56         1.6608944e-05 -6.3533393e-06  2.5464258e-05  3.0715913e-05 -7.2832812e-10  3.1594575      7.5831708e-11  8.1000093      12.150014      16.200019      1594.3285    
        36   0             -322.56         1.6608605e-05 -6.3535949e-06  2.5464002e-05  3.0715408e-05 -3.4774601e-10  3.1594575      6.1759033e-12  8.1000093      12.150014      16.200019      1594.3285    
        37   0             -322.56         1.6608402e-05 -6.3537116e-06  2.5463839e-05  3.0715077e-05 -9.1298147e-11  3.1594575      1.0781475e-11  8.1000093      12.150014      16.200019      1594.3285    
        38   0             -322.56         1.6608328e-05 -6.3537643e-06  2.5463779e-05  3.0714971e-05 -3.1267157e-11  3.1594575     -2.0526766e-11  8.1000093      12.150014      16.200019      1594.3285    
        39   0             -322.56         1.6608278e-05 -6.353822e-06   2.5463705e-05  3.071495e-05   1.3217417e-11  3.1594575     -8.8394579e-12  8.1000093      12.150014      16.200019      1594.3285    
        40   0             -322.56         1.6608299e-05 -6.3537892e-06  2.546374e-05   3.0714945e-05 -9.7797029e-12  3.1594575      2.0325227e-11  8.1000093      12.150014      16.200019      1594.3285    
        41   0             -322.56         1.6608304e-05 -6.3537574e-06  2.5463749e-05  3.071492e-05  -2.1891891e-11  3.1594575      1.7780995e-11  8.1000093      12.150014      16.200019      1594.3285    
[...]
        50   0             -322.56         1.6608255e-05 -6.3538477e-06  2.5463709e-05  3.0714904e-05 -1.5410441e-12 -3.1594575      2.0871226e-11  8.1000093      12.150014      16.200019      1594.3285    
        51   0             -322.56         1.660829e-05  -6.3538063e-06  2.5463739e-05  3.0714936e-05 -1.2202838e-11 -3.1594575     -2.0081204e-11  8.1000093      12.150014      16.200019      1594.3285    
Loop time of 0.007586 on 1 procs for 25 steps with 96 atoms

0.0% CPU use with 1 MPI tasks x 1 OpenMP threads

Minimization stats:
  Stopping criterion = force tolerance
  Energy initial, next-to-last, final = 
     -322.559998829486  -322.559998849923  -322.559998849923
  Force two-norm initial, final = 0.00049225647 8.6517859e-11
  Force max component initial, final = 7.4971793e-05 1.5443737e-11
  Final line search alpha, max atom move = 1 1.5443737e-11
  Iterations, force evaluations = 25 50

MPI task timing breakdown:
Section |  min time  |  avg time  |  max time  |%varavg| %total
---------------------------------------------------------------
Pair    | 0.007087   | 0.007087   | 0.007087   |   0.0 | 93.42
Neigh   | 0          | 0          | 0          |   0.0 |  0.00
Comm    | 0.000128   | 0.000128   | 0.000128   |   0.0 |  1.69
Output  | 0.000251   | 0.000251   | 0.000251   |   0.0 |  3.31
Modify  | 0          | 0          | 0          |   0.0 |  0.00
Other   |            | 0.00012    |            |       |  1.58

Nlocal:             96 ave          96 max          96 min
Histogram: 1 0 0 0 0 0 0 0 0 0
Nghost:            976 ave         976 max         976 min
Histogram: 1 0 0 0 0 0 0 0 0 0
Neighs:           4128 ave        4128 max        4128 min
Histogram: 1 0 0 0 0 0 0 0 0 0

Total # of neighbors = 4128
Ave neighs/atom = 43
Neighbor list builds = 0
Dangerous builds = 0
OMP_NUM_THREADS environment is not set. Defaulting to 1 thread. (src/comm.cpp:98)
  using 1 OpenMP thread(s) per MPI task
Loaded 1 plugins from F:\Lammps\LAMMPS 64-bit 2Aug2023\plugins

The 'box' command has been removed and will be ignored

Reading restart file ...
  restart file = 2 Aug 2023, LAMMPS = 2 Aug 2023
  restoring atom style atomic from restart
  triclinic box = (-0.010004662 -0.015006993 -0.020009324) to (8.0900047 12.135007 16.180009) with tilt (0 0 0)
  1 by 1 by 1 MPI processor grid
  pair style eam/alloy stores no restart info
  96 atoms
  read_restart CPU = 0.000 seconds
Changing box ...
  triclinic box = (-0.010004662 -0.015006993 -0.020009324) to (8.0900047 12.135007 16.180009) with tilt (-0.00012150014 0 0)
Neighbor list info ...
  update: every = 1 steps, delay = 0 steps, check = yes
  max neighbors/atom: 2000, page size: 100000
  master list distance cutoff = 7.28721
  ghost atom cutoff = 7.28721
  1 neighbor lists, perpetual/occasional/extra = 1 0 0
  (1) pair eam/alloy, perpetual
      attributes: half, newton on
      pair build: half/nsq/newton
      stencil: none
      bin: none
Setting up cg style minimization ...
  Unit style    : metal
  Current step  : 26
Per MPI rank memory allocation (min/avg/max) = 4.449 | 4.449 | 4.449 Mbytes
   Step          Temp          PotEng         Press           Pxx            Pyy            Pzz            Pxy            Pxz            Pyz             Lx             Ly             Lz           Volume    
        26   0             -322.56         3.916729e-05   1.4080254e-05  5.1081147e-05  5.234047e-05   3.1594591     -3.9793889e-07  1.7613203e-06  8.1000093      12.150014      16.200019      1594.3285    
        27   0             -322.56         2.0393682e-05 -2.6774859e-06  3.4546262e-05  2.931227e-05   3.1594572      6.4427349e-08 -2.6676138e-08  8.1000093      12.150014      16.200019      1594.3285    
        28   0             -322.56         1.743266e-05  -5.7001753e-06  3.1599661e-05  2.6398494e-05  3.1594576     -8.9606425e-08  8.4702332e-08  8.1000093      12.150014      16.200019      1594.3285    
        29   0             -322.56         1.6746301e-05 -6.2256878e-06  3.0860061e-05  2.560453e-05   3.1594575     -1.1882018e-08 -2.6487457e-08  8.1000093      12.150014      16.200019      1594.3285    
        30   0             -322.56         1.6640211e-05 -6.3333021e-06  3.0759169e-05  2.5494766e-05  3.1594575     -7.603101e-09  -5.0342436e-09  8.1000093      12.150014      16.200019      1594.3285    
        31   0             -322.56         1.6623719e-05 -6.3449447e-06  3.0736827e-05  2.5479273e-05  3.1594575     -8.9703222e-10 -2.8775304e-09  8.1000093      12.150014      16.200019      1594.3285    
        32   0             -322.56         1.6615845e-05 -6.3484974e-06  3.0723668e-05  2.5472363e-05  3.1594575     -6.0908781e-10 -2.0168079e-10  8.1000093      12.150014      16.200019      1594.3285    
        33   0             -322.56         1.6611481e-05 -6.3512959e-06  3.0717669e-05  2.5468071e-05  3.1594575     -1.486877e-10   1.7447224e-10  8.1000093      12.150014      16.200019      1594.3285    
        34   0             -322.56         1.6609725e-05 -6.3526856e-06  3.0715794e-05  2.5466067e-05  3.1594575     -5.8634255e-11  1.0406123e-10  8.1000093      12.150014      16.200019      1594.3285    
        35   0             -322.56         1.6608957e-05 -6.353317e-06   3.0715424e-05  2.5464764e-05  3.1594575     -3.6329329e-11  4.1633707e-11  8.1000093      12.150014      16.200019      1594.3285    
        36   0             -322.56         1.6608592e-05 -6.3535741e-06  3.0715122e-05  2.5464228e-05  3.1594575     -4.2130524e-11  9.6007482e-12  8.1000093      12.150014      16.200019      1594.3285    
        37   0             -322.56         1.6608456e-05 -6.3536603e-06  3.0715059e-05  2.546397e-05   3.1594575     -8.7932342e-13  2.9460927e-11  8.1000093      12.150014      16.200019      1594.3285    
        38   0             -322.56         1.6608359e-05 -6.3537358e-06  3.0714947e-05  2.5463866e-05  3.1594575      3.9405872e-12 -5.7890227e-13  8.1000093      12.150014      16.200019      1594.3285    
        39   0             -322.56         1.6608286e-05 -6.3538054e-06  3.0714898e-05  2.5463766e-05  3.1594575     -4.6899047e-12  4.9350734e-12  8.1000093      12.150014      16.200019      1594.3285    
        40   0             -322.56         1.6608298e-05 -6.3537672e-06  3.0714897e-05  2.5463766e-05  3.1594575     -2.4092994e-11 -4.1600495e-11  8.1000093      12.150014      16.200019      1594.3285    
        41   0             -322.56         1.6608288e-05 -6.3538011e-06  3.071489e-05   2.5463776e-05  3.1594575     -1.5368945e-11  2.6552635e-11  8.1000093      12.150014      16.200019      1594.3285    
        42   0             -322.56         1.6608316e-05 -6.3537894e-06  3.0714932e-05  2.5463805e-05  3.1594575     -1.2424091e-11 -1.3549871e-12  8.1000093      12.150014      16.200019      1594.3285    
        43   0             -322.56         1.660827e-05  -6.3538011e-06  3.0714868e-05  2.5463744e-05  3.1594575     -2.3781033e-11  2.8632753e-11  8.1000093      12.150014      16.200019      1594.3285    
        44   0             -322.56         1.660825e-05  -6.3538331e-06  3.0714861e-05  2.5463721e-05  3.1594575      1.5960086e-12  1.9107902e-11  8.1000093      12.150014      16.200019      1594.3285    
        45   0             -322.56         1.6608273e-05 -6.353815e-06   3.0714894e-05  2.546374e-05   3.1594575     -7.2792401e-12  8.546501e-12   8.1000093      12.150014      16.200019      1594.3285    
        46   0             -322.56         1.6608301e-05 -6.3537825e-06  3.0714908e-05  2.5463778e-05  3.1594575     -6.544524e-12  -9.2312794e-12  8.1000093      12.150014      16.200019      1594.3285    
        47   0             -322.56         1.6608317e-05 -6.3537731e-06  3.071493e-05   2.5463792e-05  3.1594575      1.9846235e-11  3.4131996e-11  8.1000093      12.150014      16.200019      1594.3285    
        48   0             -322.56         1.6608293e-05 -6.353776e-06   3.0714883e-05  2.5463772e-05  3.1594575      2.8104066e-12  2.2169696e-11  8.1000093      12.150014      16.200019      1594.3285    
        49   0             -322.56         1.6608323e-05 -6.3537668e-06  3.0714877e-05  2.5463859e-05  3.1594575      2.3164772e-11  1.5940308e-11  8.1000093      12.150014      16.200019      1594.3285    
        50   0             -322.56         1.660827e-05  -6.353807e-06   3.0714848e-05  2.5463768e-05  3.1594575      2.8914321e-12  2.1868948e-11  8.1000093      12.150014      16.200019      1594.3285    
        51   0             -322.56         1.6608323e-05 -6.3537604e-06  3.0714917e-05  2.5463813e-05  3.1594575     -8.7476742e-12 -7.7544946e-12  8.1000093      12.150014      16.200019      1594.3285    
Loop time of 0.007242 on 1 procs for 25 steps with 96 atoms

0.0% CPU use with 1 MPI tasks x 1 OpenMP threads

Minimization stats:
  Stopping criterion = force tolerance
  Energy initial, next-to-last, final = 
     -322.559998829486  -322.559998849923  -322.559998849923
  Force two-norm initial, final = 0.00049225644 8.5226435e-11
  Force max component initial, final = 7.4971788e-05 1.6794016e-11
  Final line search alpha, max atom move = 1 1.6794016e-11
  Iterations, force evaluations = 25 50

MPI task timing breakdown:
Section |  min time  |  avg time  |  max time  |%varavg| %total
---------------------------------------------------------------
Pair    | 0.006747   | 0.006747   | 0.006747   |   0.0 | 93.16
Neigh   | 0          | 0          | 0          |   0.0 |  0.00
Comm    | 0.000137   | 0.000137   | 0.000137   |   0.0 |  1.89
Output  | 0.000255   | 0.000255   | 0.000255   |   0.0 |  3.52
Modify  | 0          | 0          | 0          |   0.0 |  0.00
Other   |            | 0.000103   |            |       |  1.42

Nlocal:             96 ave          96 max          96 min
Histogram: 1 0 0 0 0 0 0 0 0 0
Nghost:            976 ave         976 max         976 min
Histogram: 1 0 0 0 0 0 0 0 0 0
Neighs:           4128 ave        4128 max        4128 min
Histogram: 1 0 0 0 0 0 0 0 0 0

Total # of neighbors = 4128
Ave neighs/atom = 43
Neighbor list builds = 0
Dangerous builds = 0
OMP_NUM_THREADS environment is not set. Defaulting to 1 thread. (src/comm.cpp:98)
  using 1 OpenMP thread(s) per MPI task
Loaded 1 plugins from F:\Lammps\LAMMPS 64-bit 2Aug2023\plugins

The 'box' command has been removed and will be ignored

Reading restart file ...
  restart file = 2 Aug 2023, LAMMPS = 2 Aug 2023
  restoring atom style atomic from restart
  triclinic box = (-0.010004662 -0.015006993 -0.020009324) to (8.0900047 12.135007 16.180009) with tilt (0 0 0)
  1 by 1 by 1 MPI processor grid
  pair style eam/alloy stores no restart info
  96 atoms
  read_restart CPU = 0.000 seconds
Changing box ...
  triclinic box = (-0.010004662 -0.015006993 -0.020009324) to (8.0900047 12.135007 16.180009) with tilt (0.00012150014 0 0)
Neighbor list info ...
  update: every = 1 steps, delay = 0 steps, check = yes
  max neighbors/atom: 2000, page size: 100000
  master list distance cutoff = 7.28721
  ghost atom cutoff = 7.28721
  1 neighbor lists, perpetual/occasional/extra = 1 0 0
  (1) pair eam/alloy, perpetual
      attributes: half, newton on
      pair build: half/nsq/newton
      stencil: none
      bin: none
Setting up cg style minimization ...
  Unit style    : metal
  Current step  : 26
Per MPI rank memory allocation (min/avg/max) = 4.449 | 4.449 | 4.449 Mbytes
   Step          Temp          PotEng         Press           Pxx            Pyy            Pzz            Pxy            Pxz            Pyz             Lx             Ly             Lz           Volume    
        26   0             -322.56         3.91676e-05    1.4080576e-05  5.1081484e-05  5.2340742e-05 -3.1594559     -3.9774145e-07  1.7611343e-06  8.1000093      12.150014      16.200019      1594.3285    
        27   0             -322.56         2.0393593e-05 -2.6775814e-06  3.4546237e-05  2.9312123e-05 -3.1594578      6.4551291e-08 -2.6804787e-08  8.1000093      12.150014      16.200019      1594.3285    
        28   0             -322.56         1.7432688e-05 -5.700157e-06   3.1599715e-05  2.6398506e-05 -3.1594574     -8.9597727e-08  8.4684058e-08  8.1000093      12.150014      16.200019      1594.3285    
        29   0             -322.56         1.6746273e-05 -6.2256825e-06  3.0860038e-05  2.5604464e-05 -3.1594575     -1.1875362e-08 -2.6488344e-08  8.1000093      12.150014      16.200019      1594.3285    
        30   0             -322.56         1.6640214e-05 -6.333299e-06   3.0759177e-05  2.5494764e-05 -3.1594575     -7.5809153e-09 -5.0740979e-09  8.1000093      12.150014      16.200019      1594.3285    
        31   0             -322.56         1.6623724e-05 -6.344943e-06   3.073687e-05   2.5479244e-05 -3.1594575     -9.5212724e-10 -2.8502048e-09  8.1000093      12.150014      16.200019      1594.3285    
        32   0             -322.56         1.6615883e-05 -6.348432e-06   3.0723722e-05  2.547236e-05  -3.1594575     -5.945864e-10  -2.1620336e-10  8.1000093      12.150014      16.200019      1594.3285    
        33   0             -322.56         1.6611448e-05 -6.3513413e-06  3.0717627e-05  2.5468058e-05 -3.1594575     -1.5800161e-10  1.4574463e-10  8.1000093      12.150014      16.200019      1594.3285    
        34   0             -322.56         1.6609719e-05 -6.3526759e-06  3.0715805e-05  2.5466027e-05 -3.1594575     -7.3837675e-11  9.9336684e-11  8.1000093      12.150014      16.200019      1594.3285    
        35   0             -322.56         1.6608972e-05 -6.3533126e-06  3.0715473e-05  2.5464756e-05 -3.1594575     -5.8556312e-11  3.2107641e-11  8.1000093      12.150014      16.200019      1594.3285    
        36   0             -322.56         1.6608614e-05 -6.3535545e-06  3.0715158e-05  2.5464238e-05 -3.1594575     -4.1597995e-11  2.6127198e-11  8.1000093      12.150014      16.200019      1594.3285    
        37   0             -322.56         1.6608446e-05 -6.3536664e-06  3.0715052e-05  2.5463951e-05 -3.1594575      4.0505301e-12  5.7847871e-12  8.1000093      12.150014      16.200019      1594.3285    
        38   0             -322.56         1.6608373e-05 -6.3537321e-06  3.0714973e-05  2.5463877e-05 -3.1594575     -3.4705645e-12 -3.3262264e-11  8.1000093      12.150014      16.200019      1594.3285    
        39   0             -322.56         1.6608323e-05 -6.3537532e-06  3.071493e-05   2.5463791e-05 -3.1594575     -1.9422661e-11 -1.3727337e-11  8.1000093      12.150014      16.200019      1594.3285    
        40   0             -322.56         1.6608299e-05 -6.3537957e-06  3.0714913e-05  2.546378e-05  -3.1594575      2.5735745e-11  2.2999214e-11  8.1000093      12.150014      16.200019      1594.3285    
        41   0             -322.56         1.6608294e-05 -6.3538029e-06  3.071489e-05   2.5463795e-05 -3.1594575     -9.2308775e-12  5.0931947e-11  8.1000093      12.150014      16.200019      1594.3285    
        42   0             -322.56         1.6608305e-05 -6.3537803e-06  3.0714908e-05  2.5463789e-05 -3.1594575      2.6178218e-12 -2.7825228e-11  8.1000093      12.150014      16.200019      1594.3285    
        43   0             -322.56         1.660829e-05  -6.3537813e-06  3.071489e-05   2.5463762e-05 -3.1594575      2.7605481e-11 -4.3232272e-11  8.1000093      12.150014      16.200019      1594.3285    
        44   0             -322.56         1.6608267e-05 -6.3538e-06     3.0714867e-05  2.5463735e-05 -3.1594575      1.6249857e-11 -1.3474396e-11  8.1000093      12.150014      16.200019      1594.3285    
        45   0             -322.56         1.6608234e-05 -6.3538542e-06  3.071486e-05   2.5463695e-05 -3.1594575      3.9982438e-12 -1.1340361e-11  8.1000093      12.150014      16.200019      1594.3285    
        46   0             -322.56         1.660829e-05  -6.3537985e-06  3.0714901e-05  2.5463767e-05 -3.1594575     -4.5619233e-12 -1.384081e-11   8.1000093      12.150014      16.200019      1594.3285    
        47   0             -322.56         1.6608267e-05 -6.3538024e-06  3.0714898e-05  2.5463706e-05 -3.1594575      3.7584828e-12  2.8936478e-11  8.1000093      12.150014      16.200019      1594.3285    
        48   0             -322.56         1.6608303e-05 -6.3537788e-06  3.071489e-05   2.5463796e-05 -3.1594575     -8.1875855e-12  2.6513849e-11  8.1000093      12.150014      16.200019      1594.3285    
        49   0             -322.56         1.6608316e-05 -6.3537843e-06  3.0714909e-05  2.5463823e-05 -3.1594575      1.3048119e-11 -2.2509781e-11  8.1000093      12.150014      16.200019      1594.3285    
        50   0             -322.56         1.660832e-05  -6.3537783e-06  3.0714949e-05  2.546379e-05  -3.1594575     -3.1009755e-11 -2.6148291e-12  8.1000093      12.150014      16.200019      1594.3285    
        51   0             -322.56         1.6608299e-05 -6.3538091e-06  3.071488e-05   2.5463825e-05 -3.1594575     -1.7452356e-11 -2.6071845e-11  8.1000093      12.150014      16.200019      1594.3285    
Loop time of 0.007891 on 1 procs for 25 steps with 96 atoms

198.0% CPU use with 1 MPI tasks x 1 OpenMP threads

Minimization stats:
  Stopping criterion = force tolerance
  Energy initial, next-to-last, final = 
     -322.559998829486  -322.559998849924  -322.559998849925
  Force two-norm initial, final = 0.00049225569 8.2148307e-11
  Force max component initial, final = 7.4972334e-05 1.3689466e-11
  Final line search alpha, max atom move = 1 1.3689466e-11
  Iterations, force evaluations = 25 50

MPI task timing breakdown:
Section |  min time  |  avg time  |  max time  |%varavg| %total
---------------------------------------------------------------
Pair    | 0.007374   | 0.007374   | 0.007374   |   0.0 | 93.45
Neigh   | 0          | 0          | 0          |   0.0 |  0.00
Comm    | 0.000131   | 0.000131   | 0.000131   |   0.0 |  1.66
Output  | 0.000271   | 0.000271   | 0.000271   |   0.0 |  3.43
Modify  | 0          | 0          | 0          |   0.0 |  0.00
Other   |            | 0.000115   |            |       |  1.46

Nlocal:             96 ave          96 max          96 min
Histogram: 1 0 0 0 0 0 0 0 0 0
Nghost:            976 ave         976 max         976 min
Histogram: 1 0 0 0 0 0 0 0 0 0
Neighs:           4128 ave        4128 max        4128 min
Histogram: 1 0 0 0 0 0 0 0 0 0

Total # of neighbors = 4128
Ave neighs/atom = 43
Neighbor list builds = 0
Dangerous builds = 0
=========================================
Components of the Elastic Constant Tensor
=========================================
Elastic Constant C11all = 113.795662972494 GPa
Elastic Constant C22all = 113.795662972655 GPa
Elastic Constant C33all = 113.795662972558 GPa
Elastic Constant C12all = 61.5545955349302 GPa
Elastic Constant C13all = 61.5545955348555 GPa
Elastic Constant C23all = 61.5545955348525 GPa
Elastic Constant C44all = 31.5945751473189 GPa
Elastic Constant C55all = 31.5945751472609 GPa
Elastic Constant C66all = 31.594575147273 GPa
Elastic Constant C14all = 2.6040081589232e-11 GPa
Elastic Constant C15all = -8.91370757370339e-11 GPa
Elastic Constant C16all = 1.61905203951039e-10 GPa
Elastic Constant C24all = 4.15276261681865e-11 GPa
Elastic Constant C25all = -2.38280091270809e-11 GPa
Elastic Constant C26all = 9.0362291432412e-11 GPa
Elastic Constant C34all = -2.42966011362056e-11 GPa
Elastic Constant C35all = 7.39351126871685e-11 GPa
Elastic Constant C36all = -9.03409881141536e-11 GPa
Elastic Constant C45all = 7.9275874481373e-11 GPa
Elastic Constant C46all = 7.87497556211955e-11 GPa
Elastic Constant C56all = 7.07909636800596e-11 GPa
=========================================
Average properties for a cubic crystal
=========================================
Bulk Modulus = 78.9682846807759 GPa
Shear Modulus 1 = 31.5945751472843 GPa
Shear Modulus 2 = 26.1205337188448 GPa
Poisson Ratio = 0.351037951462528
Total wall time: 0:00:00
