LAMMPS (2 Aug 2023 - Update 3)
OMP_NUM_THREADS environment is not set. Defaulting to 1 thread. (src/comm.cpp:98)
  using 1 OpenMP thread(s) per MPI task
Loaded 1 plugins from F:\Lammps\LAMMPS 64-bit 2Aug2023\plugins
Lattice spacing in x,y,z = 4.04 4.04 4.04
Created triclinic box = (0 0 0) to (8.08 12.12 16.16) with tilt (0 0 0)
  1 by 1 by 1 MPI processor grid
Created 96 atoms
  using lattice units in triclinic box = (0 0 0) to (8.08 12.12 16.16) with tilt (0 0 0)
  create_atoms CPU = 0.000 seconds
Neighbor list info ...
  update: every = 1 steps, delay = 0 steps, check = yes
  max neighbors/atom: 2000, page size: 100000
  master list distance cutoff = 7.28721
  ghost atom cutoff = 7.28721
  1 neighbor lists, perpetual/occasional/extra = 1 0 0
  (1) pair eam/alloy, perpetual
      attributes: half, newton on
      pair build: half/nsq/newton
      stencil: none
      bin: none
Setting up cg style minimization ...
  Unit style    : metal
  Current step  : 0
WARNING: Energy due to 3 extra global DOFs will be included in minimizer energies
 (src/min.cpp:228)
Per MPI rank memory allocation (min/avg/max) = 4.452 | 4.452 | 4.452 Mbytes
   Step          Temp          PotEng         Press           Pxx            Pyy            Pzz            Pxy            Pxz            Pyz             Lx             Ly             Lz           Volume    
         0   0             -322.53849      5853.9553      5853.9553      5853.9553      5853.9553     -3.7724158e-11  3.2153346e-11 -2.3463443e-12  8.08           12.12          16.16          1582.5423    
         1   0             -322.54019      5617.5567      5617.5567      5617.5567      5617.5567     -3.4243542e-11 -4.1069777e-11 -3.7024601e-11  8.080808       12.121212      16.161616      1583.0171    
         2   0             -322.54182      5381.1323      5381.1323      5381.1323      5381.1323     -4.0481757e-11  3.1094988e-11 -2.7268669e-11  8.081616       12.122424      16.163232      1583.4921    
         3   0             -322.54338      5144.6807      5144.6807      5144.6807      5144.6807     -2.8018507e-11 -1.3517947e-11  1.2619558e-11  8.082424       12.123636      16.164848      1583.9671    
         4   0             -322.54487      4908.1615      4908.1615      4908.1615      4908.1615      6.6657316e-12  3.6051083e-11  5.6693802e-12  8.083232       12.124848      16.166464      1584.4421    
         5   0             -322.54629      4671.587       4671.587       4671.587       4671.587       1.6596203e-11 -1.0234091e-11 -2.784739e-11   8.08404        12.12606       16.16808       1584.9173    
         6   0             -322.54764      4434.9279      4434.9279      4434.9279      4434.9279     -2.1429751e-11  9.6700348e-12 -1.9634588e-11  8.084848       12.127272      16.169696      1585.3926    
         7   0             -322.54892      4198.254       4198.254       4198.254       4198.254       1.2618452e-12 -1.2415155e-11 -2.847564e-11   8.085656       12.128484      16.171312      1585.868     
         8   0             -322.55013      3961.7998      3961.7998      3961.7998      3961.7998      1.1367219e-11  2.5131225e-11 -9.5170675e-12  8.086464       12.129696      16.172928      1586.3435    
         9   0             -322.55127      3725.5885      3725.5885      3725.5885      3725.5885      2.410081e-12  -1.6891585e-11 -9.8645177e-12  8.087272       12.130908      16.174544      1586.819     
        10   0             -322.55234      3489.6055      3489.6055      3489.6055      3489.6055     -1.4750319e-11  2.2580735e-11 -3.0957459e-12  8.08808        12.13212       16.17616       1587.2947    
        11   0             -322.55334      3253.6093      3253.6093      3253.6093      3253.6093      2.4646517e-12 -3.2362557e-11 -1.7560643e-11  8.088888       12.133332      16.177776      1587.7705    
        12   0             -322.55428      3017.3986      3017.3986      3017.3986      3017.3986      1.619743e-11   3.0252935e-11  3.0196936e-11  8.089696       12.134544      16.179392      1588.2463    
        13   0             -322.55514      2780.9526      2780.9526      2780.9526      2780.9526      2.4491798e-12  4.6674369e-12  1.8879677e-11  8.090504       12.135756      16.181008      1588.7223    
        14   0             -322.55593      2544.2981      2544.2981      2544.2981      2544.2981     -1.523633e-11  -3.4565064e-11 -1.0577287e-11  8.091312       12.136968      16.182624      1589.1983    
        15   0             -322.55665      2307.6749      2307.6749      2307.6749      2307.6749      1.7651506e-11  1.8805427e-11 -5.8605237e-12  8.09212        12.13818       16.18424       1589.6745    
        16   0             -322.5573       2071.1579      2071.1579      2071.1579      2071.1579      2.4357935e-11 -3.4705163e-11 -2.6035864e-11  8.092928       12.139392      16.185856      1590.1507    
        17   0             -322.55788      1834.7355      1834.7355      1834.7355      1834.7355     -2.8348507e-11  4.2005554e-12  5.2587319e-11  8.093736       12.140604      16.187472      1590.627     
        18   0             -322.55839      1598.3877      1598.3877      1598.3877      1598.3877      5.8412859e-12  9.8519296e-12 -2.089168e-11   8.094544       12.141816      16.189088      1591.1035    
        19   0             -322.55883      1362.0625      1362.0625      1362.0625      1362.0625     -1.5646606e-12 -1.5150665e-11 -2.58169e-11    8.095352       12.143028      16.190704      1591.58      
        20   0             -322.5592       1125.7462      1125.7462      1125.7462      1125.7462     -8.9382413e-13 -1.3512107e-11 -1.2373878e-11  8.09616        12.14424       16.19232       1592.0566    
        21   0             -322.5595       889.44216      889.44216      889.44216      889.44216     -6.7016743e-13 -8.3561501e-12 -4.691172e-12   8.096968       12.145452      16.193936      1592.5333    
        22   0             -322.55973      653.14788      653.14788      653.14788      653.14788     -2.6798673e-11  5.0449899e-11 -2.0992294e-11  8.097776       12.146664      16.195552      1593.0101    
        23   0             -322.55989      416.85116      416.85116      416.85116      416.85116      7.5348712e-13  4.2697603e-11  1.6395322e-11  8.098584       12.147876      16.197168      1593.487     
        24   0             -322.55998      180.54532      180.54532      180.54532      180.54532      6.8491012e-12  1.6453187e-11 -6.3985391e-11  8.099392       12.149088      16.198784      1593.964     
        25   0             -322.56         0.0073580099   0.0073580099   0.00735801     0.0073580098  -1.2495706e-11  4.7974586e-12 -3.5464934e-11  8.1000093      12.150014      16.200019      1594.3285    
        26   0             -322.56         9.278171e-09   9.257017e-09   9.29145e-09    9.2860459e-09  1.3527717e-11  1.1045312e-11 -1.5312818e-11  8.1000093      12.150014      16.200019      1594.3285    
Loop time of 0.005556 on 1 procs for 26 steps with 96 atoms

0.0% CPU use with 1 MPI tasks x 1 OpenMP threads

Minimization stats:
  Stopping criterion = force tolerance
  Energy initial, next-to-last, final = 
     -322.538487346493  -322.559998865654  -322.559998865637
  Force two-norm initial, final = 10.015094 1.5957412e-11
  Force max component initial, final = 5.782217 9.2230973e-12
  Final line search alpha, max atom move = 1 9.2230973e-12
  Iterations, force evaluations = 26 28

MPI task timing breakdown:
Section |  min time  |  avg time  |  max time  |%varavg| %total
---------------------------------------------------------------
Pair    | 0.00415    | 0.00415    | 0.00415    |   0.0 | 74.69
Neigh   | 0          | 0          | 0          |   0.0 |  0.00
Comm    | 8.1e-05    | 8.1e-05    | 8.1e-05    |   0.0 |  1.46
Output  | 0.000247   | 0.000247   | 0.000247   |   0.0 |  4.45
Modify  | 0          | 0          | 0          |   0.0 |  0.00
Other   |            | 0.001078   |            |       | 19.40

Nlocal:             96 ave          96 max          96 min
Histogram: 1 0 0 0 0 0 0 0 0 0
Nghost:            976 ave         976 max         976 min
Histogram: 1 0 0 0 0 0 0 0 0 0
Neighs:           4128 ave        4128 max        4128 min
Histogram: 1 0 0 0 0 0 0 0 0 0

Total # of neighbors = 4128
Ave neighs/atom = 43
Neighbor list builds = 0
Dangerous builds = 0
Displacing atoms ...
System init for write_restart ...
OMP_NUM_THREADS environment is not set. Defaulting to 1 thread. (src/comm.cpp:98)
  using 1 OpenMP thread(s) per MPI task
Loaded 1 plugins from F:\Lammps\LAMMPS 64-bit 2Aug2023\plugins

The 'box' command has been removed and will be ignored

Reading restart file ...
  restart file = 2 Aug 2023, LAMMPS = 2 Aug 2023
  restoring atom style atomic from restart
  triclinic box = (-0.010004662 -0.015006993 -0.020009324) to (8.0900047 12.135007 16.180009) with tilt (0 0 0)
  1 by 1 by 1 MPI processor grid
  pair style eam/alloy stores no restart info
  96 atoms
  read_restart CPU = 0.000 seconds
Changing box ...
  triclinic box = (-0.010004662 -0.015006993 -0.020009324) to (8.0899966 12.135007 16.180009) with tilt (0 0 0)
  triclinic box = (-0.010004662 -0.015006993 -0.020009324) to (8.0899966 12.135007 16.180009) with tilt (0 0 0)
  triclinic box = (-0.010004662 -0.015006993 -0.020009324) to (8.0899966 12.135007 16.180009) with tilt (0 0 0)
Neighbor list info ...
  update: every = 1 steps, delay = 0 steps, check = yes
  max neighbors/atom: 2000, page size: 100000
  master list distance cutoff = 7.28721
  ghost atom cutoff = 7.28721
  1 neighbor lists, perpetual/occasional/extra = 1 0 0
  (1) pair eam/alloy, perpetual
      attributes: half, newton on
      pair build: half/nsq/newton
      stencil: none
      bin: none
Setting up cg style minimization ...
  Unit style    : metal
  Current step  : 26
Per MPI rank memory allocation (min/avg/max) = 4.449 | 4.449 | 4.449 Mbytes
   Step          Temp          PotEng         Press           Pxx            Pyy            Pzz            Pxy            Pxz            Pyz             Lx             Ly             Lz           Volume    
        26   0             -322.56         0.78970718     1.1379799      0.61556757     0.61557408     1.6311392e-06 -3.9782356e-07  1.7612039e-06  8.1000012      12.150014      16.200019      1594.3269    
        27   0             -322.56         0.78968841     1.1379631      0.61555104     0.61555106    -3.104276e-07   6.450119e-08  -2.6710481e-08  8.1000012      12.150014      16.200019      1594.3269    
        28   0             -322.56         0.78968545     1.1379601      0.61554809     0.61554814     6.5509383e-08 -8.9602174e-08  8.4740271e-08  8.1000012      12.150014      16.200019      1594.3269    
        29   0             -322.56         0.78968477     1.1379596      0.61554735     0.61554735    -1.0500082e-08 -1.1883531e-08 -2.6479991e-08  8.1000012      12.150014      16.200019      1594.3269    
        30   0             -322.56         0.78968466     1.1379595      0.61554725     0.61554724    -1.0193968e-08 -7.5779007e-09 -5.0498607e-09  8.1000012      12.150014      16.200019      1594.3269    
        31   0             -322.56         0.78968464     1.1379595      0.61554723     0.61554722    -8.6568378e-09 -8.9413202e-10 -2.8238488e-09  8.1000012      12.150014      16.200019      1594.3269    
        32   0             -322.56         0.78968464     1.1379595      0.61554722     0.61554722    -4.5694548e-09 -5.9210608e-10 -1.9108811e-10  8.1000012      12.150014      16.200019      1594.3269    
        33   0             -322.56         0.78968463     1.1379595      0.61554721     0.61554721    -2.6878102e-09 -1.5326608e-10  1.4714817e-10  8.1000012      12.150014      16.200019      1594.3269    
        34   0             -322.56         0.78968463     1.1379595      0.61554721     0.61554721    -1.4023934e-09 -5.9544876e-11  1.4961543e-10  8.1000012      12.150014      16.200019      1594.3269    
        35   0             -322.56         0.78968463     1.1379595      0.61554721     0.61554721    -7.3984486e-10 -7.7726205e-11  7.2350735e-11  8.1000012      12.150014      16.200019      1594.3269    
        36   0             -322.56         0.78968463     1.1379595      0.61554721     0.61554721    -3.4097204e-10 -4.2212316e-11 -1.026516e-11   8.1000012      12.150014      16.200019      1594.3269    
        37   0             -322.56         0.78968463     1.1379595      0.61554721     0.61554721    -1.0210299e-10 -6.4176811e-12 -6.106821e-11   8.1000012      12.150014      16.200019      1594.3269    
        38   0             -322.56         0.78968463     1.1379595      0.61554721     0.61554721    -1.0051662e-11  5.7176247e-12 -1.4177065e-11  8.1000012      12.150014      16.200019      1594.3269    
        39   0             -322.56         0.78968463     1.1379595      0.61554721     0.61554721    -1.3552137e-11 -1.1027648e-12  1.4117419e-11  8.1000012      12.150014      16.200019      1594.3269    
        40   0             -322.56         0.78968463     1.1379595      0.61554721     0.61554721     6.3524551e-12 -2.0533138e-12  2.0989799e-11  8.1000012      12.150014      16.200019      1594.3269    
        41   0             -322.56         0.78968463     1.1379595      0.61554721     0.61554721    -1.5305861e-12  2.6051032e-12 -1.3247663e-11  8.1000012      12.150014      16.200019      1594.3269    
        42   0             -322.56         0.78968463     1.1379595      0.61554721     0.61554721    -2.4649757e-12  5.3407675e-12  1.347934e-11   8.1000012      12.150014      16.200019      1594.3269    
        43   0             -322.56         0.78968463     1.1379595      0.61554721     0.61554721     1.9489695e-12 -1.8837686e-13  3.7792983e-11  8.1000012      12.150014      16.200019      1594.3269    
        44   0             -322.56         0.78968463     1.1379595      0.61554721     0.61554721     5.0798722e-12  8.2167011e-12 -4.9980954e-12  8.1000012      12.150014      16.200019      1594.3269    
        45   0             -322.56         0.78968463     1.1379595      0.61554721     0.61554721     5.5087152e-13  1.020524e-11   1.3426464e-11  8.1000012      12.150014      16.200019      1594.3269    
        46   0             -322.56         0.78968463     1.1379595      0.61554721     0.61554721     1.1638032e-11  1.4289897e-12  2.388765e-11   8.1000012      12.150014      16.200019      1594.3269    
        47   0             -322.56         0.78968463     1.1379595      0.61554721     0.61554721    -8.712835e-12   1.3002058e-11  1.1790154e-11  8.1000012      12.150014      16.200019      1594.3269    
        48   0             -322.56         0.78968463     1.1379595      0.61554721     0.61554721    -6.3001572e-12  3.0392777e-11  4.3186815e-12  8.1000012      12.150014      16.200019      1594.3269    
        49   0             -322.56         0.78968463     1.1379595      0.61554721     0.61554721     1.280602e-11   1.7617102e-11  1.7793666e-11  8.1000012      12.150014      16.200019      1594.3269    
        50   0             -322.56         0.78968463     1.1379595      0.61554721     0.61554721    -1.5515052e-12 -4.6264753e-12  3.3734015e-11  8.1000012      12.150014      16.200019      1594.3269    
        51   0             -322.56         0.78968463     1.1379595      0.61554721     0.61554721    -1.6072897e-12  5.8891442e-13 -6.7368804e-12  8.1000012      12.150014      16.200019      1594.3269    
Loop time of 0.007283 on 1 procs for 25 steps with 96 atoms

214.5% CPU use with 1 MPI tasks x 1 OpenMP threads

Minimization stats:
  Stopping criterion = force tolerance
  Energy initial, next-to-last, final = 
     -322.559998844642  -322.559998865077  -322.559998865076
  Force two-norm initial, final = 0.0004922567 6.2706549e-11
  Force max component initial, final = 7.4972184e-05 1.0840391e-11
  Final line search alpha, max atom move = 1 1.0840391e-11
  Iterations, force evaluations = 25 50

MPI task timing breakdown:
Section |  min time  |  avg time  |  max time  |%varavg| %total
---------------------------------------------------------------
Pair    | 0.00683    | 0.00683    | 0.00683    |   0.0 | 93.78
Neigh   | 0          | 0          | 0          |   0.0 |  0.00
Comm    | 0.000134   | 0.000134   | 0.000134   |   0.0 |  1.84
Output  | 0.000214   | 0.000214   | 0.000214   |   0.0 |  2.94
Modify  | 0          | 0          | 0          |   0.0 |  0.00
Other   |            | 0.000105   |            |       |  1.44

Nlocal:             96 ave          96 max          96 min
Histogram: 1 0 0 0 0 0 0 0 0 0
Nghost:            976 ave         976 max         976 min
Histogram: 1 0 0 0 0 0 0 0 0 0
Neighs:           4128 ave        4128 max        4128 min
Histogram: 1 0 0 0 0 0 0 0 0 0

Total # of neighbors = 4128
Ave neighs/atom = 43
Neighbor list builds = 0
Dangerous builds = 0
OMP_NUM_THREADS environment is not set. Defaulting to 1 thread. (src/comm.cpp:98)
  using 1 OpenMP thread(s) per MPI task
Loaded 1 plugins from F:\Lammps\LAMMPS 64-bit 2Aug2023\plugins

The 'box' command has been removed and will be ignored

Reading restart file ...
  restart file = 2 Aug 2023, LAMMPS = 2 Aug 2023
  restoring atom style atomic from restart
  triclinic box = (-0.010004662 -0.015006993 -0.020009324) to (8.0900047 12.135007 16.180009) with tilt (0 0 0)
  1 by 1 by 1 MPI processor grid
  pair style eam/alloy stores no restart info
  96 atoms
  read_restart CPU = 0.000 seconds
Changing box ...
  triclinic box = (-0.010004662 -0.015006993 -0.020009324) to (8.0900128 12.135007 16.180009) with tilt (0 0 0)
  triclinic box = (-0.010004662 -0.015006993 -0.020009324) to (8.0900128 12.135007 16.180009) with tilt (0 0 0)
  triclinic box = (-0.010004662 -0.015006993 -0.020009324) to (8.0900128 12.135007 16.180009) with tilt (0 0 0)
Neighbor list info ...
  update: every = 1 steps, delay = 0 steps, check = yes
  max neighbors/atom: 2000, page size: 100000
  master list distance cutoff = 7.28721
  ghost atom cutoff = 7.28721
  1 neighbor lists, perpetual/occasional/extra = 1 0 0
  (1) pair eam/alloy, perpetual
      attributes: half, newton on
      pair build: half/nsq/newton
      stencil: none
      bin: none
Setting up cg style minimization ...
  Unit style    : metal
  Current step  : 26
Per MPI rank memory allocation (min/avg/max) = 4.449 | 4.449 | 4.449 Mbytes
   Step          Temp          PotEng         Press           Pxx            Pyy            Pzz            Pxy            Pxz            Pyz             Lx             Ly             Lz           Volume    
        26   0             -322.56        -0.78966151    -1.1379364     -0.61552733    -0.61552082     1.6311608e-06 -3.9786057e-07  1.7612847e-06  8.1000174      12.150014      16.200019      1594.3301    
        27   0             -322.56        -0.78968028    -1.1379531     -0.61554387    -0.61554385    -3.1041745e-07  6.4470796e-08 -2.6719004e-08  8.1000174      12.150014      16.200019      1594.3301    
        28   0             -322.56        -0.78968324    -1.1379562     -0.61554682    -0.61554677     6.5530715e-08 -8.9574366e-08  8.4692892e-08  8.1000174      12.150014      16.200019      1594.3301    
        29   0             -322.56        -0.78968393    -1.1379567     -0.61554756    -0.61554756    -1.048972e-08  -1.1907822e-08 -2.6474188e-08  8.1000174      12.150014      16.200019      1594.3301    
        30   0             -322.56        -0.78968404    -1.1379568     -0.61554766    -0.61554767    -1.0202113e-08 -7.6050728e-09 -5.0836737e-09  8.1000174      12.150014      16.200019      1594.3301    
        31   0             -322.56        -0.78968405    -1.1379568     -0.61554768    -0.61554769    -8.6717951e-09 -9.1505528e-10 -2.8739449e-09  8.1000174      12.150014      16.200019      1594.3301    
        32   0             -322.56        -0.78968406    -1.1379568     -0.61554769    -0.61554769    -4.5721478e-09 -5.8926187e-10 -2.2848039e-10  8.1000174      12.150014      16.200019      1594.3301    
        33   0             -322.56        -0.78968407    -1.1379568     -0.6155477     -0.6155477     -2.6636711e-09 -1.5108823e-10  1.8240682e-10  8.1000174      12.150014      16.200019      1594.3301    
        34   0             -322.56        -0.78968407    -1.1379568     -0.6155477     -0.6155477     -1.431496e-09  -5.1531317e-11  1.0547678e-10  8.1000174      12.150014      16.200019      1594.3301    
        35   0             -322.56        -0.78968407    -1.1379568     -0.6155477     -0.6155477     -7.2168557e-10 -5.2771042e-11  9.8834417e-12  8.1000174      12.150014      16.200019      1594.3301    
        36   0             -322.56        -0.78968407    -1.1379568     -0.6155477     -0.6155477     -3.4143506e-10 -3.8669336e-11 -8.2838335e-12  8.1000174      12.150014      16.200019      1594.3301    
        37   0             -322.56        -0.78968407    -1.1379568     -0.6155477     -0.6155477     -1.0817979e-10 -4.434304e-12  -1.8467441e-12  8.1000174      12.150014      16.200019      1594.3301    
        38   0             -322.56        -0.78968407    -1.1379568     -0.6155477     -0.6155477     -3.0005005e-11  1.3735916e-11 -3.3705211e-11  8.1000174      12.150014      16.200019      1594.3301    
        39   0             -322.56        -0.78968407    -1.1379568     -0.6155477     -0.6155477     -4.6335872e-12 -4.7714881e-12 -5.7730597e-12  8.1000174      12.150014      16.200019      1594.3301    
        40   0             -322.56        -0.78968407    -1.1379568     -0.6155477     -0.6155477     -2.3534021e-12  1.3859545e-11  3.7537398e-13  8.1000174      12.150014      16.200019      1594.3301    
        41   0             -322.56        -0.78968407    -1.1379568     -0.6155477     -0.6155477      6.5616337e-12 -9.0896368e-12  1.2542687e-11  8.1000174      12.150014      16.200019      1594.3301    
        42   0             -322.56        -0.78968407    -1.1379568     -0.6155477     -0.6155477     -4.9369146e-12 -4.6108809e-12 -2.6161421e-11  8.1000174      12.150014      16.200019      1594.3301    
        43   0             -322.56        -0.78968407    -1.1379568     -0.6155477     -0.6155477     -3.9362829e-12 -3.2572416e-11  2.6077599e-11  8.1000174      12.150014      16.200019      1594.3301    
        44   0             -322.56        -0.78968407    -1.1379568     -0.6155477     -0.6155477     -1.9650036e-11 -2.0642821e-11 -3.9441057e-12  8.1000174      12.150014      16.200019      1594.3301    
        45   0             -322.56        -0.78968407    -1.1379568     -0.6155477     -0.6155477      1.3454487e-11 -3.8929034e-11 -8.025151e-12   8.1000174      12.150014      16.200019      1594.3301    
        46   0             -322.56        -0.78968407    -1.1379568     -0.6155477     -0.6155477      1.7519771e-11 -2.3586697e-11 -4.3887423e-12  8.1000174      12.150014      16.200019      1594.3301    
        47   0             -322.56        -0.78968407    -1.1379568     -0.6155477     -0.6155477      6.3663885e-12  8.4268118e-12 -4.8425947e-12  8.1000174      12.150014      16.200019      1594.3301    
        48   0             -322.56        -0.78968407    -1.1379568     -0.6155477     -0.6155477     -7.0392872e-12  1.5318354e-11  8.9848867e-12  8.1000174      12.150014      16.200019      1594.3301    
        49   0             -322.56        -0.78968407    -1.1379568     -0.6155477     -0.6155477     -6.2408737e-12  2.7923626e-11  1.8254234e-11  8.1000174      12.150014      16.200019      1594.3301    
        50   0             -322.56        -0.78968407    -1.1379568     -0.6155477     -0.6155477      1.6634195e-11  7.9080302e-12  2.0935425e-11  8.1000174      12.150014      16.200019      1594.3301    
        51   0             -322.56        -0.78968407    -1.1379568     -0.6155477     -0.6155477     -1.6927063e-11 -1.3995451e-11 -4.2512304e-11  8.1000174      12.150014      16.200019      1594.3301    
Loop time of 0.007518 on 1 procs for 25 steps with 96 atoms

207.8% CPU use with 1 MPI tasks x 1 OpenMP threads

Minimization stats:
  Stopping criterion = force tolerance
  Energy initial, next-to-last, final = 
      -322.55999884464  -322.559998865076  -322.559998865079
  Force two-norm initial, final = 0.00049225542 6.2684762e-11
  Force max component initial, final = 7.4971938e-05 1.0726269e-11
  Final line search alpha, max atom move = 1 1.0726269e-11
  Iterations, force evaluations = 25 50

MPI task timing breakdown:
Section |  min time  |  avg time  |  max time  |%varavg| %total
---------------------------------------------------------------
Pair    | 0.007068   | 0.007068   | 0.007068   |   0.0 | 94.01
Neigh   | 0          | 0          | 0          |   0.0 |  0.00
Comm    | 0.000136   | 0.000136   | 0.000136   |   0.0 |  1.81
Output  | 0.000212   | 0.000212   | 0.000212   |   0.0 |  2.82
Modify  | 0          | 0          | 0          |   0.0 |  0.00
Other   |            | 0.000102   |            |       |  1.36

Nlocal:             96 ave          96 max          96 min
Histogram: 1 0 0 0 0 0 0 0 0 0
Nghost:            976 ave         976 max         976 min
Histogram: 1 0 0 0 0 0 0 0 0 0
Neighs:           4128 ave        4128 max        4128 min
Histogram: 1 0 0 0 0 0 0 0 0 0

Total # of neighbors = 4128
Ave neighs/atom = 43
Neighbor list builds = 0
Dangerous builds = 0
OMP_NUM_THREADS environment is not set. Defaulting to 1 thread. (src/comm.cpp:98)
  using 1 OpenMP thread(s) per MPI task
Loaded 1 plugins from F:\Lammps\LAMMPS 64-bit 2Aug2023\plugins

The 'box' command has been removed and will be ignored

Reading restart file ...
  restart file = 2 Aug 2023, LAMMPS = 2 Aug 2023
  restoring atom style atomic from restart
  triclinic box = (-0.010004662 -0.015006993 -0.020009324) to (8.0900047 12.135007 16.180009) with tilt (0 0 0)
  1 by 1 by 1 MPI processor grid
  pair style eam/alloy stores no restart info
  96 atoms
  read_restart CPU = 0.000 seconds
Changing box ...
  triclinic box = (-0.010004662 -0.015006993 -0.020009324) to (8.0900047 12.134995 16.180009) with tilt (0 0 0)
  triclinic box = (-0.010004662 -0.015006993 -0.020009324) to (8.0900047 12.134995 16.180009) with tilt (0 0 0)
Neighbor list info ...
  update: every = 1 steps, delay = 0 steps, check = yes
  max neighbors/atom: 2000, page size: 100000
  master list distance cutoff = 7.28721
  ghost atom cutoff = 7.28721
  1 neighbor lists, perpetual/occasional/extra = 1 0 0
  (1) pair eam/alloy, perpetual
      attributes: half, newton on
      pair build: half/nsq/newton
      stencil: none
      bin: none
Setting up cg style minimization ...
  Unit style    : metal
  Current step  : 26
Per MPI rank memory allocation (min/avg/max) = 4.449 | 4.449 | 4.449 Mbytes
   Step          Temp          PotEng         Press           Pxx            Pyy            Pzz            Pxy            Pxz            Pyz             Lx             Ly             Lz           Volume    
        26   0             -322.56         0.78970718     0.61556764     1.1379798      0.61557408     1.6311379e-06 -3.9782019e-07  1.76119e-06    8.1000093      12.150002      16.200019      1594.3269    
        27   0             -322.56         0.78968841     0.61555088     1.1379633      0.61555106    -3.1042733e-07  6.4517477e-08 -2.6766197e-08  8.1000093      12.150002      16.200019      1594.3269    
        28   0             -322.56         0.78968545     0.61554786     1.1379603      0.61554814     6.552753e-08  -8.9608625e-08  8.4733055e-08  8.1000093      12.150002      16.200019      1594.3269    
        29   0             -322.56         0.78968477     0.61554734     1.1379596      0.61554735    -1.0493729e-08 -1.1881821e-08 -2.6456599e-08  8.1000093      12.150002      16.200019      1594.3269    
        30   0             -322.56         0.78968466     0.61554723     1.1379595      0.61554724    -1.0211244e-08 -7.5778285e-09 -5.0631195e-09  8.1000093      12.150002      16.200019      1594.3269    
        31   0             -322.56         0.78968464     0.61554722     1.1379595      0.61554722    -8.6693301e-09 -9.2616991e-10 -2.8441461e-09  8.1000093      12.150002      16.200019      1594.3269    
        32   0             -322.56         0.78968464     0.61554721     1.1379595      0.61554722    -4.5499826e-09 -6.0722113e-10 -2.0105532e-10  8.1000093      12.150002      16.200019      1594.3269    
        33   0             -322.56         0.78968463     0.61554721     1.1379595      0.61554721    -2.6807012e-09 -1.4101067e-10  1.4133978e-10  8.1000093      12.150002      16.200019      1594.3269    
        34   0             -322.56         0.78968463     0.61554721     1.1379595      0.61554721    -1.4209696e-09 -6.5423886e-11  9.5380777e-11  8.1000093      12.150002      16.200019      1594.3269    
        35   0             -322.56         0.78968463     0.61554721     1.1379595      0.61554721    -7.2754787e-10 -8.1949507e-11  9.8117246e-12  8.1000093      12.150002      16.200019      1594.3269    
        36   0             -322.56         0.78968463     0.61554721     1.1379595      0.61554721    -3.4755112e-10 -2.4805481e-11 -3.1373414e-14  8.1000093      12.150002      16.200019      1594.3269    
        37   0             -322.56         0.78968463     0.61554721     1.1379595      0.61554721    -1.0317684e-10  2.7996518e-11 -8.1562084e-12  8.1000093      12.150002      16.200019      1594.3269    
        38   0             -322.56         0.78968463     0.61554721     1.1379595      0.61554721    -2.2338189e-11  1.482119e-11  -6.9666179e-12  8.1000093      12.150002      16.200019      1594.3269    
        39   0             -322.56         0.78968463     0.61554721     1.1379595      0.61554721     9.4868443e-12 -1.3545951e-11 -1.3231502e-11  8.1000093      12.150002      16.200019      1594.3269    
        40   0             -322.56         0.78968463     0.61554721     1.1379595      0.61554721    -4.0095079e-12  3.0247518e-12 -1.1555501e-11  8.1000093      12.150002      16.200019      1594.3269    
        41   0             -322.56         0.78968463     0.61554721     1.1379595      0.61554721    -3.3610136e-12  9.0773815e-12 -9.6518496e-12  8.1000093      12.150002      16.200019      1594.3269    
        42   0             -322.56         0.78968463     0.61554721     1.1379595      0.61554721     7.3217101e-13 -4.086622e-12   6.737477e-12   8.1000093      12.150002      16.200019      1594.3269    
        43   0             -322.56         0.78968463     0.61554721     1.1379595      0.61554721    -6.028208e-12  -1.9674558e-11  1.3892848e-11  8.1000093      12.150002      16.200019      1594.3269    
        44   0             -322.56         0.78968463     0.61554721     1.1379595      0.61554721    -5.6830416e-13 -2.8276916e-11 -1.1188056e-11  8.1000093      12.150002      16.200019      1594.3269    
        45   0             -322.56         0.78968463     0.61554721     1.1379595      0.61554721    -1.8541359e-11  3.6270478e-12 -2.2103288e-12  8.1000093      12.150002      16.200019      1594.3269    
        46   0             -322.56         0.78968463     0.61554721     1.1379595      0.61554721    -1.2865291e-12  8.6741316e-12 -3.0953802e-12  8.1000093      12.150002      16.200019      1594.3269    
        47   0             -322.56         0.78968463     0.61554721     1.1379595      0.61554721     1.4089062e-11  2.2748956e-11 -1.8670674e-11  8.1000093      12.150002      16.200019      1594.3269    
        48   0             -322.56         0.78968463     0.61554721     1.1379595      0.61554721     7.8795546e-13  2.8284807e-11  2.3046089e-11  8.1000093      12.150002      16.200019      1594.3269    
        49   0             -322.56         0.78968463     0.61554721     1.1379595      0.61554721    -2.5765446e-12  8.670457e-12  -1.2051199e-11  8.1000093      12.150002      16.200019      1594.3269    
        50   0             -322.56         0.78968463     0.61554721     1.1379595      0.61554721    -9.940093e-12   1.094406e-11  -4.1229773e-12  8.1000093      12.150002      16.200019      1594.3269    
        51   0             -322.56         0.78968463     0.61554721     1.1379595      0.61554721    -1.4999046e-11  1.9843704e-11 -9.4750928e-12  8.1000093      12.150002      16.200019      1594.3269    
Loop time of 0.007282 on 1 procs for 25 steps with 96 atoms

214.6% CPU use with 1 MPI tasks x 1 OpenMP threads

Minimization stats:
  Stopping criterion = force tolerance
  Energy initial, next-to-last, final = 
     -322.559998844639  -322.559998865077  -322.559998865077
  Force two-norm initial, final = 0.00049225673 6.2673935e-11
  Force max component initial, final = 7.4972234e-05 1.0746891e-11
  Final line search alpha, max atom move = 1 1.0746891e-11
  Iterations, force evaluations = 25 50

MPI task timing breakdown:
Section |  min time  |  avg time  |  max time  |%varavg| %total
---------------------------------------------------------------
Pair    | 0.006828   | 0.006828   | 0.006828   |   0.0 | 93.77
Neigh   | 0          | 0          | 0          |   0.0 |  0.00
Comm    | 0.00014    | 0.00014    | 0.00014    |   0.0 |  1.92
Output  | 0.000209   | 0.000209   | 0.000209   |   0.0 |  2.87
Modify  | 0          | 0          | 0          |   0.0 |  0.00
Other   |            | 0.000105   |            |       |  1.44

Nlocal:             96 ave          96 max          96 min
Histogram: 1 0 0 0 0 0 0 0 0 0
Nghost:            976 ave         976 max         976 min
Histogram: 1 0 0 0 0 0 0 0 0 0
Neighs:           4128 ave        4128 max        4128 min
Histogram: 1 0 0 0 0 0 0 0 0 0

Total # of neighbors = 4128
Ave neighs/atom = 43
Neighbor list builds = 0
Dangerous builds = 0
OMP_NUM_THREADS environment is not set. Defaulting to 1 thread. (src/comm.cpp:98)
  using 1 OpenMP thread(s) per MPI task
Loaded 1 plugins from F:\Lammps\LAMMPS 64-bit 2Aug2023\plugins

The 'box' command has been removed and will be ignored

Reading restart file ...
  restart file = 2 Aug 2023, LAMMPS = 2 Aug 2023
  restoring atom style atomic from restart
  triclinic box = (-0.010004662 -0.015006993 -0.020009324) to (8.0900047 12.135007 16.180009) with tilt (0 0 0)
  1 by 1 by 1 MPI processor grid
  pair style eam/alloy stores no restart info
  96 atoms
  read_restart CPU = 0.000 seconds
Changing box ...
  triclinic box = (-0.010004662 -0.015006993 -0.020009324) to (8.0900047 12.135019 16.180009) with tilt (0 0 0)
  triclinic box = (-0.010004662 -0.015006993 -0.020009324) to (8.0900047 12.135019 16.180009) with tilt (0 0 0)
Neighbor list info ...
  update: every = 1 steps, delay = 0 steps, check = yes
  max neighbors/atom: 2000, page size: 100000
  master list distance cutoff = 7.28721
  ghost atom cutoff = 7.28721
  1 neighbor lists, perpetual/occasional/extra = 1 0 0
  (1) pair eam/alloy, perpetual
      attributes: half, newton on
      pair build: half/nsq/newton
      stencil: none
      bin: none
Setting up cg style minimization ...
  Unit style    : metal
  Current step  : 26
Per MPI rank memory allocation (min/avg/max) = 4.449 | 4.449 | 4.449 Mbytes
   Step          Temp          PotEng         Press           Pxx            Pyy            Pzz            Pxy            Pxz            Pyz             Lx             Ly             Lz           Volume    
        26   0             -322.56        -0.78966151    -0.61552726    -1.1379364     -0.61552082     1.6311731e-06 -3.9788252e-07  1.7613183e-06  8.1000093      12.150026      16.200019      1594.3301    
        27   0             -322.56        -0.78968028    -0.61554402    -1.137953      -0.61554385    -3.1041474e-07  6.4486777e-08 -2.6715357e-08  8.1000093      12.150026      16.200019      1594.3301    
        28   0             -322.56        -0.78968324    -0.61554705    -1.1379559     -0.61554677     6.5520119e-08 -8.95926e-08    8.4722839e-08  8.1000093      12.150026      16.200019      1594.3301    
        29   0             -322.56        -0.78968393    -0.61554757    -1.1379567     -0.61554756    -1.0493642e-08 -1.1889192e-08 -2.6478613e-08  8.1000093      12.150026      16.200019      1594.3301    
        30   0             -322.56        -0.78968404    -0.61554768    -1.1379568     -0.61554767    -1.0181829e-08 -7.5945345e-09 -5.0481874e-09  8.1000093      12.150026      16.200019      1594.3301    
        31   0             -322.56        -0.78968405    -0.61554769    -1.1379568     -0.61554769    -8.6713837e-09 -9.2195499e-10 -2.8912742e-09  8.1000093      12.150026      16.200019      1594.3301    
        32   0             -322.56        -0.78968406    -0.6155477     -1.1379568     -0.61554769    -4.5651189e-09 -6.3589177e-10 -2.1008141e-10  8.1000093      12.150026      16.200019      1594.3301    
        33   0             -322.56        -0.78968407    -0.6155477     -1.1379568     -0.6155477     -2.6660664e-09 -1.6155242e-10  1.7717597e-10  8.1000093      12.150026      16.200019      1594.3301    
        34   0             -322.56        -0.78968407    -0.6155477     -1.1379568     -0.6155477     -1.4163297e-09 -7.4559959e-11  1.0825988e-10  8.1000093      12.150026      16.200019      1594.3301    
        35   0             -322.56        -0.78968407    -0.6155477     -1.1379568     -0.6155477     -7.203851e-10  -3.2016047e-11  3.5728757e-11  8.1000093      12.150026      16.200019      1594.3301    
        36   0             -322.56        -0.78968407    -0.6155477     -1.1379568     -0.6155477     -3.3576598e-10 -3.5355379e-11  2.5507111e-11  8.1000093      12.150026      16.200019      1594.3301    
        37   0             -322.56        -0.78968407    -0.6155477     -1.1379568     -0.6155477     -9.143403e-11   1.076974e-11  -2.4685987e-11  8.1000093      12.150026      16.200019      1594.3301    
        38   0             -322.56        -0.78968407    -0.6155477     -1.1379568     -0.6155477     -1.923514e-11   2.0004711e-11  6.5327064e-12  8.1000093      12.150026      16.200019      1594.3301    
        39   0             -322.56        -0.78968407    -0.6155477     -1.1379568     -0.6155477     -2.6427834e-12 -1.8037385e-11  3.1206151e-11  8.1000093      12.150026      16.200019      1594.3301    
        40   0             -322.56        -0.78968407    -0.6155477     -1.1379568     -0.6155477     -1.288967e-11   8.9207724e-12  6.5553555e-12  8.1000093      12.150026      16.200019      1594.3301    
        41   0             -322.56        -0.78968407    -0.6155477     -1.1379568     -0.6155477      3.2843034e-12 -1.503323e-11  -1.655482e-11   8.1000093      12.150026      16.200019      1594.3301    
        42   0             -322.56        -0.78968407    -0.6155477     -1.1379568     -0.6155477      1.2049419e-11 -3.4607066e-12  1.9162101e-11  8.1000093      12.150026      16.200019      1594.3301    
        43   0             -322.56        -0.78968407    -0.6155477     -1.1379568     -0.6155477     -1.409252e-11   1.357906e-11  -2.7799411e-12  8.1000093      12.150026      16.200019      1594.3301    
        44   0             -322.56        -0.78968407    -0.6155477     -1.1379568     -0.6155477      2.0012634e-11  1.0416962e-11 -9.498509e-12   8.1000093      12.150026      16.200019      1594.3301    
        45   0             -322.56        -0.78968407    -0.6155477     -1.1379568     -0.6155477      1.2101717e-11 -1.4316636e-11 -2.0327164e-13  8.1000093      12.150026      16.200019      1594.3301    
        46   0             -322.56        -0.78968407    -0.6155477     -1.1379568     -0.6155477      7.2240728e-12 -1.0012893e-11  1.8212546e-11  8.1000093      12.150026      16.200019      1594.3301    
        47   0             -322.56        -0.78968407    -0.6155477     -1.1379568     -0.6155477      9.8529101e-12 -1.0443735e-12  1.9353144e-11  8.1000093      12.150026      16.200019      1594.3301    
        48   0             -322.56        -0.78968407    -0.6155477     -1.1379568     -0.6155477      2.9182186e-12 -1.4858029e-11  1.6442103e-11  8.1000093      12.150026      16.200019      1594.3301    
        49   0             -322.56        -0.78968407    -0.6155477     -1.1379568     -0.6155477     -1.6491247e-12  1.1505589e-11 -1.4599254e-11  8.1000093      12.150026      16.200019      1594.3301    
        50   0             -322.56        -0.78968407    -0.6155477     -1.1379568     -0.6155477     -1.2635154e-11  2.7971085e-12 -6.0662846e-11  8.1000093      12.150026      16.200019      1594.3301    
        51   0             -322.56        -0.78968407    -0.6155477     -1.1379568     -0.6155477      1.771153e-12  -1.4876875e-11 -1.7216962e-11  8.1000093      12.150026      16.200019      1594.3301    
Loop time of 0.007397 on 1 procs for 25 steps with 96 atoms

0.0% CPU use with 1 MPI tasks x 1 OpenMP threads

Minimization stats:
  Stopping criterion = force tolerance
  Energy initial, next-to-last, final = 
     -322.559998844642  -322.559998865076  -322.559998865079
  Force two-norm initial, final = 0.00049225539 6.2707291e-11
  Force max component initial, final = 7.4971888e-05 1.0831986e-11
  Final line search alpha, max atom move = 1 1.0831986e-11
  Iterations, force evaluations = 25 50

MPI task timing breakdown:
Section |  min time  |  avg time  |  max time  |%varavg| %total
---------------------------------------------------------------
Pair    | 0.006901   | 0.006901   | 0.006901   |   0.0 | 93.29
Neigh   | 0          | 0          | 0          |   0.0 |  0.00
Comm    | 0.000129   | 0.000129   | 0.000129   |   0.0 |  1.74
Output  | 0.000215   | 0.000215   | 0.000215   |   0.0 |  2.91
Modify  | 0          | 0          | 0          |   0.0 |  0.00
Other   |            | 0.000152   |            |       |  2.05

Nlocal:             96 ave          96 max          96 min
Histogram: 1 0 0 0 0 0 0 0 0 0
Nghost:            976 ave         976 max         976 min
Histogram: 1 0 0 0 0 0 0 0 0 0
Neighs:           4128 ave        4128 max        4128 min
Histogram: 1 0 0 0 0 0 0 0 0 0

Total # of neighbors = 4128
Ave neighs/atom = 43
Neighbor list builds = 0
Dangerous builds = 0
OMP_NUM_THREADS environment is not set. Defaulting to 1 thread. (src/comm.cpp:98)
  using 1 OpenMP thread(s) per MPI task
Loaded 1 plugins from F:\Lammps\LAMMPS 64-bit 2Aug2023\plugins

The 'box' command has been removed and will be ignored

Reading restart file ...
  restart file = 2 Aug 2023, LAMMPS = 2 Aug 2023
  restoring atom style atomic from restart
  triclinic box = (-0.010004662 -0.015006993 -0.020009324) to (8.0900047 12.135007 16.180009) with tilt (0 0 0)
  1 by 1 by 1 MPI processor grid
  pair style eam/alloy stores no restart info
  96 atoms
  read_restart CPU = 0.000 seconds
Changing box ...
  triclinic box = (-0.010004662 -0.015006993 -0.020009324) to (8.0900047 12.135007 16.179993) with tilt (0 0 0)
Neighbor list info ...
  update: every = 1 steps, delay = 0 steps, check = yes
  max neighbors/atom: 2000, page size: 100000
  master list distance cutoff = 7.28721
  ghost atom cutoff = 7.28721
  1 neighbor lists, perpetual/occasional/extra = 1 0 0
  (1) pair eam/alloy, perpetual
      attributes: half, newton on
      pair build: half/nsq/newton
      stencil: none
      bin: none
Setting up cg style minimization ...
  Unit style    : metal
  Current step  : 26
Per MPI rank memory allocation (min/avg/max) = 4.449 | 4.449 | 4.449 Mbytes
   Step          Temp          PotEng         Press           Pxx            Pyy            Pzz            Pxy            Pxz            Pyz             Lx             Ly             Lz           Volume    
        26   0             -322.56         0.78970718     0.61556764     0.61556757     1.1379863      1.6311329e-06 -3.9782281e-07  1.7612143e-06  8.1000093      12.150014      16.200002      1594.3269    
        27   0             -322.56         0.78968841     0.61555088     0.61555104     1.1379633     -3.1040541e-07  6.4504373e-08 -2.6782926e-08  8.1000093      12.150014      16.200002      1594.3269    
        28   0             -322.56         0.78968545     0.61554786     0.61554809     1.1379604      6.5505356e-08 -8.9611587e-08  8.4698383e-08  8.1000093      12.150014      16.200002      1594.3269    
        29   0             -322.56         0.78968477     0.61554734     0.61554735     1.1379596     -1.0461242e-08 -1.1911527e-08 -2.6504763e-08  8.1000093      12.150014      16.200002      1594.3269    
        30   0             -322.56         0.78968466     0.61554723     0.61554725     1.1379595     -1.0208542e-08 -7.5686063e-09 -5.0358594e-09  8.1000093      12.150014      16.200002      1594.3269    
        31   0             -322.56         0.78968464     0.61554722     0.61554723     1.1379595     -8.6615307e-09 -9.3425936e-10 -2.8718891e-09  8.1000093      12.150014      16.200002      1594.3269    
        32   0             -322.56         0.78968464     0.61554721     0.61554722     1.1379595     -4.572509e-09  -6.0196832e-10 -1.8452375e-10  8.1000093      12.150014      16.200002      1594.3269    
        33   0             -322.56         0.78968463     0.61554721     0.61554721     1.1379595     -2.6756178e-09 -1.4800243e-10  1.6364555e-10  8.1000093      12.150014      16.200002      1594.3269    
        34   0             -322.56         0.78968463     0.61554721     0.61554721     1.1379595     -1.4195576e-09 -7.8092636e-11  8.4348989e-11  8.1000093      12.150014      16.200002      1594.3269    
        35   0             -322.56         0.78968463     0.61554721     0.61554721     1.1379595     -7.406886e-10  -6.0539457e-11  7.9800726e-11  8.1000093      12.150014      16.200002      1594.3269    
        36   0             -322.56         0.78968463     0.61554721     0.61554721     1.1379595     -3.5684272e-10 -1.4297666e-11  2.24003e-11    8.1000093      12.150014      16.200002      1594.3269    
        37   0             -322.56         0.78968463     0.61554721     0.61554721     1.1379595     -9.630838e-11  -2.5213294e-11 -2.9733063e-11  8.1000093      12.150014      16.200002      1594.3269    
        38   0             -322.56         0.78968463     0.61554721     0.61554721     1.1379595     -1.6860852e-11 -2.2709241e-11  7.1802043e-12  8.1000093      12.150014      16.200002      1594.3269    
        39   0             -322.56         0.78968463     0.61554721     0.61554721     1.1379595      1.3109348e-12  9.1887845e-12 -3.935298e-11   8.1000093      12.150014      16.200002      1594.3269    
        40   0             -322.56         0.78968463     0.61554721     0.61554721     1.1379595     -8.1933422e-12 -3.1441067e-11 -7.4145675e-12  8.1000093      12.150014      16.200002      1594.3269    
        41   0             -322.56         0.78968463     0.61554721     0.61554721     1.1379595     -1.6459902e-11  5.4184373e-12 -1.7792491e-12  8.1000093      12.150014      16.200002      1594.3269    
        42   0             -322.56         0.78968463     0.61554721     0.61554721     1.1379595     -1.6578443e-11  8.1461853e-12 -3.1350966e-11  8.1000093      12.150014      16.200002      1594.3269    
        43   0             -322.56         0.78968463     0.61554721     0.61554721     1.1379595      1.676323e-11  -1.2219595e-11  1.876056e-11   8.1000093      12.150014      16.200002      1594.3269    
        44   0             -322.56         0.78968463     0.61554721     0.61554721     1.1379595      6.035181e-12  -3.6689975e-12 -4.0785375e-12  8.1000093      12.150014      16.200002      1594.3269    
        45   0             -322.56         0.78968463     0.61554721     0.61554721     1.1379595     -2.4091913e-12 -1.4898314e-12 -1.0203256e-11  8.1000093      12.150014      16.200002      1594.3269    
        46   0             -322.56         0.78968463     0.61554721     0.61554721     1.1379595     -5.8190162e-12 -8.4284632e-12  1.2870512e-11  8.1000093      12.150014      16.200002      1594.3269    
        47   0             -322.56         0.78968463     0.61554721     0.61554721     1.1379595     -3.9153716e-12 -1.5639881e-11 -6.7693255e-12  8.1000093      12.150014      16.200002      1594.3269    
        48   0             -322.56         0.78968463     0.61554721     0.61554721     1.1379595     -6.8684613e-13  2.3718107e-12  3.2066614e-12  8.1000093      12.150014      16.200002      1594.3269    
        49   0             -322.56         0.78968463     0.61554721     0.61554721     1.1379595      1.3946114e-12 -3.3619179e-12  3.0452672e-11  8.1000093      12.150014      16.200002      1594.3269    
        50   0             -322.56         0.78968463     0.61554721     0.61554721     1.1379595      1.3716004e-11  5.3006043e-12 -4.5854844e-12  8.1000093      12.150014      16.200002      1594.3269    
        51   0             -322.56         0.78968463     0.61554721     0.61554721     1.1379595      5.2995235e-13 -5.6359219e-12  1.3026854e-11  8.1000093      12.150014      16.200002      1594.3269    
Loop time of 0.007214 on 1 procs for 25 steps with 96 atoms

0.0% CPU use with 1 MPI tasks x 1 OpenMP threads

Minimization stats:
  Stopping criterion = force tolerance
  Energy initial, next-to-last, final = 
      -322.55999884464  -322.559998865078   -322.55999886508
  Force two-norm initial, final = 0.00049225685 6.2697145e-11
  Force max component initial, final = 7.4972138e-05 1.0769755e-11
  Final line search alpha, max atom move = 1 1.0769755e-11
  Iterations, force evaluations = 25 50

MPI task timing breakdown:
Section |  min time  |  avg time  |  max time  |%varavg| %total
---------------------------------------------------------------
Pair    | 0.006717   | 0.006717   | 0.006717   |   0.0 | 93.11
Neigh   | 0          | 0          | 0          |   0.0 |  0.00
Comm    | 0.000148   | 0.000148   | 0.000148   |   0.0 |  2.05
Output  | 0.000228   | 0.000228   | 0.000228   |   0.0 |  3.16
Modify  | 0          | 0          | 0          |   0.0 |  0.00
Other   |            | 0.000121   |            |       |  1.68

Nlocal:             96 ave          96 max          96 min
Histogram: 1 0 0 0 0 0 0 0 0 0
Nghost:            976 ave         976 max         976 min
Histogram: 1 0 0 0 0 0 0 0 0 0
Neighs:           4128 ave        4128 max        4128 min
Histogram: 1 0 0 0 0 0 0 0 0 0

Total # of neighbors = 4128
Ave neighs/atom = 43
Neighbor list builds = 0
Dangerous builds = 0
OMP_NUM_THREADS environment is not set. Defaulting to 1 thread. (src/comm.cpp:98)
  using 1 OpenMP thread(s) per MPI task
Loaded 1 plugins from F:\Lammps\LAMMPS 64-bit 2Aug2023\plugins

The 'box' command has been removed and will be ignored

Reading restart file ...
  restart file = 2 Aug 2023, LAMMPS = 2 Aug 2023
  restoring atom style atomic from restart
  triclinic box = (-0.010004662 -0.015006993 -0.020009324) to (8.0900047 12.135007 16.180009) with tilt (0 0 0)
  1 by 1 by 1 MPI processor grid
  pair style eam/alloy stores no restart info
  96 atoms
  read_restart CPU = 0.000 seconds
Changing box ...
  triclinic box = (-0.010004662 -0.015006993 -0.020009324) to (8.0900047 12.135007 16.180026) with tilt (0 0 0)
Neighbor list info ...
  update: every = 1 steps, delay = 0 steps, check = yes
  max neighbors/atom: 2000, page size: 100000
  master list distance cutoff = 7.28721
  ghost atom cutoff = 7.28721
  1 neighbor lists, perpetual/occasional/extra = 1 0 0
  (1) pair eam/alloy, perpetual
      attributes: half, newton on
      pair build: half/nsq/newton
      stencil: none
      bin: none
Setting up cg style minimization ...
  Unit style    : metal
  Current step  : 26
Per MPI rank memory allocation (min/avg/max) = 4.449 | 4.449 | 4.449 Mbytes
   Step          Temp          PotEng         Press           Pxx            Pyy            Pzz            Pxy            Pxz            Pyz             Lx             Ly             Lz           Volume    
        26   0             -322.56        -0.78966151    -0.61552726    -0.61552733    -1.1379299      1.6311371e-06 -3.9785017e-07  1.7612968e-06  8.1000093      12.150014      16.200035      1594.3301    
        27   0             -322.56        -0.78968028    -0.61554402    -0.61554387    -1.137953      -3.1039902e-07  6.4499927e-08 -2.6717229e-08  8.1000093      12.150014      16.200035      1594.3301    
        28   0             -322.56        -0.78968324    -0.61554705    -0.61554682    -1.1379559      6.5526779e-08 -8.9587985e-08  8.4724891e-08  8.1000093      12.150014      16.200035      1594.3301    
        29   0             -322.56        -0.78968393    -0.61554757    -0.61554756    -1.1379567     -1.0487649e-08 -1.1894952e-08 -2.6516233e-08  8.1000093      12.150014      16.200035      1594.3301    
        30   0             -322.56        -0.78968404    -0.61554768    -0.61554766    -1.1379568     -1.0205394e-08 -7.5879315e-09 -5.0798579e-09  8.1000093      12.150014      16.200035      1594.3301    
        31   0             -322.56        -0.78968405    -0.61554769    -0.61554768    -1.1379568     -8.6614959e-09 -9.3373041e-10 -2.8722602e-09  8.1000093      12.150014      16.200035      1594.3301    
        32   0             -322.56        -0.78968406    -0.6155477     -0.61554769    -1.1379568     -4.5605481e-09 -5.928794e-10  -2.4322497e-10  8.1000093      12.150014      16.200035      1594.3301    
        33   0             -322.56        -0.78968407    -0.6155477     -0.6155477     -1.1379568     -2.6655713e-09 -1.3565842e-10  1.614163e-10   8.1000093      12.150014      16.200035      1594.3301    
        34   0             -322.56        -0.78968407    -0.6155477     -0.6155477     -1.1379568     -1.4219639e-09 -5.9762921e-11  1.3567984e-10  8.1000093      12.150014      16.200035      1594.3301    
        35   0             -322.56        -0.78968407    -0.6155477     -0.6155477     -1.1379568     -7.4371341e-10 -7.1613913e-11  5.5452905e-11  8.1000093      12.150014      16.200035      1594.3301    
        36   0             -322.56        -0.78968407    -0.6155477     -0.6155477     -1.1379568     -3.5650381e-10 -2.9222219e-11 -1.5553229e-11  8.1000093      12.150014      16.200035      1594.3301    
        37   0             -322.56        -0.78968407    -0.6155477     -0.6155477     -1.1379568     -9.5614369e-11  2.3925541e-12 -2.5528483e-11  8.1000093      12.150014      16.200035      1594.3301    
        38   0             -322.56        -0.78968407    -0.6155477     -0.6155477     -1.1379568     -3.6985021e-11  1.4843607e-11 -2.05028e-11    8.1000093      12.150014      16.200035      1594.3301    
        39   0             -322.56        -0.78968407    -0.6155477     -0.6155477     -1.1379568     -4.8741572e-12  1.5419646e-12 -1.1180953e-11  8.1000093      12.150014      16.200035      1594.3301    
        40   0             -322.56        -0.78968407    -0.6155477     -0.6155477     -1.1379568      1.9562873e-11 -5.4659082e-12 -3.0239654e-11  8.1000093      12.150014      16.200035      1594.3301    
        41   0             -322.56        -0.78968407    -0.6155477     -0.6155477     -1.1379568      2.0047499e-12  1.4079844e-11  1.412912e-11   8.1000093      12.150014      16.200035      1594.3301    
        42   0             -322.56        -0.78968407    -0.6155477     -0.6155477     -1.1379568      1.7697584e-11 -1.5030842e-11  3.0006978e-11  8.1000093      12.150014      16.200035      1594.3301    
        43   0             -322.56        -0.78968407    -0.6155477     -0.6155477     -1.1379568      6.3907941e-12 -2.531401e-11  -2.7283275e-12  8.1000093      12.150014      16.200035      1594.3301    
        44   0             -322.56        -0.78968407    -0.6155477     -0.6155477     -1.1379568     -4.3616386e-12  8.7380485e-12  1.3189394e-11  8.1000093      12.150014      16.200035      1594.3301    
        45   0             -322.56        -0.78968407    -0.6155477     -0.6155477     -1.1379568     -1.1498548e-11  2.2732524e-11  1.0912615e-12  8.1000093      12.150014      16.200035      1594.3301    
        46   0             -322.56        -0.78968407    -0.6155477     -0.6155477     -1.1379568     -1.0787298e-11  9.9296373e-12 -6.2654027e-12  8.1000093      12.150014      16.200035      1594.3301    
        47   0             -322.56        -0.78968407    -0.6155477     -0.6155477     -1.1379568      1.0431673e-11 -2.6794999e-11 -2.2770722e-11  8.1000093      12.150014      16.200035      1594.3301    
        48   0             -322.56        -0.78968407    -0.6155477     -0.6155477     -1.1379568      1.2621208e-11 -4.9997533e-12  2.8538717e-11  8.1000093      12.150014      16.200035      1594.3301    
        49   0             -322.56        -0.78968407    -0.6155477     -0.6155477     -1.1379568      1.121614e-11   1.0839533e-11  2.2507612e-11  8.1000093      12.150014      16.200035      1594.3301    
        50   0             -322.56        -0.78968407    -0.6155477     -0.6155477     -1.1379568     -6.2687659e-12  5.5118398e-12  8.7560507e-12  8.1000093      12.150014      16.200035      1594.3301    
        51   0             -322.56        -0.78968407    -0.6155477     -0.6155477     -1.1379568     -1.6296002e-11 -6.1364364e-12 -7.3259478e-12  8.1000093      12.150014      16.200035      1594.3301    
Loop time of 0.007518 on 1 procs for 25 steps with 96 atoms

0.0% CPU use with 1 MPI tasks x 1 OpenMP threads

Minimization stats:
  Stopping criterion = force tolerance
  Energy initial, next-to-last, final = 
     -322.559998844641  -322.559998865075  -322.559998865078
  Force two-norm initial, final = 0.00049225527 6.2686534e-11
  Force max component initial, final = 7.4971984e-05 1.0813827e-11
  Final line search alpha, max atom move = 1 1.0813827e-11
  Iterations, force evaluations = 25 50

MPI task timing breakdown:
Section |  min time  |  avg time  |  max time  |%varavg| %total
---------------------------------------------------------------
Pair    | 0.007046   | 0.007046   | 0.007046   |   0.0 | 93.72
Neigh   | 0          | 0          | 0          |   0.0 |  0.00
Comm    | 0.000141   | 0.000141   | 0.000141   |   0.0 |  1.88
Output  | 0.000222   | 0.000222   | 0.000222   |   0.0 |  2.95
Modify  | 0          | 0          | 0          |   0.0 |  0.00
Other   |            | 0.000109   |            |       |  1.45

Nlocal:             96 ave          96 max          96 min
Histogram: 1 0 0 0 0 0 0 0 0 0
Nghost:            976 ave         976 max         976 min
Histogram: 1 0 0 0 0 0 0 0 0 0
Neighs:           4128 ave        4128 max        4128 min
Histogram: 1 0 0 0 0 0 0 0 0 0

Total # of neighbors = 4128
Ave neighs/atom = 43
Neighbor list builds = 0
Dangerous builds = 0
OMP_NUM_THREADS environment is not set. Defaulting to 1 thread. (src/comm.cpp:98)
  using 1 OpenMP thread(s) per MPI task
Loaded 1 plugins from F:\Lammps\LAMMPS 64-bit 2Aug2023\plugins

The 'box' command has been removed and will be ignored

Reading restart file ...
  restart file = 2 Aug 2023, LAMMPS = 2 Aug 2023
  restoring atom style atomic from restart
  triclinic box = (-0.010004662 -0.015006993 -0.020009324) to (8.0900047 12.135007 16.180009) with tilt (0 0 0)
  1 by 1 by 1 MPI processor grid
  pair style eam/alloy stores no restart info
  96 atoms
  read_restart CPU = 0.000 seconds
Changing box ...
  triclinic box = (-0.010004662 -0.015006993 -0.020009324) to (8.0900047 12.135007 16.180009) with tilt (0 0 -1.6200019e-05)
Neighbor list info ...
  update: every = 1 steps, delay = 0 steps, check = yes
  max neighbors/atom: 2000, page size: 100000
  master list distance cutoff = 7.28721
  ghost atom cutoff = 7.28721
  1 neighbor lists, perpetual/occasional/extra = 1 0 0
  (1) pair eam/alloy, perpetual
      attributes: half, newton on
      pair build: half/nsq/newton
      stencil: none
      bin: none
Setting up cg style minimization ...
  Unit style    : metal
  Current step  : 26
Per MPI rank memory allocation (min/avg/max) = 4.449 | 4.449 | 4.449 Mbytes
   Step          Temp          PotEng         Press           Pxx            Pyy            Pzz            Pxy            Pxz            Pyz             Lx             Ly             Lz           Volume    
        26   0             -322.56         2.2734428e-05  2.0697963e-05  2.0312079e-05  2.7193242e-05  1.6311658e-06 -3.9786659e-07  0.31594751     8.1000093      12.150014      16.200019      1594.3285    
        27   0             -322.56         3.9606792e-06  3.9401112e-06  3.7770927e-06  4.1648338e-06 -3.1040367e-07  6.4507135e-08  0.31594572     8.1000093      12.150014      16.200019      1594.3285    
        28   0             -322.56         9.9969681e-07  9.1741412e-07  8.304825e-07   1.2511938e-06  6.552311e-08  -8.9568922e-08  0.31594584     8.1000093      12.150014      16.200019      1594.3285    
        29   0             -322.56         3.1333423e-07  3.9194261e-07  9.0870876e-08  4.5718919e-07 -1.048829e-08  -1.1889036e-08  0.31594573     8.1000093      12.150014      16.200019      1594.3285    
        30   0             -322.56         2.0723628e-07  2.8429658e-07 -1.0015744e-08  3.4742801e-07 -1.0197783e-08 -7.5905522e-09  0.31594575     8.1000093      12.150014      16.200019      1594.3285    
        31   0             -322.56         1.9078668e-07  2.7271448e-07 -3.2331307e-08  3.3197686e-07 -8.6758168e-09 -9.2843202e-10  0.31594575     8.1000093      12.150014      16.200019      1594.3285    
        32   0             -322.56         1.8292397e-07  2.6916612e-07 -4.5441792e-08  3.2504758e-07 -4.5418405e-09 -5.6614957e-10  0.31594575     8.1000093      12.150014      16.200019      1594.3285    
        33   0             -322.56         1.7852333e-07  2.66317e-07   -5.1492364e-08  3.2074534e-07 -2.6750678e-09 -1.4220143e-10  0.31594575     8.1000093      12.150014      16.200019      1594.3285    
        34   0             -322.56         1.7679843e-07  2.6496713e-07 -5.3325673e-08  3.1875384e-07 -1.4347086e-09 -6.6161135e-11  0.31594575     8.1000093      12.150014      16.200019      1594.3285    
        35   0             -322.56         1.7602795e-07  2.6432678e-07 -5.369293e-08   3.1745e-07    -7.347259e-10  -6.5705379e-11  0.31594575     8.1000093      12.150014      16.200019      1594.3285    
        36   0             -322.56         1.7571209e-07  2.641073e-07  -5.395877e-08   3.1698775e-07 -3.6312159e-10 -2.4941775e-11  0.31594575     8.1000093      12.150014      16.200019      1594.3285    
        37   0             -322.56         1.7553411e-07  2.6400539e-07 -5.4076398e-08  3.1667335e-07 -1.1571777e-10  2.1691476e-11  0.31594575     8.1000093      12.150014      16.200019      1594.3285    
        38   0             -322.56         1.7540568e-07  2.6387406e-07 -5.4187263e-08  3.1653024e-07 -2.75819e-11    8.9887146e-12  0.31594575     8.1000093      12.150014      16.200019      1594.3285    
        39   0             -322.56         1.7538534e-07  2.6385611e-07 -5.4212397e-08  3.1651231e-07  7.0253481e-12  6.3928803e-12  0.31594575     8.1000093      12.150014      16.200019      1594.3285    
        40   0             -322.56         1.7535394e-07  2.6384442e-07 -5.4267547e-08  3.1648495e-07 -3.6922301e-12 -2.7722348e-12  0.31594575     8.1000093      12.150014      16.200019      1594.3285    
        41   0             -322.56         1.7534993e-07  2.6384429e-07 -5.4273903e-08  3.1647939e-07 -2.4022158e-12  7.1956688e-14  0.31594575     8.1000093      12.150014      16.200019      1594.3285    
        42   0             -322.56         1.753322e-07   2.6381478e-07 -5.427216e-08   3.1645399e-07  4.4383465e-12  1.9357398e-11  0.31594575     8.1000093      12.150014      16.200019      1594.3285    
        43   0             -322.56         1.7534155e-07  2.6385352e-07 -5.4284436e-08  3.1645556e-07  6.8893736e-12 -1.2590797e-11  0.31594575     8.1000093      12.150014      16.200019      1594.3285    
        44   0             -322.56         1.7535522e-07  2.6385037e-07 -5.4259957e-08  3.1647525e-07  4.5394557e-12 -1.7972795e-11  0.31594575     8.1000093      12.150014      16.200019      1594.3285    
        45   0             -322.56         1.7532504e-07  2.6379972e-07 -5.4277167e-08  3.1645257e-07 -2.0912178e-11  1.3676926e-11  0.31594575     8.1000093      12.150014      16.200019      1594.3285    
        46   0             -322.56         1.7534207e-07  2.6384806e-07 -5.4239104e-08  3.1641726e-07  8.611717e-13   1.4696532e-11  0.31594575     8.1000093      12.150014      16.200019      1594.3285    
        47   0             -322.56         1.7534413e-07  2.6381816e-07 -5.4262049e-08  3.1647628e-07 -1.9022481e-11  1.5865109e-11  0.31594575     8.1000093      12.150014      16.200019      1594.3285    
        48   0             -322.56         1.7533548e-07  2.6382287e-07 -5.4264542e-08  3.164481e-07   2.7787605e-12 -1.1820565e-13  0.31594575     8.1000093      12.150014      16.200019      1594.3285    
        49   0             -322.56         1.7532669e-07  2.6380333e-07 -5.4292026e-08  3.1646877e-07 -6.73248e-12    8.920671e-12   0.31594575     8.1000093      12.150014      16.200019      1594.3285    
        50   0             -322.56         1.753551e-07   2.6381434e-07 -5.4236974e-08  3.1648793e-07 -5.2611664e-12 -3.3346123e-11  0.31594575     8.1000093      12.150014      16.200019      1594.3285    
        51   0             -322.56         1.7533718e-07  2.638372e-07  -5.4267666e-08  3.1644201e-07  1.4800299e-11  2.5887137e-11  0.31594575     8.1000093      12.150014      16.200019      1594.3285    
Loop time of 0.00759 on 1 procs for 25 steps with 96 atoms

205.9% CPU use with 1 MPI tasks x 1 OpenMP threads

Minimization stats:
  Stopping criterion = force tolerance
  Energy initial, next-to-last, final = 
     -322.559998845049  -322.559998865485  -322.559998865488
  Force two-norm initial, final = 0.0004922561 6.2907228e-11
  Force max component initial, final = 7.49721e-05 9.8877868e-12
  Final line search alpha, max atom move = 1 9.8877868e-12
  Iterations, force evaluations = 25 50

MPI task timing breakdown:
Section |  min time  |  avg time  |  max time  |%varavg| %total
---------------------------------------------------------------
Pair    | 0.007055   | 0.007055   | 0.007055   |   0.0 | 92.95
Neigh   | 0          | 0          | 0          |   0.0 |  0.00
Comm    | 0.000152   | 0.000152   | 0.000152   |   0.0 |  2.00
Output  | 0.000257   | 0.000257   | 0.000257   |   0.0 |  3.39
Modify  | 0          | 0          | 0          |   0.0 |  0.00
Other   |            | 0.000126   |            |       |  1.66

Nlocal:             96 ave          96 max          96 min
Histogram: 1 0 0 0 0 0 0 0 0 0
Nghost:            976 ave         976 max         976 min
Histogram: 1 0 0 0 0 0 0 0 0 0
Neighs:           4128 ave        4128 max        4128 min
Histogram: 1 0 0 0 0 0 0 0 0 0

Total # of neighbors = 4128
Ave neighs/atom = 43
Neighbor list builds = 0
Dangerous builds = 0
OMP_NUM_THREADS environment is not set. Defaulting to 1 thread. (src/comm.cpp:98)
  using 1 OpenMP thread(s) per MPI task
Loaded 1 plugins from F:\Lammps\LAMMPS 64-bit 2Aug2023\plugins

The 'box' command has been removed and will be ignored

Reading restart file ...
  restart file = 2 Aug 2023, LAMMPS = 2 Aug 2023
  restoring atom style atomic from restart
  triclinic box = (-0.010004662 -0.015006993 -0.020009324) to (8.0900047 12.135007 16.180009) with tilt (0 0 0)
  1 by 1 by 1 MPI processor grid
  pair style eam/alloy stores no restart info
  96 atoms
  read_restart CPU = 0.000 seconds
Changing box ...
  triclinic box = (-0.010004662 -0.015006993 -0.020009324) to (8.0900047 12.135007 16.180009) with tilt (0 0 1.6200019e-05)
Neighbor list info ...
  update: every = 1 steps, delay = 0 steps, check = yes
  max neighbors/atom: 2000, page size: 100000
  master list distance cutoff = 7.28721
  ghost atom cutoff = 7.28721
  1 neighbor lists, perpetual/occasional/extra = 1 0 0
  (1) pair eam/alloy, perpetual
      attributes: half, newton on
      pair build: half/nsq/newton
      stencil: none
      bin: none
Setting up cg style minimization ...
  Unit style    : metal
  Current step  : 26
Per MPI rank memory allocation (min/avg/max) = 4.449 | 4.449 | 4.449 Mbytes
   Step          Temp          PotEng         Press           Pxx            Pyy            Pzz            Pxy            Pxz            Pyz             Lx             Ly             Lz           Volume    
        26   0             -322.56         2.2734535e-05  2.0698098e-05  2.0312174e-05  2.7193333e-05  1.6311535e-06 -3.9786898e-07 -0.31594399     8.1000093      12.150014      16.200019      1594.3285    
        27   0             -322.56         3.9606992e-06  3.9401141e-06  3.7770951e-06  4.1648884e-06 -3.1041831e-07  6.447264e-08  -0.31594578     8.1000093      12.150014      16.200019      1594.3285    
        28   0             -322.56         9.9971288e-07  9.174469e-07   8.3050791e-07  1.2511838e-06  6.5517452e-08 -8.9573205e-08 -0.31594567     8.1000093      12.150014      16.200019      1594.3285    
        29   0             -322.56         3.1332452e-07  3.9193877e-07  9.0879652e-08  4.5715513e-07 -1.0495999e-08 -1.1887345e-08 -0.31594578     8.1000093      12.150014      16.200019      1594.3285    
        30   0             -322.56         2.0728703e-07  2.8434648e-07 -1.0000334e-08  3.4751494e-07 -1.0192842e-08 -7.5922182e-09 -0.31594576     8.1000093      12.150014      16.200019      1594.3285    
        31   0             -322.56         1.9078064e-07  2.7270142e-07 -3.2307819e-08  3.3194832e-07 -8.6741189e-09 -9.1897998e-10 -0.31594575     8.1000093      12.150014      16.200019      1594.3285    
        32   0             -322.56         1.8291491e-07  2.691585e-07  -4.5462767e-08  3.25049e-07   -4.5821308e-09 -5.8690068e-10 -0.31594575     8.1000093      12.150014      16.200019      1594.3285    
        33   0             -322.56         1.7854134e-07  2.6633505e-07 -5.1472972e-08  3.2076194e-07 -2.6733454e-09 -1.425773e-10  -0.31594575     8.1000093      12.150014      16.200019      1594.3285    
        34   0             -322.56         1.7679116e-07  2.6492696e-07 -5.3339616e-08  3.1878614e-07 -1.4189843e-09 -7.791874e-11  -0.31594575     8.1000093      12.150014      16.200019      1594.3285    
        35   0             -322.56         1.7598811e-07  2.6430287e-07 -5.3719825e-08  3.1738129e-07 -7.2351323e-10 -6.3552712e-11 -0.31594575     8.1000093      12.150014      16.200019      1594.3285    
        36   0             -322.56         1.7566502e-07  2.6407718e-07 -5.3955915e-08  3.1687378e-07 -3.5341162e-10 -2.7302658e-11 -0.31594575     8.1000093      12.150014      16.200019      1594.3285    
        37   0             -322.56         1.755007e-07   2.6394206e-07 -5.4101986e-08  3.1666202e-07 -1.0102555e-10 -1.4860571e-11 -0.31594575     8.1000093      12.150014      16.200019      1594.3285    
        38   0             -322.56         1.7540866e-07  2.6387658e-07 -5.4195693e-08  3.1654509e-07 -1.5804418e-11 -1.8083267e-12 -0.31594575     8.1000093      12.150014      16.200019      1594.3285    
        39   0             -322.56         1.7534502e-07  2.6384306e-07 -5.4247897e-08  3.1643989e-07 -1.4120427e-12 -2.1959628e-12 -0.31594575     8.1000093      12.150014      16.200019      1594.3285    
        40   0             -322.56         1.7535629e-07  2.6386239e-07 -5.4258447e-08  3.1646494e-07  5.9270927e-14  1.4431411e-11 -0.31594575     8.1000093      12.150014      16.200019      1594.3285    
        41   0             -322.56         1.7539976e-07  2.6387191e-07 -5.4199919e-08  3.1652728e-07  3.1657648e-12 -7.29322e-12   -0.31594575     8.1000093      12.150014      16.200019      1594.3285    
        42   0             -322.56         1.7534182e-07  2.6384807e-07 -5.4283306e-08  3.1646069e-07 -1.5309332e-11 -5.7156183e-12 -0.31594575     8.1000093      12.150014      16.200019      1594.3285    
        43   0             -322.56         1.7536788e-07  2.6384893e-07 -5.4236378e-08  3.1649107e-07  1.3771774e-11 -7.1982879e-12 -0.31594575     8.1000093      12.150014      16.200019      1594.3285    
        44   0             -322.56         1.7534971e-07  2.638228e-07  -5.4287037e-08  3.1651336e-07 -2.0570498e-13 -1.9101193e-12 -0.31594575     8.1000093      12.150014      16.200019      1594.3285    
        45   0             -322.56         1.7534855e-07  2.6382602e-07 -5.4254312e-08  3.1647394e-07 -5.4459522e-12  1.8798243e-11 -0.31594575     8.1000093      12.150014      16.200019      1594.3285    
        46   0             -322.56         1.7534057e-07  2.6384927e-07 -5.4272446e-08  3.1644489e-07 -1.3248795e-12 -1.3226889e-12 -0.31594575     8.1000093      12.150014      16.200019      1594.3285    
        47   0             -322.56         1.7536146e-07  2.6386424e-07 -5.4255564e-08  3.1647572e-07  3.6015804e-12  2.7071751e-11 -0.31594575     8.1000093      12.150014      16.200019      1594.3285    
        48   0             -322.56         1.7528315e-07  2.6377242e-07 -5.4306328e-08  3.1638336e-07 -2.003706e-11  -3.5982302e-11 -0.31594575     8.1000093      12.150014      16.200019      1594.3285    
        49   0             -322.56         1.7532622e-07  2.6382584e-07 -5.4277034e-08  3.1642986e-07  2.0465902e-11 -2.60429e-11   -0.31594575     8.1000093      12.150014      16.200019      1594.3285    
        50   0             -322.56         1.7528625e-07  2.6379752e-07 -5.4315595e-08  3.1637682e-07 -3.0193307e-12 -6.1321244e-12 -0.31594575     8.1000093      12.150014      16.200019      1594.3285    
        51   0             -322.56         1.7534597e-07  2.6384148e-07 -5.4265434e-08  3.1646185e-07  1.3301093e-11  2.0990325e-11 -0.31594575     8.1000093      12.150014      16.200019      1594.3285    
Loop time of 0.008746 on 1 procs for 25 steps with 96 atoms

0.0% CPU use with 1 MPI tasks x 1 OpenMP threads

Minimization stats:
  Stopping criterion = force tolerance
  Energy initial, next-to-last, final = 
     -322.559998845048  -322.559998865486  -322.559998865488
  Force two-norm initial, final = 0.00049225602 6.3527731e-11
  Force max component initial, final = 7.4972022e-05 1.1671553e-11
  Final line search alpha, max atom move = 1 1.1671553e-11
  Iterations, force evaluations = 25 50

MPI task timing breakdown:
Section |  min time  |  avg time  |  max time  |%varavg| %total
---------------------------------------------------------------
Pair    | 0.007844   | 0.007844   | 0.007844   |   0.0 | 89.69
Neigh   | 0          | 0          | 0          |   0.0 |  0.00
Comm    | 0.000189   | 0.000189   | 0.000189   |   0.0 |  2.16
Output  | 0.000327   | 0.000327   | 0.000327   |   0.0 |  3.74
Modify  | 0          | 0          | 0          |   0.0 |  0.00
Other   |            | 0.000386   |            |       |  4.41

Nlocal:             96 ave          96 max          96 min
Histogram: 1 0 0 0 0 0 0 0 0 0
Nghost:            976 ave         976 max         976 min
Histogram: 1 0 0 0 0 0 0 0 0 0
Neighs:           4128 ave        4128 max        4128 min
Histogram: 1 0 0 0 0 0 0 0 0 0

Total # of neighbors = 4128
Ave neighs/atom = 43
Neighbor list builds = 0
Dangerous builds = 0
OMP_NUM_THREADS environment is not set. Defaulting to 1 thread. (src/comm.cpp:98)
  using 1 OpenMP thread(s) per MPI task
Loaded 1 plugins from F:\Lammps\LAMMPS 64-bit 2Aug2023\plugins

The 'box' command has been removed and will be ignored

Reading restart file ...
  restart file = 2 Aug 2023, LAMMPS = 2 Aug 2023
  restoring atom style atomic from restart
  triclinic box = (-0.010004662 -0.015006993 -0.020009324) to (8.0900047 12.135007 16.180009) with tilt (0 0 0)
  1 by 1 by 1 MPI processor grid
  pair style eam/alloy stores no restart info
  96 atoms
  read_restart CPU = 0.000 seconds
Changing box ...
  triclinic box = (-0.010004662 -0.015006993 -0.020009324) to (8.0900047 12.135007 16.180009) with tilt (0 -1.6200019e-05 0)
Neighbor list info ...
  update: every = 1 steps, delay = 0 steps, check = yes
  max neighbors/atom: 2000, page size: 100000
  master list distance cutoff = 7.28721
  ghost atom cutoff = 7.28721
  1 neighbor lists, perpetual/occasional/extra = 1 0 0
  (1) pair eam/alloy, perpetual
      attributes: half, newton on
      pair build: half/nsq/newton
      stencil: none
      bin: none
Setting up cg style minimization ...
  Unit style    : metal
  Current step  : 26
Per MPI rank memory allocation (min/avg/max) = 4.449 | 4.449 | 4.449 Mbytes
   Step          Temp          PotEng         Press           Pxx            Pyy            Pzz            Pxy            Pxz            Pyz             Lx             Ly             Lz           Volume    
        26   0             -322.56         2.2734511e-05  2.0379878e-05  2.0630337e-05  2.7193319e-05  1.6311429e-06  0.31594535     1.7612835e-06  8.1000093      12.150014      16.200019      1594.3285    
        27   0             -322.56         3.9607212e-06  3.6219545e-06  4.095325e-06   4.1648841e-06 -3.1043588e-07  0.31594582    -2.6753677e-08  8.1000093      12.150014      16.200019      1594.3285    
        28   0             -322.56         9.9967322e-07  5.9926377e-07  1.1486415e-06  1.2511144e-06  6.5526785e-08  0.31594566     8.4655909e-08  8.1000093      12.150014      16.200019      1594.3285    
        29   0             -322.56         3.1332631e-07  7.3775234e-08  4.090272e-07   4.5717648e-07 -1.0491669e-08  0.31594574    -2.6512924e-08  8.1000093      12.150014      16.200019      1594.3285    
        30   0             -322.56         2.0728817e-07 -3.3860658e-08  3.0819406e-07  3.4753112e-07 -1.0188714e-08  0.31594574    -5.0167015e-09  8.1000093      12.150014      16.200019      1594.3285    
        31   0             -322.56         1.9077902e-07 -4.549438e-08   2.8585637e-07  3.3197506e-07 -8.6659325e-09  0.31594575    -2.8747735e-09  8.1000093      12.150014      16.200019      1594.3285    
        32   0             -322.56         1.8290885e-07 -4.9023182e-08  2.7271149e-07  3.2503824e-07 -4.5575508e-09  0.31594575    -2.0013278e-10  8.1000093      12.150014      16.200019      1594.3285    
        33   0             -322.56         1.7851954e-07 -5.1864449e-08  2.6668491e-07  3.2073816e-07 -2.6634507e-09  0.31594575     1.7067098e-10  8.1000093      12.150014      16.200019      1594.3285    
        34   0             -322.56         1.7678805e-07 -5.32162e-08    2.6484447e-07  3.1873588e-07 -1.4237853e-09  0.31594575     9.0220044e-11  8.1000093      12.150014      16.200019      1594.3285    
        35   0             -322.56         1.7599222e-07 -5.3892582e-08  2.6449771e-07  3.1737153e-07 -7.32111e-10    0.31594575     1.3843778e-11  8.1000093      12.150014      16.200019      1594.3285    
        36   0             -322.56         1.7570044e-07 -5.4082071e-08  2.6421194e-07  3.1697144e-07 -3.4768326e-10  0.31594575    -1.3263201e-11  8.1000093      12.150014      16.200019      1594.3285    
        37   0             -322.56         1.7549289e-07 -5.4189153e-08  2.6405597e-07  3.1661187e-07 -1.1025787e-10  0.31594575    -2.0381941e-11  8.1000093      12.150014      16.200019      1594.3285    
        38   0             -322.56         1.7539762e-07 -5.4294425e-08  2.6398597e-07  3.1650131e-07 -2.5876989e-11  0.31594575     1.9205652e-11  8.1000093      12.150014      16.200019      1594.3285    
        39   0             -322.56         1.7535773e-07 -5.4302493e-08  2.6392448e-07  3.1645118e-07  8.4443638e-12  0.31594575    -3.4195348e-13  8.1000093      12.150014      16.200019      1594.3285    
        40   0             -322.56         1.7536657e-07 -5.4327244e-08  2.6392656e-07  3.165004e-07   6.5546672e-12  0.31594575     2.18797e-11    8.1000093      12.150014      16.200019      1594.3285    
        41   0             -322.56         1.7532355e-07 -5.4365365e-08  2.6389612e-07  3.1643989e-07  4.0164769e-12  0.31594575     2.9715069e-11  8.1000093      12.150014      16.200019      1594.3285    
[...]
        50   0             -322.56         1.7537518e-07 -5.431875e-08   2.6392114e-07  3.1652314e-07 -1.5368603e-11 -0.31594575     1.0783374e-11  8.1000093      12.150014      16.200019      1594.3285    
        51   0             -322.56         1.7537413e-07 -5.4312126e-08  2.6395044e-07  3.1648407e-07  8.0190078e-14 -0.31594575    -3.3775419e-11  8.1000093      12.150014      16.200019      1594.3285    
Loop time of 0.007887 on 1 procs for 25 steps with 96 atoms

0.0% CPU use with 1 MPI tasks x 1 OpenMP threads

Minimization stats:
  Stopping criterion = force tolerance
  Energy initial, next-to-last, final = 
      -322.55999884505  -322.559998865485  -322.559998865488
  Force two-norm initial, final = 0.0004922561 6.3210166e-11
  Force max component initial, final = 7.4972034e-05 1.0166902e-11
  Final line search alpha, max atom move = 1 1.0166902e-11
  Iterations, force evaluations = 25 50

MPI task timing breakdown:
Section |  min time  |  avg time  |  max time  |%varavg| %total
---------------------------------------------------------------
Pair    | 0.00733    | 0.00733    | 0.00733    |   0.0 | 92.94
Neigh   | 0          | 0          | 0          |   0.0 |  0.00
Comm    | 0.000146   | 0.000146   | 0.000146   |   0.0 |  1.85
Output  | 0.000273   | 0.000273   | 0.000273   |   0.0 |  3.46
Modify  | 0          | 0          | 0          |   0.0 |  0.00
Other   |            | 0.000138   |            |       |  1.75

Nlocal:             96 ave          96 max          96 min
Histogram: 1 0 0 0 0 0 0 0 0 0
Nghost:            976 ave         976 max         976 min
Histogram: 1 0 0 0 0 0 0 0 0 0
Neighs:           4128 ave        4128 max        4128 min
Histogram: 1 0 0 0 0 0 0 0 0 0

Total # of neighbors = 4128
Ave neighs/atom = 43
Neighbor list builds = 0
Dangerous builds = 0
OMP_NUM_THREADS environment is not set. Defaulting to 1 thread. (src/comm.cpp:98)
  using 1 OpenMP thread(s) per MPI task
Loaded 1 plugins from F:\Lammps\LAMMPS 64-bit 2Aug2023\plugins

The 'box' command has been removed and will be ignored

Reading restart file ...
  restart file = 2 Aug 2023, LAMMPS = 2 Aug 2023
  restoring atom style atomic from restart
  triclinic box = (-0.010004662 -0.015006993 -0.020009324) to (8.0900047 12.135007 16.180009) with tilt (0 0 0)
  1 by 1 by 1 MPI processor grid
  pair style eam/alloy stores no restart info
  96 atoms
  read_restart CPU = 0.000 seconds
Changing box ...
  triclinic box = (-0.010004662 -0.015006993 -0.020009324) to (8.0900047 12.135007 16.180009) with tilt (-1.2150014e-05 0 0)
Neighbor list info ...
  update: every = 1 steps, delay = 0 steps, check = yes
  max neighbors/atom: 2000, page size: 100000
  master list distance cutoff = 7.28721
  ghost atom cutoff = 7.28721
  1 neighbor lists, perpetual/occasional/extra = 1 0 0
  (1) pair eam/alloy, perpetual
      attributes: half, newton on
      pair build: half/nsq/newton
      stencil: none
      bin: none
Setting up cg style minimization ...
  Unit style    : metal
  Current step  : 26
Per MPI rank memory allocation (min/avg/max) = 4.449 | 4.449 | 4.449 Mbytes
   Step          Temp          PotEng         Press           Pxx            Pyy            Pzz            Pxy            Pxz            Pyz             Lx             Ly             Lz           Volume    
        26   0             -322.56         2.273449e-05   2.0379838e-05  2.0682809e-05  2.7140822e-05  0.31594738    -3.9785535e-07  1.7612183e-06  8.1000093      12.150014      16.200019      1594.3285    
        27   0             -322.56         3.9607247e-06  3.6219516e-06  4.1478163e-06  4.1124061e-06  0.31594544     6.4495578e-08 -2.6748949e-08  8.1000093      12.150014      16.200019      1594.3285    
        28   0             -322.56         9.9969175e-07  5.9927904e-07  1.2011843e-06  1.1986119e-06  0.31594582    -8.955364e-08   8.4693208e-08  8.1000093      12.150014      16.200019      1594.3285    
        29   0             -322.56         3.1334196e-07  7.3755413e-08  4.6158613e-07  4.0468434e-07  0.31594574    -1.1881832e-08 -2.6456687e-08  8.1000093      12.150014      16.200019      1594.3285    
        30   0             -322.56         2.072587e-07  -3.3863468e-08  3.6069185e-07  2.9494773e-07  0.31594574    -7.6165122e-09 -5.0428945e-09  8.1000093      12.150014      16.200019      1594.3285    
        31   0             -322.56         1.9080711e-07 -4.5463353e-08  3.383993e-07   2.794854e-07   0.31594574    -9.5169016e-10 -2.871503e-09   8.1000093      12.150014      16.200019      1594.3285    
        32   0             -322.56         1.8295889e-07 -4.8976264e-08  3.2526475e-07  2.7258819e-07  0.31594575    -6.023945e-10  -2.2556309e-10  8.1000093      12.150014      16.200019      1594.3285    
        33   0             -322.56         1.7852735e-07 -5.1863341e-08  3.1918889e-07  2.6825649e-07  0.31594575    -1.6067011e-10  1.7125013e-10  8.1000093      12.150014      16.200019      1594.3285    
        34   0             -322.56         1.7676935e-07 -5.3245445e-08  3.1732663e-07  2.6622687e-07  0.31594575    -7.0314462e-11  1.1256168e-10  8.1000093      12.150014      16.200019      1594.3285    
        35   0             -322.56         1.7602051e-07 -5.3852462e-08  3.1698312e-07  2.6493088e-07  0.31594575    -6.8055403e-11  4.9743973e-12  8.1000093      12.150014      16.200019      1594.3285    
        36   0             -322.56         1.7562153e-07 -5.4144877e-08  3.1664442e-07  2.6436504e-07  0.31594575    -2.8693883e-11 -3.0269371e-13  8.1000093      12.150014      16.200019      1594.3285    
        37   0             -322.56         1.7551964e-07 -5.4201617e-08  3.1657589e-07  2.6418466e-07  0.31594575     4.6276534e-12 -2.8753989e-11  8.1000093      12.150014      16.200019      1594.3285    
        38   0             -322.56         1.7539742e-07 -5.4299588e-08  3.1647751e-07  2.6401433e-07  0.31594575    -8.4335095e-12 -3.115003e-12   8.1000093      12.150014      16.200019      1594.3285    
        39   0             -322.56         1.7536395e-07 -5.4340712e-08  3.1642605e-07  2.6400652e-07  0.31594575     1.1991123e-11  3.1163011e-12  8.1000093      12.150014      16.200019      1594.3285    
        40   0             -322.56         1.7533929e-07 -5.4352249e-08  3.164322e-07   2.6393792e-07  0.31594575     3.4651007e-12 -7.6042556e-12  8.1000093      12.150014      16.200019      1594.3285    
        41   0             -322.56         1.753598e-07  -5.4316338e-08  3.1642385e-07  2.6397187e-07  0.31594575    -3.3774546e-11 -3.6657717e-11  8.1000093      12.150014      16.200019      1594.3285    
        42   0             -322.56         1.7531702e-07 -5.4364731e-08  3.1640349e-07  2.6391231e-07  0.31594575     9.115604e-12   1.4191493e-12  8.1000093      12.150014      16.200019      1594.3285    
        43   0             -322.56         1.7533681e-07 -5.435251e-08   3.1641271e-07  2.6395022e-07  0.31594575    -6.3050539e-12  2.2123306e-11  8.1000093      12.150014      16.200019      1594.3285    
        44   0             -322.56         1.7535441e-07 -5.4343107e-08  3.1642374e-07  2.6398261e-07  0.31594575     5.7640645e-12  1.8858879e-11  8.1000093      12.150014      16.200019      1594.3285    
        45   0             -322.56         1.7535261e-07 -5.4320954e-08  3.1642749e-07  2.6395129e-07  0.31594575     3.5275974e-11 -1.3382378e-11  8.1000093      12.150014      16.200019      1594.3285    
        46   0             -322.56         1.7534319e-07 -5.4347375e-08  3.1641825e-07  2.6395868e-07  0.31594575     2.2042033e-11  9.4402447e-12  8.1000093      12.150014      16.200019      1594.3285    
        47   0             -322.56         1.7536936e-07 -5.4318499e-08  3.16443e-07    2.6398358e-07  0.31594575     2.6536975e-11  5.1518497e-12  8.1000093      12.150014      16.200019      1594.3285    
        48   0             -322.56         1.7530532e-07 -5.436699e-08   3.1637648e-07  2.6390647e-07  0.31594575    -7.8881999e-12 -6.8368616e-12  8.1000093      12.150014      16.200019      1594.3285    
        49   0             -322.56         1.7531956e-07 -5.4363852e-08  3.1639695e-07  2.6392558e-07  0.31594575     5.0608722e-12 -3.867912e-11   8.1000093      12.150014      16.200019      1594.3285    
        50   0             -322.56         1.753357e-07  -5.4333864e-08  3.1640459e-07  2.6393637e-07  0.31594575    -1.2572011e-11 -6.5872168e-12  8.1000093      12.150014      16.200019      1594.3285    
        51   0             -322.56         1.7534477e-07 -5.4346594e-08  3.1640977e-07  2.6397114e-07  0.31594575     8.204991e-12   3.1323064e-11  8.1000093      12.150014      16.200019      1594.3285    
Loop time of 0.007359 on 1 procs for 25 steps with 96 atoms

212.3% CPU use with 1 MPI tasks x 1 OpenMP threads

Minimization stats:
  Stopping criterion = force tolerance
  Energy initial, next-to-last, final = 
      -322.55999884505  -322.559998865486  -322.559998865485
  Force two-norm initial, final = 0.0004922561 6.4269007e-11
  Force max component initial, final = 7.4972034e-05 1.178321e-11
  Final line search alpha, max atom move = 1 1.178321e-11
  Iterations, force evaluations = 25 50

MPI task timing breakdown:
Section |  min time  |  avg time  |  max time  |%varavg| %total
---------------------------------------------------------------
Pair    | 0.00685    | 0.00685    | 0.00685    |   0.0 | 93.08
Neigh   | 0          | 0          | 0          |   0.0 |  0.00
Comm    | 0.000134   | 0.000134   | 0.000134   |   0.0 |  1.82
Output  | 0.000255   | 0.000255   | 0.000255   |   0.0 |  3.47
Modify  | 0          | 0          | 0          |   0.0 |  0.00
Other   |            | 0.00012    |            |       |  1.63

Nlocal:             96 ave          96 max          96 min
Histogram: 1 0 0 0 0 0 0 0 0 0
Nghost:            976 ave         976 max         976 min
Histogram: 1 0 0 0 0 0 0 0 0 0
Neighs:           4128 ave        4128 max        4128 min
Histogram: 1 0 0 0 0 0 0 0 0 0

Total # of neighbors = 4128
Ave neighs/atom = 43
Neighbor list builds = 0
Dangerous builds = 0
OMP_NUM_THREADS environment is not set. Defaulting to 1 thread. (src/comm.cpp:98)
  using 1 OpenMP thread(s) per MPI task
Loaded 1 plugins from F:\Lammps\LAMMPS 64-bit 2Aug2023\plugins

The 'box' command has been removed and will be ignored

Reading restart file ...
  restart file = 2 Aug 2023, LAMMPS = 2 Aug 2023
  restoring atom style atomic from restart
  triclinic box = (-0.010004662 -0.015006993 -0.020009324) to (8.0900047 12.135007 16.180009) with tilt (0 0 0)
  1 by 1 by 1 MPI processor grid
  pair style eam/alloy stores no restart info
  96 atoms
  read_restart CPU = 0.000 seconds
Changing box ...
  triclinic box = (-0.010004662 -0.015006993 -0.020009324) to (8.0900047 12.135007 16.180009) with tilt (1.2150014e-05 0 0)
Neighbor list info ...
  update: every = 1 steps, delay = 0 steps, check = yes
  max neighbors/atom: 2000, page size: 100000
  master list distance cutoff = 7.28721
  ghost atom cutoff = 7.28721
  1 neighbor lists, perpetual/occasional/extra = 1 0 0
  (1) pair eam/alloy, perpetual
      attributes: half, newton on
      pair build: half/nsq/newton
      stencil: none
      bin: none
Setting up cg style minimization ...
  Unit style    : metal
  Current step  : 26
Per MPI rank memory allocation (min/avg/max) = 4.449 | 4.449 | 4.449 Mbytes
   Step          Temp          PotEng         Press           Pxx            Pyy            Pzz            Pxy            Pxz            Pyz             Lx             Ly             Lz           Volume    
        26   0             -322.56         2.2734451e-05  2.0379833e-05  2.068279e-05   2.7140729e-05 -0.31594412    -3.9784173e-07  1.7612463e-06  8.1000093      12.150014      16.200019      1594.3285    
        27   0             -322.56         3.9607171e-06  3.621932e-06   4.1478347e-06  4.1123846e-06 -0.31594606     6.450549e-08  -2.6733352e-08  8.1000093      12.150014      16.200019      1594.3285    
        28   0             -322.56         9.9971594e-07  5.9925314e-07  1.2012006e-06  1.1986941e-06 -0.31594569    -8.9617422e-08  8.469425e-08   8.1000093      12.150014      16.200019      1594.3285    
        29   0             -322.56         3.1335111e-07  7.3785038e-08  4.6155838e-07  4.0470991e-07 -0.31594576    -1.1888859e-08 -2.6455324e-08  8.1000093      12.150014      16.200019      1594.3285    
        30   0             -322.56         2.0724093e-07 -3.3900425e-08  3.6069099e-07  2.9493222e-07 -0.31594576    -7.5871142e-09 -5.0586534e-09  8.1000093      12.150014      16.200019      1594.3285    
        31   0             -322.56         1.9078213e-07 -4.5459012e-08  3.3836554e-07  2.7943987e-07 -0.31594576    -9.2937778e-10 -2.9179889e-09  8.1000093      12.150014      16.200019      1594.3285    
        32   0             -322.56         1.8292318e-07 -4.9003086e-08  3.2523456e-07  2.7253806e-07 -0.31594576    -5.9940078e-10 -2.4935379e-10  8.1000093      12.150014      16.200019      1594.3285    
        33   0             -322.56         1.7851678e-07 -5.1845413e-08  3.1918823e-07  2.6820751e-07 -0.31594575    -1.3898884e-10  1.4581163e-10  8.1000093      12.150014      16.200019      1594.3285    
        34   0             -322.56         1.7678727e-07 -5.3250646e-08  3.1733914e-07  2.6627331e-07 -0.31594575    -8.5471597e-11  1.5452551e-10  8.1000093      12.150014      16.200019      1594.3285    
        35   0             -322.56         1.7602227e-07 -5.3827624e-08  3.1698188e-07  2.6491255e-07 -0.31594575    -5.1903991e-11  3.7682212e-11  8.1000093      12.150014      16.200019      1594.3285    
        36   0             -322.56         1.7570185e-07 -5.4086255e-08  3.1671014e-07  2.6448168e-07 -0.31594575    -2.5459467e-11  1.8641755e-11  8.1000093      12.150014      16.200019      1594.3285    
        37   0             -322.56         1.7549395e-07 -5.4210553e-08  3.1656661e-07  2.6412581e-07 -0.31594575    -6.6116677e-12 -1.4331306e-11  8.1000093      12.150014      16.200019      1594.3285    
        38   0             -322.56         1.7540614e-07 -5.4275193e-08  3.1649477e-07  2.6399885e-07 -0.31594575    -6.0397739e-13 -2.3449858e-11  8.1000093      12.150014      16.200019      1594.3285    
        39   0             -322.56         1.753454e-07  -5.4335161e-08  3.1643019e-07  2.6394118e-07 -0.31594575    -6.8096814e-12 -2.8190349e-11  8.1000093      12.150014      16.200019      1594.3285    
        40   0             -322.56         1.7535596e-07 -5.4341116e-08  3.1645758e-07  2.6395143e-07 -0.31594575     1.343229e-12  -7.2665017e-12  8.1000093      12.150014      16.200019      1594.3285    
        41   0             -322.56         1.7532169e-07 -5.4340315e-08  3.1641899e-07  2.6388639e-07 -0.31594575    -1.3543132e-14 -1.114726e-11   8.1000093      12.150014      16.200019      1594.3285    
        42   0             -322.56         1.7533391e-07 -5.4355115e-08  3.1641892e-07  2.6393793e-07 -0.31594575    -1.4948104e-11 -1.3692347e-12  8.1000093      12.150014      16.200019      1594.3285    
        43   0             -322.56         1.7533975e-07 -5.4337438e-08  3.1644317e-07  2.6391351e-07 -0.31594575    -2.601611e-11  -2.0556597e-11  8.1000093      12.150014      16.200019      1594.3285    
        44   0             -322.56         1.7536268e-07 -5.4344007e-08  3.1644918e-07  2.6398288e-07 -0.31594575    -1.3404707e-11  2.1040131e-11  8.1000093      12.150014      16.200019      1594.3285    
        45   0             -322.56         1.7534662e-07 -5.4367115e-08  3.1644168e-07  2.6396529e-07 -0.31594575     4.8556161e-12 -7.5130744e-13  8.1000093      12.150014      16.200019      1594.3285    
        46   0             -322.56         1.7534697e-07 -5.4312991e-08  3.1641341e-07  2.6394049e-07 -0.31594575    -8.8370996e-12  1.3219743e-11  8.1000093      12.150014      16.200019      1594.3285    
        47   0             -322.56         1.7535358e-07 -5.4341608e-08  3.1643006e-07  2.639723e-07  -0.31594575    -1.5923979e-11  1.5643517e-11  8.1000093      12.150014      16.200019      1594.3285    
        48   0             -322.56         1.7533127e-07 -5.4357914e-08  3.1640421e-07  2.6394751e-07 -0.31594575     8.6799989e-12 -1.1864756e-11  8.1000093      12.150014      16.200019      1594.3285    
        49   0             -322.56         1.7534944e-07 -5.4349027e-08  3.164105e-07   2.6398686e-07 -0.31594575    -2.4410841e-11 -5.0651268e-12  8.1000093      12.150014      16.200019      1594.3285    
        50   0             -322.56         1.7534424e-07 -5.4351834e-08  3.1642847e-07  2.639561e-07  -0.31594575     6.5383578e-12  2.1357627e-11  8.1000093      12.150014      16.200019      1594.3285    
        51   0             -322.56         1.7533814e-07 -5.4324332e-08  3.163893e-07   2.6394947e-07 -0.31594575     2.1400798e-11  6.0841768e-12  8.1000093      12.150014      16.200019      1594.3285    
Loop time of 0.008247 on 1 procs for 25 steps with 96 atoms

189.5% CPU use with 1 MPI tasks x 1 OpenMP threads

Minimization stats:
  Stopping criterion = force tolerance
  Energy initial, next-to-last, final = 
     -322.559998845051  -322.559998865487  -322.559998865486
  Force two-norm initial, final = 0.00049225602 6.2157202e-11
  Force max component initial, final = 7.4972089e-05 9.8092368e-12
  Final line search alpha, max atom move = 1 9.8092368e-12
  Iterations, force evaluations = 25 50

MPI task timing breakdown:
Section |  min time  |  avg time  |  max time  |%varavg| %total
---------------------------------------------------------------
Pair    | 0.007693   | 0.007693   | 0.007693   |   0.0 | 93.28
Neigh   | 0          | 0          | 0          |   0.0 |  0.00
Comm    | 0.00015    | 0.00015    | 0.00015    |   0.0 |  1.82
Output  | 0.000249   | 0.000249   | 0.000249   |   0.0 |  3.02
Modify  | 0          | 0          | 0          |   0.0 |  0.00
Other   |            | 0.000155   |            |       |  1.88

Nlocal:             96 ave          96 max          96 min
Histogram: 1 0 0 0 0 0 0 0 0 0
Nghost:            976 ave         976 max         976 min
Histogram: 1 0 0 0 0 0 0 0 0 0
Neighs:           4128 ave        4128 max        4128 min
Histogram: 1 0 0 0 0 0 0 0 0 0

Total # of neighbors = 4128
Ave neighs/atom = 43
Neighbor list builds = 0
Dangerous builds = 0
=========================================
Components of the Elastic Constant Tensor
=========================================
Elastic Constant C11all = 113.795813435057 GPa
Elastic Constant C22all = 113.795813444633 GPa
Elastic Constant C33all = 113.795813436997 GPa
Elastic Constant C12all = 61.5547454727311 GPa
Elastic Constant C13all = 61.5547454699523 GPa
Elastic Constant C23all = 61.554745472683 GPa
Elastic Constant C44all = 31.5945751542349 GPa
Elastic Constant C55all = 31.5945751535605 GPa
Elastic Constant C66all = 31.5945751514822 GPa
Elastic Constant C14all = 7.87436435018357e-10 GPa
Elastic Constant C15all = -7.51689039961555e-10 GPa
Elastic Constant C16all = -1.73542250909793e-10 GPa
Elastic Constant C24all = 1.37762339796322e-10 GPa
Elastic Constant C25all = -1.5440900835549e-10 GPa
Elastic Constant C26all = 9.25669110630625e-11 GPa
Elastic Constant C34all = 1.26541843927965e-11 GPa
Elastic Constant C35all = -1.79415359790478e-09 GPa
Elastic Constant C36all = 9.62553083810295e-10 GPa
Elastic Constant C45all = 9.92603604297785e-10 GPa
Elastic Constant C46all = 6.6845233627842e-10 GPa
Elastic Constant C56all = -3.80885591888804e-10 GPa
=========================================
Average properties for a cubic crystal
=========================================
Bulk Modulus = 78.9684347941579 GPa
Shear Modulus 1 = 31.5945751530925 GPa
Shear Modulus 2 = 26.1205339835536 GPa
Poisson Ratio = 0.351038205148475
Total wall time: 0:00:00
