LAMMPS (2 Aug 2023 - Update 3)
OMP_NUM_THREADS environment is not set. Defaulting to 1 thread. (src/comm.cpp:98)
  using 1 OpenMP thread(s) per MPI task
Loaded 1 plugins from F:\Lammps\LAMMPS 64-bit 2Aug2023\plugins
Lattice spacing in x,y,z = 4.04 4.04 4.04
Created triclinic box = (0 0 0) to (8.08 12.12 16.16) with tilt (0 0 0)
  1 by 1 by 1 MPI processor grid
Created 96 atoms
  using lattice units in triclinic box = (0 0 0) to (8.08 12.12 16.16) with tilt (0 0 0)
  create_atoms CPU = 0.000 seconds
Neighbor list info ...
  update: every = 1 steps, delay = 0 steps, check = yes
  max neighbors/atom: 2000, page size: 100000
  master list distance cutoff = 7.28721
  ghost atom cutoff = 7.28721
  1 neighbor lists, perpetual/occasional/extra = 1 0 0
  (1) pair eam/alloy, perpetual
      attributes: half, newton on
      pair build: half/nsq/newton
      stencil: none
      bin: none
Setting up cg style minimization ...
  Unit style    : metal
  Current step  : 0
WARNING: Energy due to 3 extra global DOFs will be included in minimizer energies
 (src/min.cpp:228)
Per MPI rank memory allocation (min/avg/max) = 4.452 | 4.452 | 4.452 Mbytes
   Step          Temp          PotEng         Press           Pxx            Pyy            Pzz            Pxy            Pxz            Pyz             Lx             Ly             Lz           Volume    
         0   0             -322.53849      5853.9553      5853.9553      5853.9553      5853.9553     -3.7724158e-11  3.2153346e-11 -2.3463443e-12  8.08           12.12          16.16          1582.5423    
         1   0             -322.54019      5617.5567      5617.5567      5617.5567      5617.5567     -3.4243542e-11 -4.1069777e-11 -3.7024601e-11  8.080808       12.121212      16.161616      1583.0171    
         2   0             -322.54182      5381.1323      5381.1323      5381.1323      5381.1323     -4.0481757e-11  3.1094988e-11 -2.7268669e-11  8.081616       12.122424      16.163232      1583.4921    
         3   0             -322.54338      5144.6807      5144.6807      5144.6807      5144.6807     -2.8018507e-11 -1.3517947e-11  1.2619558e-11  8.082424       12.123636      16.164848      1583.9671    
         4   0             -322.54487      4908.1615      4908.1615      4908.1615      4908.1615      6.6657316e-12  3.6051083e-11  5.6693802e-12  8.083232       12.124848      16.166464      1584.4421    
         5   0             -322.54629      4671.587       4671.587       4671.587       4671.587       1.6596203e-11 -1.0234091e-11 -2.784739e-11   8.08404        12.12606       16.16808       1584.9173    
         6   0             -322.54764      4434.9279      4434.9279      4434.9279      4434.9279     -2.1429751e-11  9.6700348e-12 -1.9634588e-11  8.084848       12.127272      16.169696      1585.3926    
         7   0             -322.54892      4198.254       4198.254       4198.254       4198.254       1.2618452e-12 -1.2415155e-11 -2.847564e-11   8.085656       12.128484      16.171312      1585.868     
         8   0             -322.55013      3961.7998      3961.7998      3961.7998      3961.7998      1.1367219e-11  2.5131225e-11 -9.5170675e-12  8.086464       12.129696      16.172928      1586.3435    
         9   0             -322.55127      3725.5885      3725.5885      3725.5885      3725.5885      2.410081e-12  -1.6891585e-11 -9.8645177e-12  8.087272       12.130908      16.174544      1586.819     
        10   0             -322.55234      3489.6055      3489.6055      3489.6055      3489.6055     -1.4750319e-11  2.2580735e-11 -3.0957459e-12  8.08808        12.13212       16.17616       1587.2947    
        11   0             -322.55334      3253.6093      3253.6093      3253.6093      3253.6093      2.4646517e-12 -3.2362557e-11 -1.7560643e-11  8.088888       12.133332      16.177776      1587.7705    
        12   0             -322.55428      3017.3986      3017.3986      3017.3986      3017.3986      1.619743e-11   3.0252935e-11  3.0196936e-11  8.089696       12.134544      16.179392      1588.2463    
        13   0             -322.55514      2780.9526      2780.9526      2780.9526      2780.9526      2.4491798e-12  4.6674369e-12  1.8879677e-11  8.090504       12.135756      16.181008      1588.7223    
        14   0             -322.55593      2544.2981      2544.2981      2544.2981      2544.2981     -1.523633e-11  -3.4565064e-11 -1.0577287e-11  8.091312       12.136968      16.182624      1589.1983    
        15   0             -322.55665      2307.6749      2307.6749      2307.6749      2307.6749      1.7651506e-11  1.8805427e-11 -5.8605237e-12  8.09212        12.13818       16.18424       1589.6745    
        16   0             -322.5573       2071.1579      2071.1579      2071.1579      2071.1579      2.4357935e-11 -3.4705163e-11 -2.6035864e-11  8.092928       12.139392      16.185856      1590.1507    
        17   0             -322.55788      1834.7355      1834.7355      1834.7355      1834.7355     -2.8348507e-11  4.2005554e-12  5.2587319e-11  8.093736       12.140604      16.187472      1590.627     
        18   0             -322.55839      1598.3877      1598.3877      1598.3877      1598.3877      5.8412859e-12  9.8519296e-12 -2.089168e-11   8.094544       12.141816      16.189088      1591.1035    
        19   0             -322.55883      1362.0625      1362.0625      1362.0625      1362.0625     -1.5646606e-12 -1.5150665e-11 -2.58169e-11    8.095352       12.143028      16.190704      1591.58      
        20   0             -322.5592       1125.7462      1125.7462      1125.7462      1125.7462     -8.9382413e-13 -1.3512107e-11 -1.2373878e-11  8.09616        12.14424       16.19232       1592.0566    
        21   0             -322.5595       889.44216      889.44216      889.44216      889.44216     -6.7016743e-13 -8.3561501e-12 -4.691172e-12   8.096968       12.145452      16.193936      1592.5333    
        22   0             -322.55973      653.14788      653.14788      653.14788      653.14788     -2.6798673e-11  5.0449899e-11 -2.0992294e-11  8.097776       12.146664      16.195552      1593.0101    
        23   0             -322.55989      416.85116      416.85116      416.85116      416.85116      7.5348712e-13  4.2697603e-11  1.6395322e-11  8.098584       12.147876      16.197168      1593.487     
        24   0             -322.55998      180.54532      180.54532      180.54532      180.54532      6.8491012e-12  1.6453187e-11 -6.3985391e-11  8.099392       12.149088      16.198784      1593.964     
        25   0             -322.56         0.0073580099   0.0073580099   0.00735801     0.0073580098  -1.2495706e-11  4.7974586e-12 -3.5464934e-11  8.1000093      12.150014      16.200019      1594.3285    
        26   0             -322.56         9.278171e-09   9.257017e-09   9.29145e-09    9.2860459e-09  1.3527717e-11  1.1045312e-11 -1.5312818e-11  8.1000093      12.150014      16.200019      1594.3285    
Loop time of 0.005525 on 1 procs for 26 steps with 96 atoms

0.0% CPU use with 1 MPI tasks x 1 OpenMP threads

Minimization stats:
  Stopping criterion = force tolerance
  Energy initial, next-to-last, final = 
     -322.538487346493  -322.559998865654  -322.559998865637
  Force two-norm initial, final = 10.015094 1.5957412e-11
  Force max component initial, final = 5.782217 9.2230973e-12
  Final line search alpha, max atom move = 1 9.2230973e-12
  Iterations, force evaluations = 26 28

MPI task timing breakdown:
Section |  min time  |  avg time  |  max time  |%varavg| %total
---------------------------------------------------------------
Pair    | 0.004142   | 0.004142   | 0.004142   |   0.0 | 74.97
Neigh   | 0          | 0          | 0          |   0.0 |  0.00
Comm    | 9.4e-05    | 9.4e-05    | 9.4e-05    |   0.0 |  1.70
Output  | 0.000253   | 0.000253   | 0.000253   |   0.0 |  4.58
Modify  | 0          | 0          | 0          |   0.0 |  0.00
Other   |            | 0.001036   |            |       | 18.75

Nlocal:             96 ave          96 max          96 min
Histogram: 1 0 0 0 0 0 0 0 0 0
Nghost:            976 ave         976 max         976 min
Histogram: 1 0 0 0 0 0 0 0 0 0
Neighs:           4128 ave        4128 max        4128 min
Histogram: 1 0 0 0 0 0 0 0 0 0

Total # of neighbors = 4128
Ave neighs/atom = 43
Neighbor list builds = 0
Dangerous builds = 0
Displacing atoms ...
System init for write_restart ...
OMP_NUM_THREADS environment is not set. Defaulting to 1 thread. (src/comm.cpp:98)
  using 1 OpenMP thread(s) per MPI task
Loaded 1 plugins from F:\Lammps\LAMMPS 64-bit 2Aug2023\plugins

The 'box' command has been removed and will be ignored

Reading restart file ...
  restart file = 2 Aug 2023, LAMMPS = 2 Aug 2023
  restoring atom style atomic from restart
  triclinic box = (-0.010004662 -0.015006993 -0.020009324) to (8.0900047 12.135007 16.180009) with tilt (0 0 0)
  1 by 1 by 1 MPI processor grid
  pair style eam/alloy stores no restart info
  96 atoms
  read_restart CPU = 0.001 seconds
Changing box ...
  triclinic box = (-0.010004662 -0.015006993 -0.020009324) to (8.0900039 12.135007 16.180009) with tilt (0 0 0)
  triclinic box = (-0.010004662 -0.015006993 -0.020009324) to (8.0900039 12.135007 16.180009) with tilt (0 0 0)
  triclinic box = (-0.010004662 -0.015006993 -0.020009324) to (8.0900039 12.135007 16.180009) with tilt (0 0 0)
Neighbor list info ...
  update: every = 1 steps, delay = 0 steps, check = yes
  max neighbors/atom: 2000, page size: 100000
  master list distance cutoff = 7.28721
  ghost atom cutoff = 7.28721
  1 neighbor lists, perpetual/occasional/extra = 1 0 0
  (1) pair eam/alloy, perpetual
      attributes: half, newton on
      pair build: half/nsq/newton
      stencil: none
      bin: none
Setting up cg style minimization ...
  Unit style    : metal
  Current step  : 26
Per MPI rank memory allocation (min/avg/max) = 4.449 | 4.449 | 4.449 Mbytes
   Step          Temp          PotEng         Press           Pxx            Pyy            Pzz            Pxy            Pxz            Pyz             Lx             Ly             Lz           Volume    
        26   0             -322.56         0.078991006    0.11381627     0.061575118    0.061581629    1.6311574e-06 -3.978529e-07   1.7612675e-06  8.1000085      12.150014      16.200019      1594.3283    
        27   0             -322.56         0.078972232    0.11379951     0.061558584    0.061558601   -3.1041862e-07  6.4494818e-08 -2.6712785e-08  8.1000085      12.150014      16.200019      1594.3283    
        28   0             -322.56         0.078969271    0.11379649     0.061555637    0.061555687    6.5512849e-08 -8.9564771e-08  8.4700022e-08  8.1000085      12.150014      16.200019      1594.3283    
        29   0             -322.56         0.078968585    0.11379596     0.061554897    0.061554893   -1.0502412e-08 -1.1893709e-08 -2.648817e-08   8.1000085      12.150014      16.200019      1594.3283    
        30   0             -322.56         0.078968479    0.11379586     0.061554797    0.061554783   -1.0195385e-08 -7.5794002e-09 -5.072032e-09   8.1000085      12.150014      16.200019      1594.3283    
        31   0             -322.56         0.078968462    0.11379584     0.061554774    0.061554768   -8.6516037e-09 -9.091587e-10  -2.8770309e-09  8.1000085      12.150014      16.200019      1594.3283    
        32   0             -322.56         0.078968454    0.11379584     0.061554761    0.061554761   -4.5630599e-09 -5.5837606e-10 -2.1875253e-10  8.1000085      12.150014      16.200019      1594.3283    
        33   0             -322.56         0.07896845     0.11379584     0.061554755    0.061554757   -2.6810649e-09 -1.4432399e-10  1.4082588e-10  8.1000085      12.150014      16.200019      1594.3283    
        34   0             -322.56         0.078968448    0.11379584     0.061554753    0.061554755   -1.4031452e-09 -6.8352691e-11  1.3281195e-10  8.1000085      12.150014      16.200019      1594.3283    
        35   0             -322.56         0.078968448    0.11379584     0.061554753    0.061554753   -7.2613517e-10 -5.4354779e-11  3.0420071e-12  8.1000085      12.150014      16.200019      1594.3283    
        36   0             -322.56         0.078968447    0.11379584     0.061554753    0.061554753   -3.5287124e-10 -2.1205528e-11 -1.7374963e-11  8.1000085      12.150014      16.200019      1594.3283    
        37   0             -322.56         0.078968447    0.11379584     0.061554752    0.061554752   -9.318088e-11  -5.765009e-12   1.1935894e-12  8.1000085      12.150014      16.200019      1594.3283    
        38   0             -322.56         0.078968447    0.11379584     0.061554752    0.061554752   -4.3741948e-11 -1.1516755e-11 -1.7429718e-11  8.1000085      12.150014      16.200019      1594.3283    
        39   0             -322.56         0.078968447    0.11379584     0.061554752    0.061554752    1.0243412e-11 -1.6413992e-12  2.6839414e-11  8.1000085      12.150014      16.200019      1594.3283    
        40   0             -322.56         0.078968447    0.11379584     0.061554752    0.061554752   -8.1549831e-12 -8.6973798e-12  2.6559992e-12  8.1000085      12.150014      16.200019      1594.3283    
        41   0             -322.56         0.078968447    0.11379584     0.061554752    0.061554752   -1.3946102e-11  9.556628e-13   1.7837336e-11  8.1000085      12.150014      16.200019      1594.3283    
        42   0             -322.56         0.078968447    0.11379584     0.061554752    0.061554752   -1.0769877e-11 -5.5534839e-12  4.3389902e-11  8.1000085      12.150014      16.200019      1594.3283    
        43   0             -322.56         0.078968447    0.11379584     0.061554752    0.061554752    1.530236e-11  -1.282791e-11   3.1334516e-12  8.1000085      12.150014      16.200019      1594.3283    
        44   0             -322.56         0.078968447    0.11379584     0.061554752    0.061554752   -1.4552757e-11  2.6457294e-11  1.6010049e-12  8.1000085      12.150014      16.200019      1594.3283    
        45   0             -322.56         0.078968447    0.11379584     0.061554752    0.061554752   -7.4751106e-12 -1.9676669e-11 -6.1107432e-12  8.1000085      12.150014      16.200019      1594.3283    
        46   0             -322.56         0.078968447    0.11379584     0.061554752    0.061554752   -4.452293e-12  -3.1740124e-12  7.860852e-12   8.1000085      12.150014      16.200019      1594.3283    
        47   0             -322.56         0.078968447    0.11379584     0.061554752    0.061554752    4.0129908e-12 -1.7051045e-11  7.9133833e-12  8.1000085      12.150014      16.200019      1594.3283    
        48   0             -322.56         0.078968447    0.11379584     0.061554752    0.061554752    2.8903296e-12  1.7216329e-11  2.102869e-11   8.1000085      12.150014      16.200019      1594.3283    
        49   0             -322.56         0.078968447    0.11379584     0.061554752    0.061554752   -1.0832635e-11  2.4093538e-11 -1.0490938e-12  8.1000085      12.150014      16.200019      1594.3283    
        50   0             -322.56         0.078968447    0.11379584     0.061554752    0.061554752    1.4667813e-11  7.3480512e-12 -1.882535e-12   8.1000085      12.150014      16.200019      1594.3283    
        51   0             -322.56         0.078968447    0.11379584     0.061554752    0.061554752    1.8781913e-11  1.1649166e-11 -2.7264097e-12  8.1000085      12.150014      16.200019      1594.3283    
Loop time of 0.008356 on 1 procs for 25 steps with 96 atoms

0.0% CPU use with 1 MPI tasks x 1 OpenMP threads

Minimization stats:
  Stopping criterion = force tolerance
  Energy initial, next-to-last, final = 
       -322.5599988452  -322.559998865638   -322.55999886564
  Force two-norm initial, final = 0.00049225613 6.2646109e-11
  Force max component initial, final = 7.4972074e-05 1.0782115e-11
  Final line search alpha, max atom move = 1 1.0782115e-11
  Iterations, force evaluations = 25 50

MPI task timing breakdown:
Section |  min time  |  avg time  |  max time  |%varavg| %total
---------------------------------------------------------------
Pair    | 0.007607   | 0.007607   | 0.007607   |   0.0 | 91.04
Neigh   | 0          | 0          | 0          |   0.0 |  0.00
Comm    | 0.00014    | 0.00014    | 0.00014    |   0.0 |  1.68
Output  | 0.000257   | 0.000257   | 0.000257   |   0.0 |  3.08
Modify  | 0          | 0          | 0          |   0.0 |  0.00
Other   |            | 0.000352   |            |       |  4.21

Nlocal:             96 ave          96 max          96 min
Histogram: 1 0 0 0 0 0 0 0 0 0
Nghost:            976 ave         976 max         976 min
Histogram: 1 0 0 0 0 0 0 0 0 0
Neighs:           4128 ave        4128 max        4128 min
Histogram: 1 0 0 0 0 0 0 0 0 0

Total # of neighbors = 4128
Ave neighs/atom = 43
Neighbor list builds = 0
Dangerous builds = 0
OMP_NUM_THREADS environment is not set. Defaulting to 1 thread. (src/comm.cpp:98)
  using 1 OpenMP thread(s) per MPI task
Loaded 1 plugins from F:\Lammps\LAMMPS 64-bit 2Aug2023\plugins

The 'box' command has been removed and will be ignored

Reading restart file ...
  restart file = 2 Aug 2023, LAMMPS = 2 Aug 2023
  restoring atom style atomic from restart
  triclinic box = (-0.010004662 -0.015006993 -0.020009324) to (8.0900047 12.135007 16.180009) with tilt (0 0 0)
  1 by 1 by 1 MPI processor grid
  pair style eam/alloy stores no restart info
  96 atoms
  read_restart CPU = 0.000 seconds
Changing box ...
  triclinic box = (-0.010004662 -0.015006993 -0.020009324) to (8.0900055 12.135007 16.180009) with tilt (0 0 0)
  triclinic box = (-0.010004662 -0.015006993 -0.020009324) to (8.0900055 12.135007 16.180009) with tilt (0 0 0)
  triclinic box = (-0.010004662 -0.015006993 -0.020009324) to (8.0900055 12.135007 16.180009) with tilt (0 0 0)
Neighbor list info ...
  update: every = 1 steps, delay = 0 steps, check = yes
  max neighbors/atom: 2000, page size: 100000
  master list distance cutoff = 7.28721
  ghost atom cutoff = 7.28721
  1 neighbor lists, perpetual/occasional/extra = 1 0 0
  (1) pair eam/alloy, perpetual
      attributes: half, newton on
      pair build: half/nsq/newton
      stencil: none
      bin: none
Setting up cg style minimization ...
  Unit style    : metal
  Current step  : 26
Per MPI rank memory allocation (min/avg/max) = 4.449 | 4.449 | 4.449 Mbytes
   Step          Temp          PotEng         Press           Pxx            Pyy            Pzz            Pxy            Pxz            Pyz             Lx             Ly             Lz           Volume    
        26   0             -322.56        -0.078945863   -0.11377536    -0.061534372   -0.061527862    1.6311818e-06 -3.978456e-07   1.7612453e-06  8.1000101      12.150014      16.200019      1594.3287    
        27   0             -322.56        -0.078964637   -0.11379211    -0.061550907   -0.06155089    -3.1040271e-07  6.4496335e-08 -2.667715e-08   8.1000101      12.150014      16.200019      1594.3287    
        28   0             -322.56        -0.078967598   -0.11379514    -0.061553854   -0.061553804    6.5538929e-08 -8.959835e-08   8.4706005e-08  8.1000101      12.150014      16.200019      1594.3287    
        29   0             -322.56        -0.078968285   -0.11379566    -0.061554594   -0.061554598   -1.0487833e-08 -1.1890992e-08 -2.6510861e-08  8.1000101      12.150014      16.200019      1594.3287    
        30   0             -322.56        -0.078968391   -0.11379577    -0.061554694   -0.061554708   -1.0192147e-08 -7.5893922e-09 -5.0896548e-09  8.1000101      12.150014      16.200019      1594.3287    
        31   0             -322.56        -0.078968407   -0.11379578    -0.061554717   -0.061554723   -8.6774964e-09 -9.2575568e-10 -2.8574934e-09  8.1000101      12.150014      16.200019      1594.3287    
        32   0             -322.56        -0.078968415   -0.11379579    -0.06155473    -0.06155473    -4.5644362e-09 -6.0586622e-10 -1.9861266e-10  8.1000101      12.150014      16.200019      1594.3287    
        33   0             -322.56        -0.07896842    -0.11379579    -0.061554736   -0.061554734   -2.6645103e-09 -1.7350284e-10  1.675026e-10   8.1000101      12.150014      16.200019      1594.3287    
        34   0             -322.56        -0.078968421   -0.11379579    -0.061554738   -0.061554736   -1.4288929e-09 -7.8968084e-11  1.4359122e-10  8.1000101      12.150014      16.200019      1594.3287    
        35   0             -322.56        -0.078968422   -0.11379579    -0.061554738   -0.061554738   -7.3500475e-10 -5.2395091e-11  1.6445761e-11  8.1000101      12.150014      16.200019      1594.3287    
        36   0             -322.56        -0.078968422   -0.11379579    -0.061554738   -0.061554738   -3.3943411e-10 -1.6638734e-11 -4.1687733e-11  8.1000101      12.150014      16.200019      1594.3287    
        37   0             -322.56        -0.078968423   -0.11379579    -0.061554738   -0.061554738   -1.0491999e-10  1.467222e-11  -1.898828e-11   8.1000101      12.150014      16.200019      1594.3287    
        38   0             -322.56        -0.078968423   -0.11379579    -0.061554739   -0.061554738   -4.4742572e-11  8.1910433e-12  1.1575644e-11  8.1000101      12.150014      16.200019      1594.3287    
        39   0             -322.56        -0.078968423   -0.11379579    -0.061554739   -0.061554739   -6.5895318e-12 -1.1378646e-11  1.0911926e-11  8.1000101      12.150014      16.200019      1594.3287    
        40   0             -322.56        -0.078968423   -0.11379579    -0.061554739   -0.061554739   -2.1721049e-12  1.555521e-11  -1.1907085e-11  8.1000101      12.150014      16.200019      1594.3287    
        41   0             -322.56        -0.078968423   -0.11379579    -0.061554739   -0.061554739   -4.8497559e-12 -3.1140816e-12 -4.8583183e-12  8.1000101      12.150014      16.200019      1594.3287    
        42   0             -322.56        -0.078968423   -0.11379579    -0.061554739   -0.061554739   -1.3946099e-13 -7.2843625e-12  1.4365992e-12  8.1000101      12.150014      16.200019      1594.3287    
        43   0             -322.56        -0.078968423   -0.11379579    -0.061554739   -0.061554739   -4.2152084e-12 -1.1684583e-11  1.6117525e-12  8.1000101      12.150014      16.200019      1594.3287    
        44   0             -322.56        -0.078968423   -0.11379579    -0.061554739   -0.061554739    1.9175886e-12 -3.7471924e-11 -7.9043919e-12  8.1000101      12.150014      16.200019      1594.3287    
        45   0             -322.56        -0.078968423   -0.11379579    -0.061554739   -0.061554739    5.2646524e-13 -5.0358425e-12  3.3151222e-11  8.1000101      12.150014      16.200019      1594.3287    
        46   0             -322.56        -0.078968423   -0.11379579    -0.061554739   -0.061554739    1.2328352e-11 -5.8071888e-13 -2.3895526e-11  8.1000101      12.150014      16.200019      1594.3287    
        47   0             -322.56        -0.078968423   -0.11379579    -0.061554739   -0.061554739   -4.9090269e-12 -1.6039837e-11 -1.4867614e-11  8.1000101      12.150014      16.200019      1594.3287    
        48   0             -322.56        -0.078968423   -0.11379579    -0.061554739   -0.061554739   -8.9603686e-12 -6.8654768e-12 -1.2801406e-11  8.1000101      12.150014      16.200019      1594.3287    
        49   0             -322.56        -0.078968423   -0.11379579    -0.061554739   -0.061554739   -3.2145758e-12 -3.31937e-13    3.4709848e-11  8.1000101      12.150014      16.200019      1594.3287    
        50   0             -322.56        -0.078968423   -0.11379579    -0.061554739   -0.061554739    2.11388e-11   -1.39496e-11    1.3484141e-11  8.1000101      12.150014      16.200019      1594.3287    
        51   0             -322.56        -0.078968423   -0.11379579    -0.061554739   -0.061554739   -1.2066862e-11  6.0923171e-12 -3.1322227e-11  8.1000101      12.150014      16.200019      1594.3287    
Loop time of 0.00778 on 1 procs for 25 steps with 96 atoms

0.0% CPU use with 1 MPI tasks x 1 OpenMP threads

Minimization stats:
  Stopping criterion = force tolerance
  Energy initial, next-to-last, final = 
     -322.559998845201  -322.559998865637  -322.559998865639
  Force two-norm initial, final = 0.000492256 6.2692351e-11
  Force max component initial, final = 7.4972049e-05 1.0786531e-11
  Final line search alpha, max atom move = 1 1.0786531e-11
  Iterations, force evaluations = 25 50

MPI task timing breakdown:
Section |  min time  |  avg time  |  max time  |%varavg| %total
---------------------------------------------------------------
Pair    | 0.007291   | 0.007291   | 0.007291   |   0.0 | 93.71
Neigh   | 0          | 0          | 0          |   0.0 |  0.00
Comm    | 0.000151   | 0.000151   | 0.000151   |   0.0 |  1.94
Output  | 0.000229   | 0.000229   | 0.000229   |   0.0 |  2.94
Modify  | 0          | 0          | 0          |   0.0 |  0.00
Other   |            | 0.000109   |            |       |  1.40

Nlocal:             96 ave          96 max          96 min
Histogram: 1 0 0 0 0 0 0 0 0 0
Nghost:            976 ave         976 max         976 min
Histogram: 1 0 0 0 0 0 0 0 0 0
Neighs:           4128 ave        4128 max        4128 min
Histogram: 1 0 0 0 0 0 0 0 0 0

Total # of neighbors = 4128
Ave neighs/atom = 43
Neighbor list builds = 0
Dangerous builds = 0
OMP_NUM_THREADS environment is not set. Defaulting to 1 thread. (src/comm.cpp:98)
  using 1 OpenMP thread(s) per MPI task
Loaded 1 plugins from F:\Lammps\LAMMPS 64-bit 2Aug2023\plugins

The 'box' command has been removed and will be ignored

Reading restart file ...
  restart file = 2 Aug 2023, LAMMPS = 2 Aug 2023
  restoring atom style atomic from restart
  triclinic box = (-0.010004662 -0.015006993 -0.020009324) to (8.0900047 12.135007 16.180009) with tilt (0 0 0)
  1 by 1 by 1 MPI processor grid
  pair style eam/alloy stores no restart info
  96 atoms
  read_restart CPU = 0.000 seconds
Changing box ...
  triclinic box = (-0.010004662 -0.015006993 -0.020009324) to (8.0900047 12.135006 16.180009) with tilt (0 0 0)
  triclinic box = (-0.010004662 -0.015006993 -0.020009324) to (8.0900047 12.135006 16.180009) with tilt (0 0 0)
Neighbor list info ...
  update: every = 1 steps, delay = 0 steps, check = yes
  max neighbors/atom: 2000, page size: 100000
  master list distance cutoff = 7.28721
  ghost atom cutoff = 7.28721
  1 neighbor lists, perpetual/occasional/extra = 1 0 0
  (1) pair eam/alloy, perpetual
      attributes: half, newton on
      pair build: half/nsq/newton
      stencil: none
      bin: none
Setting up cg style minimization ...
  Unit style    : metal
  Current step  : 26
Per MPI rank memory allocation (min/avg/max) = 4.449 | 4.449 | 4.449 Mbytes
   Step          Temp          PotEng         Press           Pxx            Pyy            Pzz            Pxy            Pxz            Pyz             Lx             Ly             Lz           Volume    
        26   0             -322.56         0.078991006    0.061575186    0.1138162      0.061581629    1.6311604e-06 -3.9784627e-07  1.7612351e-06  8.1000093      12.150013      16.200019      1594.3283    
        27   0             -322.56         0.078972232    0.061558428    0.11379967     0.061558601   -3.1042641e-07  6.4500901e-08 -2.673109e-08   8.1000093      12.150013      16.200019      1594.3283    
        28   0             -322.56         0.078969271    0.061555406    0.11379672     0.061555687    6.5501263e-08 -8.9584448e-08  8.468896e-08   8.1000093      12.150013      16.200019      1594.3283    
        29   0             -322.56         0.078968585    0.06155488     0.11379598     0.061554893   -1.0491224e-08 -1.1919498e-08 -2.6509671e-08  8.1000093      12.150013      16.200019      1594.3283    
        30   0             -322.56         0.078968479    0.061554773    0.11379588     0.061554783   -1.020795e-08  -7.5738936e-09 -5.0636955e-09  8.1000093      12.150013      16.200019      1594.3283    
        31   0             -322.56         0.078968462    0.061554761    0.11379586     0.061554768   -8.654372e-09  -9.2823497e-10 -2.8568903e-09  8.1000093      12.150013      16.200019      1594.3283    
        32   0             -322.56         0.078968454    0.061554758    0.11379584     0.061554761   -4.5872878e-09 -5.9511339e-10 -2.0144923e-10  8.1000093      12.150013      16.200019      1594.3283    
        33   0             -322.56         0.07896845     0.061554755    0.11379584     0.061554757   -2.6601562e-09 -1.4082267e-10  1.8959445e-10  8.1000093      12.150013      16.200019      1594.3283    
        34   0             -322.56         0.078968448    0.061554753    0.11379584     0.061554755   -1.4447917e-09 -6.9132108e-11  1.2142751e-10  8.1000093      12.150013      16.200019      1594.3283    
        35   0             -322.56         0.078968448    0.061554753    0.11379584     0.061554753   -7.4335861e-10 -6.792424e-11   1.7765004e-11  8.1000093      12.150013      16.200019      1594.3283    
        36   0             -322.56         0.078968447    0.061554752    0.11379584     0.061554753   -3.325692e-10  -3.6459993e-11 -4.2567908e-11  8.1000093      12.150013      16.200019      1594.3283    
        37   0             -322.56         0.078968447    0.061554752    0.11379584     0.061554753   -9.9529842e-11 -1.0720185e-11  4.3478706e-12  8.1000093      12.150013      16.200019      1594.3283    
        38   0             -322.56         0.078968447    0.061554752    0.11379584     0.061554752   -2.7086816e-11 -2.1427688e-13 -1.2715444e-12  8.1000093      12.150013      16.200019      1594.3283    
        39   0             -322.56         0.078968447    0.061554752    0.11379584     0.061554752    3.974639e-13   1.2953673e-11  2.5613868e-12  8.1000093      12.150013      16.200019      1594.3283    
        40   0             -322.56         0.078968447    0.061554752    0.11379584     0.061554752    4.3546703e-12 -1.9353138e-11 -2.439725e-11   8.1000093      12.150013      16.200019      1594.3283    
        41   0             -322.56         0.078968447    0.061554752    0.11379584     0.061554752   -5.7283613e-12 -8.1041436e-12 -1.4199694e-11  8.1000093      12.150013      16.200019      1594.3283    
        42   0             -322.56         0.078968447    0.061554752    0.11379584     0.061554752    7.9074397e-12 -1.5515209e-11 -3.6827317e-11  8.1000093      12.150013      16.200019      1594.3283    
        43   0             -322.56         0.078968447    0.061554752    0.11379584     0.061554752    1.571377e-11  -2.1185556e-11 -2.8724736e-11  8.1000093      12.150013      16.200019      1594.3283    
        44   0             -322.56         0.078968447    0.061554752    0.11379584     0.061554752   -4.7591073e-12 -7.4422461e-12  1.794841e-11   8.1000093      12.150013      16.200019      1594.3283    
        45   0             -322.56         0.078968447    0.061554752    0.11379584     0.061554752   -2.7369225e-12  3.1310468e-11 -2.8515725e-11  8.1000093      12.150013      16.200019      1594.3283    
        46   0             -322.56         0.078968447    0.061554752    0.11379584     0.061554752   -1.2234218e-11  4.4448119e-12 -9.6319274e-13  8.1000093      12.150013      16.200019      1594.3283    
        47   0             -322.56         0.078968447    0.061554752    0.11379584     0.061554752   -5.4843046e-12 -1.0356709e-11  1.1107144e-11  8.1000093      12.150013      16.200019      1594.3283    
        48   0             -322.56         0.078968447    0.061554752    0.11379584     0.061554752   -1.136956e-11  -9.0461922e-12  1.6264106e-11  8.1000093      12.150013      16.200019      1594.3283    
        49   0             -322.56         0.078968447    0.061554752    0.11379584     0.061554752    1.5208224e-11 -2.8904037e-12 -5.1455474e-11  8.1000093      12.150013      16.200019      1594.3283    
        50   0             -322.56         0.078968447    0.061554752    0.11379584     0.061554752    7.391434e-13  -1.6395156e-11 -2.0646999e-11  8.1000093      12.150013      16.200019      1594.3283    
        51   0             -322.56         0.078968447    0.061554752    0.11379584     0.061554752    2.4405678e-13  5.8857876e-12  5.7770993e-12  8.1000093      12.150013      16.200019      1594.3283    
Loop time of 0.007551 on 1 procs for 25 steps with 96 atoms

206.9% CPU use with 1 MPI tasks x 1 OpenMP threads

Minimization stats:
  Stopping criterion = force tolerance
  Energy initial, next-to-last, final = 
     -322.559998845202  -322.559998865637  -322.559998865639
  Force two-norm initial, final = 0.00049225613 6.2674355e-11
  Force max component initial, final = 7.4972079e-05 1.0762273e-11
  Final line search alpha, max atom move = 1 1.0762273e-11
  Iterations, force evaluations = 25 50

MPI task timing breakdown:
Section |  min time  |  avg time  |  max time  |%varavg| %total
---------------------------------------------------------------
Pair    | 0.007086   | 0.007086   | 0.007086   |   0.0 | 93.84
Neigh   | 0          | 0          | 0          |   0.0 |  0.00
Comm    | 0.000128   | 0.000128   | 0.000128   |   0.0 |  1.70
Output  | 0.000219   | 0.000219   | 0.000219   |   0.0 |  2.90
Modify  | 0          | 0          | 0          |   0.0 |  0.00
Other   |            | 0.000118   |            |       |  1.56

Nlocal:             96 ave          96 max          96 min
Histogram: 1 0 0 0 0 0 0 0 0 0
Nghost:            976 ave         976 max         976 min
Histogram: 1 0 0 0 0 0 0 0 0 0
Neighs:           4128 ave        4128 max        4128 min
Histogram: 1 0 0 0 0 0 0 0 0 0

Total # of neighbors = 4128
Ave neighs/atom = 43
Neighbor list builds = 0
Dangerous builds = 0
OMP_NUM_THREADS environment is not set. Defaulting to 1 thread. (src/comm.cpp:98)
  using 1 OpenMP thread(s) per MPI task
Loaded 1 plugins from F:\Lammps\LAMMPS 64-bit 2Aug2023\plugins

The 'box' command has been removed and will be ignored

Reading restart file ...
  restart file = 2 Aug 2023, LAMMPS = 2 Aug 2023
  restoring atom style atomic from restart
  triclinic box = (-0.010004662 -0.015006993 -0.020009324) to (8.0900047 12.135007 16.180009) with tilt (0 0 0)
  1 by 1 by 1 MPI processor grid
  pair style eam/alloy stores no restart info
  96 atoms
  read_restart CPU = 0.000 seconds
Changing box ...
  triclinic box = (-0.010004662 -0.015006993 -0.020009324) to (8.0900047 12.135008 16.180009) with tilt (0 0 0)
  triclinic box = (-0.010004662 -0.015006993 -0.020009324) to (8.0900047 12.135008 16.180009) with tilt (0 0 0)
Neighbor list info ...
  update: every = 1 steps, delay = 0 steps, check = yes
  max neighbors/atom: 2000, page size: 100000
  master list distance cutoff = 7.28721
  ghost atom cutoff = 7.28721
  1 neighbor lists, perpetual/occasional/extra = 1 0 0
  (1) pair eam/alloy, perpetual
      attributes: half, newton on
      pair build: half/nsq/newton
      stencil: none
      bin: none
Setting up cg style minimization ...
  Unit style    : metal
  Current step  : 26
Per MPI rank memory allocation (min/avg/max) = 4.449 | 4.449 | 4.449 Mbytes
   Step          Temp          PotEng         Press           Pxx            Pyy            Pzz            Pxy            Pxz            Pyz             Lx             Ly             Lz           Volume    
        26   0             -322.56        -0.078945863   -0.061534304   -0.11377542    -0.061527862    1.6311667e-06 -3.978385e-07   1.7612416e-06  8.1000093      12.150015      16.200019      1594.3287    
        27   0             -322.56        -0.078964637   -0.061551062   -0.11379196    -0.06155089    -3.1042685e-07  6.4497515e-08 -2.6728899e-08  8.1000093      12.150015      16.200019      1594.3287    
        28   0             -322.56        -0.078967598   -0.061554085   -0.11379491    -0.061553804    6.5512658e-08 -8.959577e-08   8.4687376e-08  8.1000093      12.150015      16.200019      1594.3287    
        29   0             -322.56        -0.078968285   -0.061554611   -0.11379565    -0.061554598   -1.0491344e-08 -1.1883128e-08 -2.6500478e-08  8.1000093      12.150015      16.200019      1594.3287    
        30   0             -322.56        -0.078968391   -0.061554718   -0.11379575    -0.061554708   -1.0193695e-08 -7.6039925e-09 -5.0545709e-09  8.1000093      12.150015      16.200019      1594.3287    
        31   0             -322.56        -0.078968407   -0.06155473    -0.11379577    -0.061554723   -8.671667e-09  -9.0143019e-10 -2.8854732e-09  8.1000093      12.150015      16.200019      1594.3287    
        32   0             -322.56        -0.078968415   -0.061554733   -0.11379578    -0.06155473    -4.5734802e-09 -6.0742232e-10 -2.6588923e-10  8.1000093      12.150015      16.200019      1594.3287    
        33   0             -322.56        -0.07896842    -0.061554736   -0.11379579    -0.061554734   -2.6644476e-09 -1.4184582e-10  1.8382765e-10  8.1000093      12.150015      16.200019      1594.3287    
        34   0             -322.56        -0.078968421   -0.061554738   -0.11379579    -0.061554736   -1.4166099e-09 -9.0976266e-11  9.1403369e-11  8.1000093      12.150015      16.200019      1594.3287    
        35   0             -322.56        -0.078968422   -0.061554738   -0.11379579    -0.061554738   -7.2223361e-10 -4.2930188e-11 -1.7935121e-14  8.1000093      12.150015      16.200019      1594.3287    
        36   0             -322.56        -0.078968422   -0.061554739   -0.11379579    -0.061554738   -3.4012792e-10 -1.8758523e-11  1.9865283e-11  8.1000093      12.150015      16.200019      1594.3287    
        37   0             -322.56        -0.078968423   -0.061554739   -0.11379579    -0.061554738   -9.0311451e-11  1.4522578e-11  2.8215282e-13  8.1000093      12.150015      16.200019      1594.3287    
        38   0             -322.56        -0.078968423   -0.061554739   -0.11379579    -0.061554739   -2.7731818e-11 -3.9368372e-12 -8.4752945e-13  8.1000093      12.150015      16.200019      1594.3287    
        39   0             -322.56        -0.078968423   -0.061554739   -0.11379579    -0.061554739   -8.8592594e-12 -4.5224923e-12  7.6764227e-12  8.1000093      12.150015      16.200019      1594.3287    
        40   0             -322.56        -0.078968423   -0.061554739   -0.11379579    -0.061554739   -8.6430949e-12 -8.7342801e-12  1.3566963e-11  8.1000093      12.150015      16.200019      1594.3287    
        41   0             -322.56        -0.078968423   -0.061554739   -0.11379579    -0.061554739    1.900156e-11  -2.7223443e-11 -9.1561699e-12  8.1000093      12.150015      16.200019      1594.3287    
        42   0             -322.56        -0.078968423   -0.061554739   -0.11379579    -0.061554739   -6.6941275e-13  5.0625363e-12  2.8935669e-12  8.1000093      12.150015      16.200019      1594.3287    
        43   0             -322.56        -0.078968423   -0.061554739   -0.11379579    -0.061554739    3.3610099e-12  7.096569e-12   9.5345073e-13  8.1000093      12.150015      16.200019      1594.3287    
        44   0             -322.56        -0.078968423   -0.061554739   -0.11379579    -0.061554739    1.2994278e-11 -6.8104747e-12  3.3240209e-12  8.1000093      12.150015      16.200019      1594.3287    
        45   0             -322.56        -0.078968423   -0.061554739   -0.11379579    -0.061554739    7.4820821e-12 -1.0243374e-12  1.2311525e-11  8.1000093      12.150015      16.200019      1594.3287    
        46   0             -322.56        -0.078968423   -0.061554739   -0.11379579    -0.061554739    8.6500679e-12 -3.9205708e-12 -6.1275141e-12  8.1000093      12.150015      16.200019      1594.3287    
        47   0             -322.56        -0.078968423   -0.061554739   -0.11379579    -0.061554739    8.1828736e-12  5.5074082e-12  1.7376429e-11  8.1000093      12.150015      16.200019      1594.3287    
        48   0             -322.56        -0.078968423   -0.061554739   -0.11379579    -0.061554739    2.4858922e-12  2.9901765e-12  8.9990446e-12  8.1000093      12.150015      16.200019      1594.3287    
        49   0             -322.56        -0.078968423   -0.061554739   -0.11379579    -0.061554739    9.6018892e-12  6.7761715e-12  3.028452e-11   8.1000093      12.150015      16.200019      1594.3287    
        50   0             -322.56        -0.078968423   -0.061554739   -0.11379579    -0.061554739   -1.2917574e-11 -1.0142319e-11 -4.4854474e-12  8.1000093      12.150015      16.200019      1594.3287    
        51   0             -322.56        -0.078968423   -0.061554739   -0.11379579    -0.061554739    5.0450013e-12  1.670109e-11   8.3641869e-12  8.1000093      12.150015      16.200019      1594.3287    
Loop time of 0.007321 on 1 procs for 25 steps with 96 atoms

213.4% CPU use with 1 MPI tasks x 1 OpenMP threads

Minimization stats:
  Stopping criterion = force tolerance
  Energy initial, next-to-last, final = 
     -322.559998845201  -322.559998865638  -322.559998865639
  Force two-norm initial, final = 0.00049225599 6.2693317e-11
  Force max component initial, final = 7.4972044e-05 1.077829e-11
  Final line search alpha, max atom move = 1 1.077829e-11
  Iterations, force evaluations = 25 50

MPI task timing breakdown:
Section |  min time  |  avg time  |  max time  |%varavg| %total
---------------------------------------------------------------
Pair    | 0.006844   | 0.006844   | 0.006844   |   0.0 | 93.48
Neigh   | 0          | 0          | 0          |   0.0 |  0.00
Comm    | 0.000145   | 0.000145   | 0.000145   |   0.0 |  1.98
Output  | 0.000226   | 0.000226   | 0.000226   |   0.0 |  3.09
Modify  | 0          | 0          | 0          |   0.0 |  0.00
Other   |            | 0.000106   |            |       |  1.45

Nlocal:             96 ave          96 max          96 min
Histogram: 1 0 0 0 0 0 0 0 0 0
Nghost:            976 ave         976 max         976 min
Histogram: 1 0 0 0 0 0 0 0 0 0
Neighs:           4128 ave        4128 max        4128 min
Histogram: 1 0 0 0 0 0 0 0 0 0

Total # of neighbors = 4128
Ave neighs/atom = 43
Neighbor list builds = 0
Dangerous builds = 0
OMP_NUM_THREADS environment is not set. Defaulting to 1 thread. (src/comm.cpp:98)
  using 1 OpenMP thread(s) per MPI task
Loaded 1 plugins from F:\Lammps\LAMMPS 64-bit 2Aug2023\plugins

The 'box' command has been removed and will be ignored

Reading restart file ...
  restart file = 2 Aug 2023, LAMMPS = 2 Aug 2023
  restoring atom style atomic from restart
  triclinic box = (-0.010004662 -0.015006993 -0.020009324) to (8.0900047 12.135007 16.180009) with tilt (0 0 0)
  1 by 1 by 1 MPI processor grid
  pair style eam/alloy stores no restart info
  96 atoms
  read_restart CPU = 0.000 seconds
Changing box ...
  triclinic box = (-0.010004662 -0.015006993 -0.020009324) to (8.0900047 12.135007 16.180008) with tilt (0 0 0)
Neighbor list info ...
  update: every = 1 steps, delay = 0 steps, check = yes
  max neighbors/atom: 2000, page size: 100000
  master list distance cutoff = 7.28721
  ghost atom cutoff = 7.28721
  1 neighbor lists, perpetual/occasional/extra = 1 0 0
  (1) pair eam/alloy, perpetual
      attributes: half, newton on
      pair build: half/nsq/newton
      stencil: none
      bin: none
Setting up cg style minimization ...
  Unit style    : metal
  Current step  : 26
Per MPI rank memory allocation (min/avg/max) = 4.449 | 4.449 | 4.449 Mbytes
   Step          Temp          PotEng         Press           Pxx            Pyy            Pzz            Pxy            Pxz            Pyz             Lx             Ly             Lz           Volume    
        26   0             -322.56         0.078991006    0.061575186    0.061575118    0.11382271     1.6311267e-06 -3.9785376e-07  1.7612504e-06  8.1000093      12.150014      16.200017      1594.3283    
        27   0             -322.56         0.078972232    0.061558428    0.061558584    0.11379968    -3.104174e-07   6.4491396e-08 -2.6735965e-08  8.1000093      12.150014      16.200017      1594.3283    
        28   0             -322.56         0.078969271    0.061555406    0.061555637    0.11379677     6.5524588e-08 -8.9599797e-08  8.4681948e-08  8.1000093      12.150014      16.200017      1594.3283    
        29   0             -322.56         0.078968585    0.06155488     0.061554897    0.11379598    -1.0497586e-08 -1.1878153e-08 -2.6523115e-08  8.1000093      12.150014      16.200017      1594.3283    
        30   0             -322.56         0.078968479    0.061554773    0.061554797    0.11379587    -1.0193154e-08 -7.5858166e-09 -5.1001262e-09  8.1000093      12.150014      16.200017      1594.3283    
        31   0             -322.56         0.078968462    0.061554761    0.061554774    0.11379585    -8.6649502e-09 -9.2862313e-10 -2.8747589e-09  8.1000093      12.150014      16.200017      1594.3283    
        32   0             -322.56         0.078968454    0.061554758    0.061554761    0.11379584    -4.5474194e-09 -5.8839553e-10 -2.0524294e-10  8.1000093      12.150014      16.200017      1594.3283    
        33   0             -322.56         0.07896845     0.061554755    0.061554755    0.11379584    -2.6637961e-09 -1.5566242e-10  1.5048471e-10  8.1000093      12.150014      16.200017      1594.3283    
        34   0             -322.56         0.078968448    0.061554753    0.061554753    0.11379584    -1.4270174e-09 -8.5899172e-11  9.5299596e-11  8.1000093      12.150014      16.200017      1594.3283    
        35   0             -322.56         0.078968448    0.061554753    0.061554753    0.11379584    -7.4287049e-10 -9.464159e-11   4.0282742e-11  8.1000093      12.150014      16.200017      1594.3283    
        36   0             -322.56         0.078968447    0.061554752    0.061554753    0.11379584    -3.4608995e-10 -1.8443131e-11 -3.0321228e-11  8.1000093      12.150014      16.200017      1594.3283    
        37   0             -322.56         0.078968447    0.061554752    0.061554752    0.11379584    -1.007048e-10   6.0562692e-12 -9.8363991e-12  8.1000093      12.150014      16.200017      1594.3283    
        38   0             -322.56         0.078968447    0.061554752    0.061554752    0.11379584    -2.4817088e-11  1.2451954e-11 -3.6800932e-11  8.1000093      12.150014      16.200017      1594.3283    
        39   0             -322.56         0.078968447    0.061554752    0.061554752    0.11379584    -4.9892179e-12 -1.0585416e-11 -7.533937e-13   8.1000093      12.150014      16.200017      1594.3283    
        40   0             -322.56         0.078968447    0.061554752    0.061554752    0.11379584    -5.0903272e-12 -2.566924e-11  -2.1311892e-11  8.1000093      12.150014      16.200017      1594.3283    
        41   0             -322.56         0.078968447    0.061554752    0.061554752    0.11379584    -1.2694439e-11 -1.4888609e-11 -2.7691734e-11  8.1000093      12.150014      16.200017      1594.3283    
        42   0             -322.56         0.078968447    0.061554752    0.061554752    0.11379584    -6.6627502e-12 -1.7061447e-11 -5.2435888e-12  8.1000093      12.150014      16.200017      1594.3283    
        43   0             -322.56         0.078968447    0.061554752    0.061554752    0.11379584     1.4089049e-11 -3.4223565e-12 -1.3561803e-11  8.1000093      12.150014      16.200017      1594.3283    
        44   0             -322.56         0.078968447    0.061554752    0.061554752    0.11379584     4.6091867e-12  1.5866348e-11  2.4175039e-12  8.1000093      12.150014      16.200017      1594.3283    
        45   0             -322.56         0.078968447    0.061554752    0.061554752    0.11379584     8.4373916e-12  2.1952658e-12 -3.2058751e-12  8.1000093      12.150014      16.200017      1594.3283    
        46   0             -322.56         0.078968447    0.061554752    0.061554752    0.11379584     3.1099807e-12 -5.3705088e-12  1.6500281e-11  8.1000093      12.150014      16.200017      1594.3283    
        47   0             -322.56         0.078968447    0.061554752    0.061554752    0.11379584    -2.05705e-12    6.1151125e-12 -1.0919227e-11  8.1000093      12.150014      16.200017      1594.3283    
        48   0             -322.56         0.078968447    0.061554752    0.061554752    0.11379584     8.2247136e-12  1.4306758e-12  4.3295666e-12  8.1000093      12.150014      16.200017      1594.3283    
        49   0             -322.56         0.078968447    0.061554752    0.061554752    0.11379584     8.2456327e-12 -2.0561511e-11 -6.5922988e-12  8.1000093      12.150014      16.200017      1594.3283    
        50   0             -322.56         0.078968447    0.061554752    0.061554752    0.11379584    -9.0649662e-13  2.0539201e-11  5.0886495e-12  8.1000093      12.150014      16.200017      1594.3283    
        51   0             -322.56         0.078968447    0.061554752    0.061554752    0.11379584     9.6123507e-12  1.884394e-11   4.4723784e-11  8.1000093      12.150014      16.200017      1594.3283    
Loop time of 0.007105 on 1 procs for 25 steps with 96 atoms

0.0% CPU use with 1 MPI tasks x 1 OpenMP threads

Minimization stats:
  Stopping criterion = force tolerance
  Energy initial, next-to-last, final = 
       -322.5599988452  -322.559998865637  -322.559998865639
  Force two-norm initial, final = 0.00049225614 6.2675942e-11
  Force max component initial, final = 7.4972069e-05 1.0786809e-11
  Final line search alpha, max atom move = 1 1.0786809e-11
  Iterations, force evaluations = 25 50

MPI task timing breakdown:
Section |  min time  |  avg time  |  max time  |%varavg| %total
---------------------------------------------------------------
Pair    | 0.006577   | 0.006577   | 0.006577   |   0.0 | 92.57
Neigh   | 0          | 0          | 0          |   0.0 |  0.00
Comm    | 0.000137   | 0.000137   | 0.000137   |   0.0 |  1.93
Output  | 0.000288   | 0.000288   | 0.000288   |   0.0 |  4.05
Modify  | 0          | 0          | 0          |   0.0 |  0.00
Other   |            | 0.000103   |            |       |  1.45

Nlocal:             96 ave          96 max          96 min
Histogram: 1 0 0 0 0 0 0 0 0 0
Nghost:            976 ave         976 max         976 min
Histogram: 1 0 0 0 0 0 0 0 0 0
Neighs:           4128 ave        4128 max        4128 min
Histogram: 1 0 0 0 0 0 0 0 0 0

Total # of neighbors = 4128
Ave neighs/atom = 43
Neighbor list builds = 0
Dangerous builds = 0
OMP_NUM_THREADS environment is not set. Defaulting to 1 thread. (src/comm.cpp:98)
  using 1 OpenMP thread(s) per MPI task
Loaded 1 plugins from F:\Lammps\LAMMPS 64-bit 2Aug2023\plugins

The 'box' command has been removed and will be ignored

Reading restart file ...
  restart file = 2 Aug 2023, LAMMPS = 2 Aug 2023
  restoring atom style atomic from restart
  triclinic box = (-0.010004662 -0.015006993 -0.020009324) to (8.0900047 12.135007 16.180009) with tilt (0 0 0)
  1 by 1 by 1 MPI processor grid
  pair style eam/alloy stores no restart info
  96 atoms
  read_restart CPU = 0.000 seconds
Changing box ...
  triclinic box = (-0.010004662 -0.015006993 -0.020009324) to (8.0900047 12.135007 16.180011) with tilt (0 0 0)
Neighbor list info ...
  update: every = 1 steps, delay = 0 steps, check = yes
  max neighbors/atom: 2000, page size: 100000
  master list distance cutoff = 7.28721
  ghost atom cutoff = 7.28721
  1 neighbor lists, perpetual/occasional/extra = 1 0 0
  (1) pair eam/alloy, perpetual
      attributes: half, newton on
      pair build: half/nsq/newton
      stencil: none
      bin: none
Setting up cg style minimization ...
  Unit style    : metal
  Current step  : 26
Per MPI rank memory allocation (min/avg/max) = 4.449 | 4.449 | 4.449 Mbytes
   Step          Temp          PotEng         Press           Pxx            Pyy            Pzz            Pxy            Pxz            Pyz             Lx             Ly             Lz           Volume    
        26   0             -322.56        -0.078945863   -0.061534304   -0.061534372   -0.11376891     1.6311505e-06 -3.9784364e-07  1.7612841e-06  8.1000093      12.150014      16.20002       1594.3287    
        27   0             -322.56        -0.078964637   -0.061551062   -0.061550907   -0.11379194    -3.1043499e-07  6.4499205e-08 -2.6744858e-08  8.1000093      12.150014      16.20002       1594.3287    
        28   0             -322.56        -0.078967598   -0.061554085   -0.061553854   -0.11379486     6.5498346e-08 -8.9578254e-08  8.470085e-08   8.1000093      12.150014      16.20002       1594.3287    
        29   0             -322.56        -0.078968285   -0.061554611   -0.061554593   -0.11379565    -1.0486079e-08 -1.1870353e-08 -2.6476092e-08  8.1000093      12.150014      16.20002       1594.3287    
        30   0             -322.56        -0.078968391   -0.061554718   -0.061554694   -0.11379576    -1.0209807e-08 -7.5676072e-09 -5.014367e-09   8.1000093      12.150014      16.20002       1594.3287    
        31   0             -322.56        -0.078968407   -0.06155473    -0.061554717   -0.11379578    -8.6411006e-09 -9.3986908e-10 -2.8391557e-09  8.1000093      12.150014      16.20002       1594.3287    
        32   0             -322.56        -0.078968415   -0.061554733   -0.06155473    -0.11379578    -4.5704365e-09 -6.0260138e-10 -2.5083567e-10  8.1000093      12.150014      16.20002       1594.3287    
        33   0             -322.56        -0.07896842    -0.061554736   -0.061554736   -0.11379579    -2.6658247e-09 -1.4501111e-10  1.6706174e-10  8.1000093      12.150014      16.20002       1594.3287    
        34   0             -322.56        -0.078968421   -0.061554738   -0.061554738   -0.11379579    -1.4191271e-09 -8.4585319e-11  1.0492372e-10  8.1000093      12.150014      16.20002       1594.3287    
        35   0             -322.56        -0.078968422   -0.061554738   -0.061554738   -0.11379579    -7.2531918e-10 -8.7895241e-11 -8.1427413e-12  8.1000093      12.150014      16.20002       1594.3287    
        36   0             -322.56        -0.078968422   -0.061554738   -0.061554738   -0.11379579    -3.4375042e-10 -4.5817099e-11 -9.2747775e-12  8.1000093      12.150014      16.20002       1594.3287    
        37   0             -322.56        -0.078968423   -0.061554739   -0.061554739   -0.11379579    -1.0093141e-10 -1.5310728e-11 -4.3733898e-11  8.1000093      12.150014      16.20002       1594.3287    
        38   0             -322.56        -0.078968423   -0.061554739   -0.061554739   -0.11379579    -1.4399347e-12  8.5920498e-12 -2.4768861e-11  8.1000093      12.150014      16.20002       1594.3287    
        39   0             -322.56        -0.078968423   -0.061554739   -0.061554739   -0.11379579     1.006211e-11  -3.0423466e-12 -1.2573975e-11  8.1000093      12.150014      16.20002       1594.3287    
        40   0             -322.56        -0.078968423   -0.061554739   -0.061554739   -0.11379579     3.7389492e-11 -8.9709279e-13  1.8299325e-11  8.1000093      12.150014      16.20002       1594.3287    
        41   0             -322.56        -0.078968423   -0.061554739   -0.061554739   -0.11379579    -3.0541957e-12  2.7087134e-12  1.9227463e-11  8.1000093      12.150014      16.20002       1594.3287    
        42   0             -322.56        -0.078968423   -0.061554739   -0.061554739   -0.11379579     1.0368925e-11  1.508662e-11   1.9568936e-11  8.1000093      12.150014      16.20002       1594.3287    
        43   0             -322.56        -0.078968423   -0.061554739   -0.061554739   -0.11379579     3.800312e-12   8.3105132e-12 -7.177147e-12   8.1000093      12.150014      16.20002       1594.3287    
        44   0             -322.56        -0.078968423   -0.061554739   -0.061554739   -0.11379579    -2.4405673e-13 -2.3201942e-12 -1.2756612e-11  8.1000093      12.150014      16.20002       1594.3287    
        45   0             -322.56        -0.078968423   -0.061554739   -0.061554739   -0.11379579     1.4688729e-11 -9.4846975e-12  1.2483399e-11  8.1000093      12.150014      16.20002       1594.3287    
        46   0             -322.56        -0.078968423   -0.061554739   -0.061554739   -0.11379579    -9.3055346e-12 -1.4407906e-11 -1.224296e-11   8.1000093      12.150014      16.20002       1594.3287    
        47   0             -322.56        -0.078968423   -0.061554739   -0.061554739   -0.11379579     4.6928623e-12  1.4151715e-11  6.8029543e-12  8.1000093      12.150014      16.20002       1594.3287    
        48   0             -322.56        -0.078968423   -0.061554739   -0.061554739   -0.11379579     4.8427829e-12  2.2782562e-12 -4.1248751e-12  8.1000093      12.150014      16.20002       1594.3287    
        49   0             -322.56        -0.078968423   -0.061554739   -0.061554739   -0.11379579     6.8789134e-12 -1.3769456e-11 -1.8892421e-11  8.1000093      12.150014      16.20002       1594.3287    
        50   0             -322.56        -0.078968423   -0.061554739   -0.061554739   -0.11379579     1.2328352e-11 -1.9953262e-11  2.3330203e-11  8.1000093      12.150014      16.20002       1594.3287    
        51   0             -322.56        -0.078968423   -0.061554739   -0.061554739   -0.11379579     1.2244675e-11 -7.9425269e-12  1.4834349e-11  8.1000093      12.150014      16.20002       1594.3287    
Loop time of 0.00719 on 1 procs for 25 steps with 96 atoms

0.0% CPU use with 1 MPI tasks x 1 OpenMP threads

Minimization stats:
  Stopping criterion = force tolerance
  Energy initial, next-to-last, final = 
     -322.559998845202  -322.559998865637  -322.559998865639
  Force two-norm initial, final = 0.00049225598 6.2707048e-11
  Force max component initial, final = 7.4972054e-05 1.0803334e-11
  Final line search alpha, max atom move = 1 1.0803334e-11
  Iterations, force evaluations = 25 50

MPI task timing breakdown:
Section |  min time  |  avg time  |  max time  |%varavg| %total
---------------------------------------------------------------
Pair    | 0.006714   | 0.006714   | 0.006714   |   0.0 | 93.38
Neigh   | 0          | 0          | 0          |   0.0 |  0.00
Comm    | 0.000134   | 0.000134   | 0.000134   |   0.0 |  1.86
Output  | 0.000236   | 0.000236   | 0.000236   |   0.0 |  3.28
Modify  | 0          | 0          | 0          |   0.0 |  0.00
Other   |            | 0.000106   |            |       |  1.47

Nlocal:             96 ave          96 max          96 min
Histogram: 1 0 0 0 0 0 0 0 0 0
Nghost:            976 ave         976 max         976 min
Histogram: 1 0 0 0 0 0 0 0 0 0
Neighs:           4128 ave        4128 max        4128 min
Histogram: 1 0 0 0 0 0 0 0 0 0

Total # of neighbors = 4128
Ave neighs/atom = 43
Neighbor list builds = 0
Dangerous builds = 0
OMP_NUM_THREADS environment is not set. Defaulting to 1 thread. (src/comm.cpp:98)
  using 1 OpenMP thread(s) per MPI task
Loaded 1 plugins from F:\Lammps\LAMMPS 64-bit 2Aug2023\plugins

The 'box' command has been removed and will be ignored

Reading restart file ...
  restart file = 2 Aug 2023, LAMMPS = 2 Aug 2023
  restoring atom style atomic from restart
  triclinic box = (-0.010004662 -0.015006993 -0.020009324) to (8.0900047 12.135007 16.180009) with tilt (0 0 0)
  1 by 1 by 1 MPI processor grid
  pair style eam/alloy stores no restart info
  96 atoms
  read_restart CPU = 0.000 seconds
Changing box ...
  triclinic box = (-0.010004662 -0.015006993 -0.020009324) to (8.0900047 12.135007 16.180009) with tilt (0 0 -1.6200019e-06)
Neighbor list info ...
  update: every = 1 steps, delay = 0 steps, check = yes
  max neighbors/atom: 2000, page size: 100000
  master list distance cutoff = 7.28721
  ghost atom cutoff = 7.28721
  1 neighbor lists, perpetual/occasional/extra = 1 0 0
  (1) pair eam/alloy, perpetual
      attributes: half, newton on
      pair build: half/nsq/newton
      stencil: none
      bin: none
Setting up cg style minimization ...
  Unit style    : metal
  Current step  : 26
Per MPI rank memory allocation (min/avg/max) = 4.449 | 4.449 | 4.449 Mbytes
   Step          Temp          PotEng         Press           Pxx            Pyy            Pzz            Pxy            Pxz            Pyz             Lx             Ly             Lz           Volume    
        26   0             -322.56         2.2570111e-05  2.0445987e-05  2.0375073e-05  2.6889274e-05  1.6311601e-06 -3.9784254e-07  0.031596336    8.1000093      12.150014      16.200019      1594.3285    
        27   0             -322.56         3.7963412e-06  3.6880758e-06  3.840074e-06   3.8608737e-06 -3.1040091e-07  6.4490683e-08  0.031594548    8.1000093      12.150014      16.200019      1594.3285    
        28   0             -322.56         8.3537018e-07  6.6547189e-07  8.934733e-07   9.4716535e-07  6.5496644e-08 -8.9579572e-08  0.03159466     8.1000093      12.150014      16.200019      1594.3285    
        29   0             -322.56         1.4898797e-07  1.399611e-07   1.5383659e-07  1.5316622e-07 -1.0483862e-08 -1.1900264e-08  0.031594549    8.1000093      12.150014      16.200019      1594.3285    
        30   0             -322.56         4.2969444e-08  3.2378752e-08  5.305803e-08   4.347155e-08  -1.0193208e-08 -7.5788317e-09  0.03159457     8.1000093      12.150014      16.200019      1594.3285    
        31   0             -322.56         2.6463894e-08  2.0675331e-08  3.0688833e-08  2.8027517e-08 -8.6736586e-09 -9.0342401e-10  0.031594572    8.1000093      12.150014      16.200019      1594.3285    
        32   0             -322.56         1.8593581e-08  1.7150974e-08  1.7559016e-08  2.1070754e-08 -4.5523245e-09 -6.269283e-10   0.031594575    8.1000093      12.150014      16.200019      1594.3285    
        33   0             -322.56         1.4196678e-08  1.4322903e-08  1.1519099e-08  1.6748031e-08 -2.6735755e-09 -1.561911e-10   0.031594575    8.1000093      12.150014      16.200019      1594.3285    
        34   0             -322.56         1.2464424e-08  1.2948853e-08  9.6756127e-09  1.4768806e-08 -1.4432157e-09 -7.5581641e-11  0.031594575    8.1000093      12.150014      16.200019      1594.3285    
        35   0             -322.56         1.1733063e-08  1.2346232e-08  9.3421127e-09  1.3510846e-08 -7.6339559e-10 -5.9500931e-11  0.031594575    8.1000093      12.150014      16.200019      1594.3285    
        36   0             -322.56         1.1347826e-08  1.2081475e-08  9.0176671e-09  1.2944334e-08 -3.4823761e-10 -4.4495332e-11  0.031594575    8.1000093      12.150014      16.200019      1594.3285    
        37   0             -322.56         1.1190556e-08  1.1966671e-08  8.9124438e-09  1.2692552e-08 -1.0914567e-10 -1.7941148e-11  0.031594575    8.1000093      12.150014      16.200019      1594.3285    
        38   0             -322.56         1.1100989e-08  1.1892066e-08  8.8263196e-09  1.2584582e-08 -2.1368912e-11 -1.8614331e-11  0.031594575    8.1000093      12.150014      16.200019      1594.3285    
        39   0             -322.56         1.104336e-08   1.1856127e-08  8.7631054e-09  1.2510846e-08 -1.1599669e-11  1.879414e-12   0.031594575    8.1000093      12.150014      16.200019      1594.3285    
        40   0             -322.56         1.1022977e-08  1.1846459e-08  8.7158561e-09  1.2506615e-08 -7.6982475e-12 -3.1829078e-12  0.031594575    8.1000093      12.150014      16.200019      1594.3285    
        41   0             -322.56         1.1016938e-08  1.1835156e-08  8.7355898e-09  1.2480068e-08  1.7781278e-13 -1.6066549e-11  0.031594575    8.1000093      12.150014      16.200019      1594.3285    
        42   0             -322.56         1.1030274e-08  1.1851686e-08  8.719245e-09   1.2519893e-08  2.3324853e-12  1.8003969e-11  0.031594575    8.1000093      12.150014      16.200019      1594.3285    
        43   0             -322.56         1.1028706e-08  1.1834134e-08  8.7410706e-09  1.2510912e-08 -3.2389818e-12  1.4106347e-11  0.031594575    8.1000093      12.150014      16.200019      1594.3285    
        44   0             -322.56         1.1025028e-08  1.1847202e-08  8.7455787e-09  1.2482303e-08 -2.5207577e-12 -2.8121597e-12  0.031594575    8.1000093      12.150014      16.200019      1594.3285    
        45   0             -322.56         1.099129e-08   1.1824041e-08  8.705644e-09   1.2444184e-08 -6.8475353e-12 -3.2119212e-12  0.031594575    8.1000093      12.150014      16.200019      1594.3285    
        46   0             -322.56         1.101254e-08   1.1847854e-08  8.7319917e-09  1.2457774e-08 -3.9641791e-12 -3.0915741e-11  0.031594575    8.1000093      12.150014      16.200019      1594.3285    
        47   0             -322.56         1.100526e-08   1.1801668e-08  8.7197819e-09  1.2494329e-08 -1.0219005e-11 -2.5217834e-13  0.031594575    8.1000093      12.150014      16.200019      1594.3285    
        48   0             -322.56         1.099048e-08   1.1840647e-08  8.7049502e-09  1.2425842e-08  2.1504887e-11  1.7954671e-11  0.031594575    8.1000093      12.150014      16.200019      1594.3285    
        49   0             -322.56         1.1008111e-08  1.1849245e-08  8.7258275e-09  1.2449261e-08 -1.536163e-11  -1.0430863e-11  0.031594575    8.1000093      12.150014      16.200019      1594.3285    
        50   0             -322.56         1.1020621e-08  1.1871315e-08  8.7250291e-09  1.246552e-08   9.2985625e-12  1.7970131e-11  0.031594575    8.1000093      12.150014      16.200019      1594.3285    
        51   0             -322.56         1.101901e-08   1.1860388e-08  8.7073106e-09  1.248933e-08   4.368616e-12  -1.7028427e-11  0.031594575    8.1000093      12.150014      16.200019      1594.3285    
Loop time of 0.007025 on 1 procs for 25 steps with 96 atoms

0.0% CPU use with 1 MPI tasks x 1 OpenMP threads

Minimization stats:
  Stopping criterion = force tolerance
  Energy initial, next-to-last, final = 
     -322.559998845205  -322.559998865642  -322.559998865643
  Force two-norm initial, final = 0.00049225607 6.2666098e-11
  Force max component initial, final = 7.4972065e-05 1.0727788e-11
  Final line search alpha, max atom move = 1 1.0727788e-11
  Iterations, force evaluations = 25 50

MPI task timing breakdown:
Section |  min time  |  avg time  |  max time  |%varavg| %total
---------------------------------------------------------------
Pair    | 0.006514   | 0.006514   | 0.006514   |   0.0 | 92.73
Neigh   | 0          | 0          | 0          |   0.0 |  0.00
Comm    | 0.000129   | 0.000129   | 0.000129   |   0.0 |  1.84
Output  | 0.00025    | 0.00025    | 0.00025    |   0.0 |  3.56
Modify  | 0          | 0          | 0          |   0.0 |  0.00
Other   |            | 0.000132   |            |       |  1.88

Nlocal:             96 ave          96 max          96 min
Histogram: 1 0 0 0 0 0 0 0 0 0
Nghost:            976 ave         976 max         976 min
Histogram: 1 0 0 0 0 0 0 0 0 0
Neighs:           4128 ave        4128 max        4128 min
Histogram: 1 0 0 0 0 0 0 0 0 0

Total # of neighbors = 4128
Ave neighs/atom = 43
Neighbor list builds = 0
Dangerous builds = 0
OMP_NUM_THREADS environment is not set. Defaulting to 1 thread. (src/comm.cpp:98)
  using 1 OpenMP thread(s) per MPI task
Loaded 1 plugins from F:\Lammps\LAMMPS 64-bit 2Aug2023\plugins

The 'box' command has been removed and will be ignored

Reading restart file ...
  restart file = 2 Aug 2023, LAMMPS = 2 Aug 2023
  restoring atom style atomic from restart
  triclinic box = (-0.010004662 -0.015006993 -0.020009324) to (8.0900047 12.135007 16.180009) with tilt (0 0 0)
  1 by 1 by 1 MPI processor grid
  pair style eam/alloy stores no restart info
  96 atoms
  read_restart CPU = 0.000 seconds
Changing box ...
  triclinic box = (-0.010004662 -0.015006993 -0.020009324) to (8.0900047 12.135007 16.180009) with tilt (0 0 1.6200019e-06)
Neighbor list info ...
  update: every = 1 steps, delay = 0 steps, check = yes
  max neighbors/atom: 2000, page size: 100000
  master list distance cutoff = 7.28721
  ghost atom cutoff = 7.28721
  1 neighbor lists, perpetual/occasional/extra = 1 0 0
  (1) pair eam/alloy, perpetual
      attributes: half, newton on
      pair build: half/nsq/newton
      stencil: none
      bin: none
Setting up cg style minimization ...
  Unit style    : metal
  Current step  : 26
Per MPI rank memory allocation (min/avg/max) = 4.449 | 4.449 | 4.449 Mbytes
   Step          Temp          PotEng         Press           Pxx            Pyy            Pzz            Pxy            Pxz            Pyz             Lx             Ly             Lz           Volume    
        26   0             -322.56         2.2570178e-05  2.0446047e-05  2.0375154e-05  2.6889333e-05  1.631127e-06  -3.9783674e-07 -0.031592814    8.1000093      12.150014      16.200019      1594.3285    
        27   0             -322.56         3.7964138e-06  3.6881564e-06  3.8401419e-06  3.860943e-06  -3.1041243e-07  6.4493158e-08 -0.031594602    8.1000093      12.150014      16.200019      1594.3285    
        28   0             -322.56         8.3538423e-07  6.654588e-07   8.9351643e-07  9.4717746e-07  6.5513683e-08 -8.9611451e-08 -0.03159449     8.1000093      12.150014      16.200019      1594.3285    
        29   0             -322.56         1.4899245e-07  1.3994876e-07  1.5383308e-07  1.531955e-07  -1.048577e-08  -1.188053e-08  -0.031594602    8.1000093      12.150014      16.200019      1594.3285    
        30   0             -322.56         4.2948472e-08  3.231438e-08   5.3017764e-08  4.3513272e-08 -1.0187801e-08 -7.5609165e-09 -0.03159458     8.1000093      12.150014      16.200019      1594.3285    
        31   0             -322.56         2.6430418e-08  2.0673093e-08  3.0681543e-08  2.7936618e-08 -8.6625401e-09 -9.4076648e-10 -0.031594578    8.1000093      12.150014      16.200019      1594.3285    
        32   0             -322.56         1.8595648e-08  1.715871e-08   1.7588017e-08  2.1040216e-08 -4.5485451e-09 -6.0307929e-10 -0.031594575    8.1000093      12.150014      16.200019      1594.3285    
        33   0             -322.56         1.4200272e-08  1.4323729e-08  1.1511327e-08  1.6765758e-08 -2.6723866e-09 -1.4928438e-10 -0.031594575    8.1000093      12.150014      16.200019      1594.3285    
        34   0             -322.56         1.2488947e-08  1.2984702e-08  9.6830286e-09  1.4799111e-08 -1.4178791e-09 -6.9565406e-11 -0.031594575    8.1000093      12.150014      16.200019      1594.3285    
        35   0             -322.56         1.1719578e-08  1.2320097e-08  9.2989843e-09  1.3539653e-08 -7.3612051e-10 -6.3483892e-11 -0.031594575    8.1000093      12.150014      16.200019      1594.3285    
        36   0             -322.56         1.1355889e-08  1.2097723e-08  9.0464972e-09  1.2923447e-08 -3.5638214e-10 -2.1660775e-11 -0.031594575    8.1000093      12.150014      16.200019      1594.3285    
        37   0             -322.56         1.120232e-08   1.1998409e-08  8.9287502e-09  1.26798e-08   -1.0095931e-10 -9.0051351e-12 -0.031594575    8.1000093      12.150014      16.200019      1594.3285    
        38   0             -322.56         1.1083441e-08  1.1898694e-08  8.8188027e-09  1.2532825e-08 -2.5312172e-11  7.527649e-12  -0.031594575    8.1000093      12.150014      16.200019      1594.3285    
        39   0             -322.56         1.1064542e-08  1.1856455e-08  8.8063593e-09  1.2530812e-08  6.7289935e-13 -5.5751181e-12 -0.031594575    8.1000093      12.150014      16.200019      1594.3285    
        40   0             -322.56         1.0991132e-08  1.1817765e-08  8.7241435e-09  1.2431488e-08  3.5911209e-12 -1.2158136e-11 -0.031594575    8.1000093      12.150014      16.200019      1594.3285    
        41   0             -322.56         1.1001524e-08  1.1840281e-08  8.7235787e-09  1.2440712e-08  2.8101392e-12  1.0976842e-11 -0.031594575    8.1000093      12.150014      16.200019      1594.3285    
        42   0             -322.56         1.1017027e-08  1.1839563e-08  8.729056e-09   1.2482463e-08 -4.8218642e-12  6.6057386e-12 -0.031594575    8.1000093      12.150014      16.200019      1594.3285    
        43   0             -322.56         1.0997726e-08  1.179284e-08   8.7316953e-09  1.2468641e-08 -1.4636432e-11  6.1133191e-12 -0.031594575    8.1000093      12.150014      16.200019      1594.3285    
        44   0             -322.56         1.1065523e-08  1.1852121e-08  8.8142876e-09  1.2530159e-08 -4.7765394e-13 -9.0666852e-12 -0.031594575    8.1000093      12.150014      16.200019      1594.3285    
        45   0             -322.56         1.1030792e-08  1.1834654e-08  8.7450906e-09  1.2512631e-08  1.3548637e-11  2.0065808e-11 -0.031594575    8.1000093      12.150014      16.200019      1594.3285    
        46   0             -322.56         1.1019172e-08  1.1827709e-08  8.7178469e-09  1.2511962e-08 -7.2624318e-12 -3.681106e-11  -0.031594575    8.1000093      12.150014      16.200019      1594.3285    
        47   0             -322.56         1.1024612e-08  1.1845061e-08  8.7293001e-09  1.2499475e-08  6.7533991e-12 -8.9181941e-12 -0.031594575    8.1000093      12.150014      16.200019      1594.3285    
        48   0             -322.56         1.1024327e-08  1.183556e-08   8.7526354e-09  1.2484786e-08  1.8154336e-11  2.0988605e-14 -0.031594575    8.1000093      12.150014      16.200019      1594.3285    
        49   0             -322.56         1.0993768e-08  1.1817598e-08  8.7344601e-09  1.2429247e-08  2.0640229e-11 -1.3777089e-12 -0.031594575    8.1000093      12.150014      16.200019      1594.3285    
        50   0             -322.56         1.1004824e-08  1.1859387e-08  8.7013207e-09  1.2453763e-08 -1.1174313e-11  1.6286254e-12 -0.031594575    8.1000093      12.150014      16.200019      1594.3285    
        51   0             -322.56         1.1012377e-08  1.1825903e-08  8.756094e-09   1.2455134e-08 -2.4597435e-11  5.0638003e-12 -0.031594575    8.1000093      12.150014      16.200019      1594.3285    
Loop time of 0.007331 on 1 procs for 25 steps with 96 atoms

0.0% CPU use with 1 MPI tasks x 1 OpenMP threads

Minimization stats:
  Stopping criterion = force tolerance
  Energy initial, next-to-last, final = 
     -322.559998845205  -322.559998865641  -322.559998865643
  Force two-norm initial, final = 0.00049225606 6.2718803e-11
  Force max component initial, final = 7.4972057e-05 1.0882979e-11
  Final line search alpha, max atom move = 1 1.0882979e-11
  Iterations, force evaluations = 25 50

MPI task timing breakdown:
Section |  min time  |  avg time  |  max time  |%varavg| %total
---------------------------------------------------------------
Pair    | 0.006807   | 0.006807   | 0.006807   |   0.0 | 92.85
Neigh   | 0          | 0          | 0          |   0.0 |  0.00
Comm    | 0.000138   | 0.000138   | 0.000138   |   0.0 |  1.88
Output  | 0.000275   | 0.000275   | 0.000275   |   0.0 |  3.75
Modify  | 0          | 0          | 0          |   0.0 |  0.00
Other   |            | 0.000111   |            |       |  1.51

Nlocal:             96 ave          96 max          96 min
Histogram: 1 0 0 0 0 0 0 0 0 0
Nghost:            976 ave         976 max         976 min
Histogram: 1 0 0 0 0 0 0 0 0 0
Neighs:           4128 ave        4128 max        4128 min
Histogram: 1 0 0 0 0 0 0 0 0 0

Total # of neighbors = 4128
Ave neighs/atom = 43
Neighbor list builds = 0
Dangerous builds = 0
OMP_NUM_THREADS environment is not set. Defaulting to 1 thread. (src/comm.cpp:98)
  using 1 OpenMP thread(s) per MPI task
Loaded 1 plugins from F:\Lammps\LAMMPS 64-bit 2Aug2023\plugins

The 'box' command has been removed and will be ignored

Reading restart file ...
  restart file = 2 Aug 2023, LAMMPS = 2 Aug 2023
  restoring atom style atomic from restart
  triclinic box = (-0.010004662 -0.015006993 -0.020009324) to (8.0900047 12.135007 16.180009) with tilt (0 0 0)
  1 by 1 by 1 MPI processor grid
  pair style eam/alloy stores no restart info
  96 atoms
  read_restart CPU = 0.000 seconds
Changing box ...
  triclinic box = (-0.010004662 -0.015006993 -0.020009324) to (8.0900047 12.135007 16.180009) with tilt (0 -1.6200019e-06 0)
Neighbor list info ...
  update: every = 1 steps, delay = 0 steps, check = yes
  max neighbors/atom: 2000, page size: 100000
  master list distance cutoff = 7.28721
  ghost atom cutoff = 7.28721
  1 neighbor lists, perpetual/occasional/extra = 1 0 0
  (1) pair eam/alloy, perpetual
      attributes: half, newton on
      pair build: half/nsq/newton
      stencil: none
      bin: none
Setting up cg style minimization ...
  Unit style    : metal
  Current step  : 26
Per MPI rank memory allocation (min/avg/max) = 4.449 | 4.449 | 4.449 Mbytes
   Step          Temp          PotEng         Press           Pxx            Pyy            Pzz            Pxy            Pxz            Pyz             Lx             Ly             Lz           Volume    
        26   0             -322.56         2.257019e-05   2.0442877e-05  2.0378332e-05  2.6889361e-05  1.6311327e-06  0.031594177    1.7612625e-06  8.1000093      12.150014      16.200019      1594.3285    
        27   0             -322.56         3.7963571e-06  3.6849384e-06  3.843269e-06   3.860864e-06  -3.1041913e-07  0.03159464    -2.6743762e-08  8.1000093      12.150014      16.200019      1594.3285    
        28   0             -322.56         8.3539713e-07  6.6228451e-07  8.967024e-07   9.4720449e-07  6.5526279e-08  0.031594486    8.4680164e-08  8.1000093      12.150014      16.200019      1594.3285    
        29   0             -322.56         1.4898767e-07  1.3673494e-07  1.570377e-07   1.5319037e-07 -1.0505566e-08  0.031594563   -2.6500112e-08  8.1000093      12.150014      16.200019      1594.3285    
        30   0             -322.56         4.2931848e-08  2.9128861e-08  5.6176036e-08  4.3490647e-08 -1.0192874e-08  0.031594568   -5.0639814e-09  8.1000093      12.150014      16.200019      1594.3285    
        31   0             -322.56         2.6458579e-08  1.7511554e-08  3.3875043e-08  2.7989141e-08 -8.6600856e-09  0.031594574   -2.8925168e-09  8.1000093      12.150014      16.200019      1594.3285    
        32   0             -322.56         1.8602972e-08  1.3987011e-08  2.0729874e-08  2.1092031e-08 -4.5692829e-09  0.031594575   -2.4944082e-10  8.1000093      12.150014      16.200019      1594.3285    
        33   0             -322.56         1.4181848e-08  1.1132436e-08  1.4695233e-08  1.6717875e-08 -2.6837632e-09  0.031594575    1.3257045e-10  8.1000093      12.150014      16.200019      1594.3285    
        34   0             -322.56         1.2446024e-08  9.766224e-09   1.2807074e-08  1.4764775e-08 -1.426191e-09   0.031594575    1.4011867e-10  8.1000093      12.150014      16.200019      1594.3285    
        35   0             -322.56         1.1733561e-08  9.1693519e-09  1.2512884e-08  1.3518446e-08 -7.328362e-10   0.031594575    1.5300223e-11  8.1000093      12.150014      16.200019      1594.3285    
        36   0             -322.56         1.1317863e-08  8.8679871e-09  1.2164563e-08  1.2921039e-08 -3.7570446e-10  0.031594575   -1.9368048e-11  8.1000093      12.150014      16.200019      1594.3285    
        37   0             -322.56         1.1157199e-08  8.7845301e-09  1.2046743e-08  1.2640324e-08 -9.9097503e-11  0.031594575   -2.9040935e-11  8.1000093      12.150014      16.200019      1594.3285    
        38   0             -322.56         1.1074397e-08  8.7210928e-09  1.1969806e-08  1.2532293e-08 -1.3478906e-11  0.031594575   -5.5596034e-12  8.1000093      12.150014      16.200019      1594.3285    
        39   0             -322.56         1.107044e-08   8.6993578e-09  1.1969091e-08  1.254287e-08  -1.929443e-11   0.031594575    4.970522e-12   8.1000093      12.150014      16.200019      1594.3285    
        40   0             -322.56         1.1007206e-08  8.6663927e-09  1.1926716e-08  1.242851e-08  -1.4573675e-12  0.031594575   -8.1163937e-12  8.1000093      12.150014      16.200019      1594.3285    
        41   0             -322.56         1.1016465e-08  8.6896583e-09  1.1916619e-08  1.2443118e-08 -8.0817652e-12  0.031594575    9.4318486e-12  8.1000093      12.150014      16.200019      1594.3285    
[...]
        50   0             -322.56         1.1012071e-08  8.637221e-09   1.1932315e-08  1.2466678e-08  1.123707e-11  -0.031594575   -6.559305e-12   8.1000093      12.150014      16.200019      1594.3285    
        51   0             -322.56         1.1020598e-08  8.6444555e-09  1.1911622e-08  1.2505716e-08 -3.9153677e-12 -0.031594575   -1.0966976e-11  8.1000093      12.150014      16.200019      1594.3285    
Loop time of 0.008585 on 1 procs for 25 steps with 96 atoms

182.0% CPU use with 1 MPI tasks x 1 OpenMP threads

Minimization stats:
  Stopping criterion = force tolerance
  Energy initial, next-to-last, final = 
     -322.559998845205   -322.55999886564  -322.559998865644
  Force two-norm initial, final = 0.00049225607 6.2654319e-11
  Force max component initial, final = 7.4972059e-05 1.0714329e-11
  Final line search alpha, max atom move = 1 1.0714329e-11
  Iterations, force evaluations = 25 50

MPI task timing breakdown:
Section |  min time  |  avg time  |  max time  |%varavg| %total
---------------------------------------------------------------
Pair    | 0.007945   | 0.007945   | 0.007945   |   0.0 | 92.55
Neigh   | 0          | 0          | 0          |   0.0 |  0.00
Comm    | 0.000164   | 0.000164   | 0.000164   |   0.0 |  1.91
Output  | 0.000331   | 0.000331   | 0.000331   |   0.0 |  3.86
Modify  | 0          | 0          | 0          |   0.0 |  0.00
Other   |            | 0.000145   |            |       |  1.69

Nlocal:             96 ave          96 max          96 min
Histogram: 1 0 0 0 0 0 0 0 0 0
Nghost:            976 ave         976 max         976 min
Histogram: 1 0 0 0 0 0 0 0 0 0
Neighs:           4128 ave        4128 max        4128 min
Histogram: 1 0 0 0 0 0 0 0 0 0

Total # of neighbors = 4128
Ave neighs/atom = 43
Neighbor list builds = 0
Dangerous builds = 0
OMP_NUM_THREADS environment is not set. Defaulting to 1 thread. (src/comm.cpp:98)
  using 1 OpenMP thread(s) per MPI task
Loaded 1 plugins from F:\Lammps\LAMMPS 64-bit 2Aug2023\plugins

The 'box' command has been removed and will be ignored

Reading restart file ...
  restart file = 2 Aug 2023, LAMMPS = 2 Aug 2023
  restoring atom style atomic from restart
  triclinic box = (-0.010004662 -0.015006993 -0.020009324) to (8.0900047 12.135007 16.180009) with tilt (0 0 0)
  1 by 1 by 1 MPI processor grid
  pair style eam/alloy stores no restart info
  96 atoms
  read_restart CPU = 0.000 seconds
Changing box ...
  triclinic box = (-0.010004662 -0.015006993 -0.020009324) to (8.0900047 12.135007 16.180009) with tilt (-1.2150014e-06 0 0)
Neighbor list info ...
  update: every = 1 steps, delay = 0 steps, check = yes
  max neighbors/atom: 2000, page size: 100000
  master list distance cutoff = 7.28721
  ghost atom cutoff = 7.28721
  1 neighbor lists, perpetual/occasional/extra = 1 0 0
  (1) pair eam/alloy, perpetual
      attributes: half, newton on
      pair build: half/nsq/newton
      stencil: none
      bin: none
Setting up cg style minimization ...
  Unit style    : metal
  Current step  : 26
Per MPI rank memory allocation (min/avg/max) = 4.449 | 4.449 | 4.449 Mbytes
   Step          Temp          PotEng         Press           Pxx            Pyy            Pzz            Pxy            Pxz            Pyz             Lx             Ly             Lz           Volume    
        26   0             -322.56         2.257019e-05   2.044288e-05   2.0378861e-05  2.688883e-05   0.031596206   -3.9784875e-07  1.7612213e-06  8.1000093      12.150014      16.200019      1594.3285    
        27   0             -322.56         3.7963439e-06  3.6849138e-06  3.8437907e-06  3.860327e-06   0.031594265    6.4472402e-08 -2.6678936e-08  8.1000093      12.150014      16.200019      1594.3285    
        28   0             -322.56         8.3537442e-07  6.6227051e-07  8.9720708e-07  9.4664568e-07  0.031594641   -8.9584251e-08  8.4687904e-08  8.1000093      12.150014      16.200019      1594.3285    
        29   0             -322.56         1.4900308e-07  1.3676196e-07  1.5757009e-07  1.5267717e-07  0.031594565   -1.1883278e-08 -2.6475489e-08  8.1000093      12.150014      16.200019      1594.3285    
        30   0             -322.56         4.2928339e-08  2.9154557e-08  5.6701759e-08  4.29287e-08    0.031594565   -7.6039467e-09 -5.0434464e-09  8.1000093      12.150014      16.200019      1594.3285    
        31   0             -322.56         2.6434473e-08  1.7499532e-08  3.4357962e-08  2.7445926e-08  0.031594566   -9.2978653e-10 -2.8913368e-09  8.1000093      12.150014      16.200019      1594.3285    
        32   0             -322.56         1.8614524e-08  1.4010361e-08  2.1264927e-08  2.0568285e-08  0.031594571   -5.8077302e-10 -1.6348616e-10  8.1000093      12.150014      16.200019      1594.3285    
        33   0             -322.56         1.4196567e-08  1.1121056e-08  1.520817e-08   1.6260476e-08  0.031594572   -1.186323e-10   1.7276416e-10  8.1000093      12.150014      16.200019      1594.3285    
        34   0             -322.56         1.2443745e-08  9.7758643e-09  1.3347844e-08  1.4207528e-08  0.031594574   -1.0055015e-10  1.1660904e-10  8.1000093      12.150014      16.200019      1594.3285    
        35   0             -322.56         1.1695791e-08  9.1281725e-09  1.3019096e-08  1.2940103e-08  0.031594574   -4.7203246e-11  2.0150186e-11  8.1000093      12.150014      16.200019      1594.3285    
        36   0             -322.56         1.1359456e-08  8.9076498e-09  1.2746011e-08  1.2424707e-08  0.031594575   -3.3914673e-11 -2.444986e-11   8.1000093      12.150014      16.200019      1594.3285    
        37   0             -322.56         1.116291e-08   8.7752839e-09  1.25665e-08    1.2146946e-08  0.031594575   -7.5813555e-12 -2.8989066e-11  8.1000093      12.150014      16.200019      1594.3285    
        38   0             -322.56         1.1083405e-08  8.7059927e-09  1.2511824e-08  1.2032397e-08  0.031594575    9.0939186e-12 -3.2945873e-11  8.1000093      12.150014      16.200019      1594.3285    
        39   0             -322.56         1.1011022e-08  8.6560935e-09  1.2432311e-08  1.1944663e-08  0.031594575    1.1952097e-11 -1.202808e-12   8.1000093      12.150014      16.200019      1594.3285    
        40   0             -322.56         1.0992009e-08  8.6043291e-09  1.2423688e-08  1.1948011e-08  0.031594575   -1.6831293e-11  4.6771176e-11  8.1000093      12.150014      16.200019      1594.3285    
        41   0             -322.56         1.1022104e-08  8.6512856e-09  1.2457853e-08  1.1957173e-08  0.031594575    2.6536204e-12 -1.6738524e-11  8.1000093      12.150014      16.200019      1594.3285    
        42   0             -322.56         1.1025549e-08  8.6658941e-09  1.2450008e-08  1.1960745e-08  0.031594575   -4.3312567e-11 -2.6391384e-12  8.1000093      12.150014      16.200019      1594.3285    
        43   0             -322.56         1.1038039e-08  8.6789337e-09  1.245377e-08   1.1981413e-08  0.031594575    1.1043235e-11  8.3238513e-12  8.1000093      12.150014      16.200019      1594.3285    
        44   0             -322.56         1.1038022e-08  8.6604587e-09  1.2456957e-08  1.1996651e-08  0.031594575   -1.3466103e-11  2.6478142e-11  8.1000093      12.150014      16.200019      1594.3285    
        45   0             -322.56         1.1032546e-08  8.6695201e-09  1.2430438e-08  1.1997679e-08  0.031594575   -2.384627e-12  -1.6111223e-11  8.1000093      12.150014      16.200019      1594.3285    
        46   0             -322.56         1.0994567e-08  8.6339576e-09  1.2405799e-08  1.1943944e-08  0.031594575   -2.0038356e-11 -8.3898382e-12  8.1000093      12.150014      16.200019      1594.3285    
        47   0             -322.56         1.0996995e-08  8.6440336e-09  1.2424978e-08  1.1921974e-08  0.031594575   -1.2973064e-11  2.3273703e-11  8.1000093      12.150014      16.200019      1594.3285    
        48   0             -322.56         1.1014616e-08  8.6242581e-09  1.2432018e-08  1.1987572e-08  0.031594575   -2.3769743e-11  8.1091826e-12  8.1000093      12.150014      16.200019      1594.3285    
        49   0             -322.56         1.0999798e-08  8.6464777e-09  1.2425895e-08  1.1927021e-08  0.031594575    1.1681663e-11  5.9171403e-12  8.1000093      12.150014      16.200019      1594.3285    
        50   0             -322.56         1.1012529e-08  8.6747255e-09  1.2438597e-08  1.1924265e-08  0.031594575   -6.947387e-12   2.5046733e-11  8.1000093      12.150014      16.200019      1594.3285    
        51   0             -322.56         1.0989933e-08  8.6334102e-09  1.2425878e-08  1.1910511e-08  0.031594575    1.7186487e-11  1.1485355e-11  8.1000093      12.150014      16.200019      1594.3285    
Loop time of 0.007428 on 1 procs for 25 steps with 96 atoms

210.4% CPU use with 1 MPI tasks x 1 OpenMP threads

Minimization stats:
  Stopping criterion = force tolerance
  Energy initial, next-to-last, final = 
     -322.559998845205  -322.559998865642  -322.559998865644
  Force two-norm initial, final = 0.00049225606 6.2782546e-11
  Force max component initial, final = 7.4972059e-05 1.0872667e-11
  Final line search alpha, max atom move = 1 1.0872667e-11
  Iterations, force evaluations = 25 50

MPI task timing breakdown:
Section |  min time  |  avg time  |  max time  |%varavg| %total
---------------------------------------------------------------
Pair    | 0.006912   | 0.006912   | 0.006912   |   0.0 | 93.05
Neigh   | 0          | 0          | 0          |   0.0 |  0.00
Comm    | 0.000137   | 0.000137   | 0.000137   |   0.0 |  1.84
Output  | 0.000259   | 0.000259   | 0.000259   |   0.0 |  3.49
Modify  | 0          | 0          | 0          |   0.0 |  0.00
Other   |            | 0.00012    |            |       |  1.62

Nlocal:             96 ave          96 max          96 min
Histogram: 1 0 0 0 0 0 0 0 0 0
Nghost:            976 ave         976 max         976 min
Histogram: 1 0 0 0 0 0 0 0 0 0
Neighs:           4128 ave        4128 max        4128 min
Histogram: 1 0 0 0 0 0 0 0 0 0

Total # of neighbors = 4128
Ave neighs/atom = 43
Neighbor list builds = 0
Dangerous builds = 0
OMP_NUM_THREADS environment is not set. Defaulting to 1 thread. (src/comm.cpp:98)
  using 1 OpenMP thread(s) per MPI task
Loaded 1 plugins from F:\Lammps\LAMMPS 64-bit 2Aug2023\plugins

The 'box' command has been removed and will be ignored

Reading restart file ...
  restart file = 2 Aug 2023, LAMMPS = 2 Aug 2023
  restoring atom style atomic from restart
  triclinic box = (-0.010004662 -0.015006993 -0.020009324) to (8.0900047 12.135007 16.180009) with tilt (0 0 0)
  1 by 1 by 1 MPI processor grid
  pair style eam/alloy stores no restart info
  96 atoms
  read_restart CPU = 0.000 seconds
Changing box ...
  triclinic box = (-0.010004662 -0.015006993 -0.020009324) to (8.0900047 12.135007 16.180009) with tilt (1.2150014e-06 0 0)
Neighbor list info ...
  update: every = 1 steps, delay = 0 steps, check = yes
  max neighbors/atom: 2000, page size: 100000
  master list distance cutoff = 7.28721
  ghost atom cutoff = 7.28721
  1 neighbor lists, perpetual/occasional/extra = 1 0 0
  (1) pair eam/alloy, perpetual
      attributes: half, newton on
      pair build: half/nsq/newton
      stencil: none
      bin: none
Setting up cg style minimization ...
  Unit style    : metal
  Current step  : 26
Per MPI rank memory allocation (min/avg/max) = 4.449 | 4.449 | 4.449 Mbytes
   Step          Temp          PotEng         Press           Pxx            Pyy            Pzz            Pxy            Pxz            Pyz             Lx             Ly             Lz           Volume    
        26   0             -322.56         2.2570176e-05  2.0442872e-05  2.0378865e-05  2.688879e-05  -0.031592944   -3.9782191e-07  1.761218e-06   8.1000093      12.150014      16.200019      1594.3285    
        27   0             -322.56         3.7963296e-06  3.6848992e-06  3.843773e-06   3.8603166e-06 -0.031594886    6.4496102e-08 -2.6725956e-08  8.1000093      12.150014      16.200019      1594.3285    
        28   0             -322.56         8.3539215e-07  6.6228433e-07  8.9722693e-07  9.4666519e-07 -0.03159451    -8.9584169e-08  8.4667025e-08  8.1000093      12.150014      16.200019      1594.3285    
        29   0             -322.56         1.4900104e-07  1.3675671e-07  1.5757799e-07  1.5266841e-07 -0.031594586   -1.187213e-08  -2.6473481e-08  8.1000093      12.150014      16.200019      1594.3285    
        30   0             -322.56         4.2939125e-08  2.913528e-08   5.6726733e-08  4.2955364e-08 -0.031594585   -7.6062494e-09 -5.0381875e-09  8.1000093      12.150014      16.200019      1594.3285    
        31   0             -322.56         2.6448165e-08  1.7504574e-08  3.4400902e-08  2.7439018e-08 -0.031594584   -9.298419e-10  -2.8434122e-09  8.1000093      12.150014      16.200019      1594.3285    
        32   0             -322.56         1.8589488e-08  1.398956e-08   2.1237969e-08  2.0540936e-08 -0.03159458    -5.8164525e-10 -2.1114417e-10  8.1000093      12.150014      16.200019      1594.3285    
        33   0             -322.56         1.4198875e-08  1.1137966e-08  1.5206284e-08  1.6252374e-08 -0.031594578   -1.5416538e-10  1.4873356e-10  8.1000093      12.150014      16.200019      1594.3285    
        34   0             -322.56         1.2442225e-08  9.7849885e-09  1.3342367e-08  1.419932e-08  -0.031594577   -7.1993344e-11  1.2999713e-10  8.1000093      12.150014      16.200019      1594.3285    
        35   0             -322.56         1.1708404e-08  9.1385693e-09  1.2999704e-08  1.2986939e-08 -0.031594576   -3.6875426e-11  6.2905708e-11  8.1000093      12.150014      16.200019      1594.3285    
        36   0             -322.56         1.1364218e-08  8.906053e-09   1.270997e-08   1.2476631e-08 -0.031594576   -4.2502741e-11 -4.4596038e-12  8.1000093      12.150014      16.200019      1594.3285    
        37   0             -322.56         1.1177001e-08  8.8019523e-09  1.256505e-08   1.2164003e-08 -0.031594575   -1.221728e-12  -2.3502339e-11  8.1000093      12.150014      16.200019      1594.3285    
        38   0             -322.56         1.1094307e-08  8.7444177e-09  1.2496543e-08  1.204196e-08  -0.031594575    1.5584089e-11 -1.3184589e-11  8.1000093      12.150014      16.200019      1594.3285    
        39   0             -322.56         1.1045594e-08  8.6800669e-09  1.2490197e-08  1.1966517e-08 -0.031594575   -1.6144647e-11  1.3829826e-11  8.1000093      12.150014      16.200019      1594.3285    
        40   0             -322.56         1.1023154e-08  8.6705731e-09  1.2432725e-08  1.1966163e-08 -0.031594575   -4.7481942e-12  1.2601542e-12  8.1000093      12.150014      16.200019      1594.3285    
        41   0             -322.56         1.0983969e-08  8.6354289e-09  1.240802e-08   1.1908459e-08 -0.031594575   -8.0245367e-12 -3.5227315e-11  8.1000093      12.150014      16.200019      1594.3285    
        42   0             -322.56         1.1006301e-08  8.6452748e-09  1.2424006e-08  1.1949623e-08 -0.031594575   -4.8439883e-12 -3.0946542e-11  8.1000093      12.150014      16.200019      1594.3285    
        43   0             -322.56         1.1046338e-08  8.7004282e-09  1.2452466e-08  1.198612e-08  -0.031594575    2.0419784e-11 -7.6619577e-12  8.1000093      12.150014      16.200019      1594.3285    
        44   0             -322.56         1.1024604e-08  8.6477398e-09  1.2460178e-08  1.1965893e-08 -0.031594575    1.1052304e-11  2.8049674e-12  8.1000093      12.150014      16.200019      1594.3285    
        45   0             -322.56         1.1029263e-08  8.6751474e-09  1.2427408e-08  1.1985232e-08 -0.031594575   -1.8297016e-11 -1.0777453e-11  8.1000093      12.150014      16.200019      1594.3285    
        46   0             -322.56         1.1046232e-08  8.665148e-09   1.2471199e-08  1.200235e-08  -0.031594575   -6.9040913e-12  4.6672894e-12  8.1000093      12.150014      16.200019      1594.3285    
        47   0             -322.56         1.1011849e-08  8.6481059e-09  1.2439814e-08  1.1947628e-08 -0.031594575    3.3867431e-12  4.7612184e-12  8.1000093      12.150014      16.200019      1594.3285    
        48   0             -322.56         1.1027455e-08  8.6700187e-09  1.2428852e-08  1.1983493e-08 -0.031594575    5.5304138e-12  1.4725964e-11  8.1000093      12.150014      16.200019      1594.3285    
        49   0             -322.56         1.1012858e-08  8.652098e-09   1.2436027e-08  1.195045e-08  -0.031594575    4.6711944e-12  8.6689888e-12  8.1000093      12.150014      16.200019      1594.3285    
        50   0             -322.56         1.1066422e-08  8.7003968e-09  1.2501291e-08  1.1997579e-08 -0.031594575   -5.793919e-12   2.0565935e-11  8.1000093      12.150014      16.200019      1594.3285    
        51   0             -322.56         1.1001822e-08  8.6263081e-09  1.2424124e-08  1.1955034e-08 -0.031594575    1.1714449e-11  7.7566346e-12  8.1000093      12.150014      16.200019      1594.3285    
Loop time of 0.007778 on 1 procs for 25 steps with 96 atoms

200.9% CPU use with 1 MPI tasks x 1 OpenMP threads

Minimization stats:
  Stopping criterion = force tolerance
  Energy initial, next-to-last, final = 
     -322.559998845206  -322.559998865641  -322.559998865643
  Force two-norm initial, final = 0.00049225606 6.256618e-11
  Force max component initial, final = 7.4972064e-05 1.0679329e-11
  Final line search alpha, max atom move = 1 1.0679329e-11
  Iterations, force evaluations = 25 50

MPI task timing breakdown:
Section |  min time  |  avg time  |  max time  |%varavg| %total
---------------------------------------------------------------
Pair    | 0.007282   | 0.007282   | 0.007282   |   0.0 | 93.62
Neigh   | 0          | 0          | 0          |   0.0 |  0.00
Comm    | 0.000138   | 0.000138   | 0.000138   |   0.0 |  1.77
Output  | 0.00025    | 0.00025    | 0.00025    |   0.0 |  3.21
Modify  | 0          | 0          | 0          |   0.0 |  0.00
Other   |            | 0.000108   |            |       |  1.39

Nlocal:             96 ave          96 max          96 min
Histogram: 1 0 0 0 0 0 0 0 0 0
Nghost:            976 ave         976 max         976 min
Histogram: 1 0 0 0 0 0 0 0 0 0
Neighs:           4128 ave        4128 max        4128 min
Histogram: 1 0 0 0 0 0 0 0 0 0

Total # of neighbors = 4128
Ave neighs/atom = 43
Neighbor list builds = 0
Dangerous builds = 0
=========================================
Components of the Elastic Constant Tensor
=========================================
Elastic Constant C11all = 113.795813392709 GPa
Elastic Constant C22all = 113.795813503291 GPa
Elastic Constant C33all = 113.795813397651 GPa
Elastic Constant C12all = 61.554745467539 GPa
Elastic Constant C13all = 61.5547454234938 GPa
Elastic Constant C23all = 61.5547454496968 GPa
Elastic Constant C44all = 31.5945751741536 GPa
Elastic Constant C55all = 31.5945751623801 GPa
Elastic Constant C66all = 31.594575150235 GPa
Elastic Constant C14all = 1.57702592907203e-08 GPa
Elastic Constant C15all = -5.09833941306187e-09 GPa
Elastic Constant C16all = 9.48770663450265e-09 GPa
Elastic Constant C24all = -1.2842636755059e-08 GPa
Elastic Constant C25all = -1.03349575183164e-08 GPa
Elastic Constant C26all = -7.61805605187234e-10 GPa
Elastic Constant C34all = 1.60214516116946e-08 GPa
Elastic Constant C35all = -7.8297507820064e-09 GPa
Elastic Constant C36all = -1.17888683568025e-08 GPa
Elastic Constant C45all = -6.47314454262175e-09 GPa
Elastic Constant C46all = 8.17369270593957e-09 GPa
Elastic Constant C56all = -1.09609203486673e-09 GPa
=========================================
Average properties for a cubic crystal
=========================================
Bulk Modulus = 78.9684347750123 GPa
Shear Modulus 1 = 31.5945751622562 GPa
Shear Modulus 2 = 26.1205339921536 GPa
Poisson Ratio = 0.351038205071773
Total wall time: 0:00:00
