LAMMPS (2 Aug 2023 - Update 3)
OMP_NUM_THREADS environment is not set. Defaulting to 1 thread. (src/comm.cpp:98)
  using 1 OpenMP thread(s) per MPI task
Loaded 1 plugins from F:\Lammps\LAMMPS 64-bit 2Aug2023\plugins
Reading data file ...
  orthogonal box = (0 0 0) to (17.79 17.79 17.79)
  1 by 1 by 1 MPI processor grid
  reading atoms ...
  500 atoms
  read_data CPU = 0.001 seconds
Changing box ...
  triclinic box = (0 0 0) to (17.79 17.79 17.79) with tilt (0 0 0)
Neighbor list info ...
  update: every = 1 steps, delay = 0 steps, check = yes
  max neighbors/atom: 2000, page size: 100000
  master list distance cutoff = 6.80375
  ghost atom cutoff = 6.80375
  1 neighbor lists, perpetual/occasional/extra = 1 0 0
  (1) pair eam/alloy, perpetual
      attributes: half, newton on
      pair build: half/nsq/newton
      stencil: none
      bin: none
Setting up cg style minimization ...
  Unit style    : metal
  Current step  : 0
WARNING: Energy due to 3 extra global DOFs will be included in minimizer energies
 (src/min.cpp:228)
Per MPI rank memory allocation (min/avg/max) = 4.492 | 4.492 | 4.492 Mbytes
   Step          Temp          PotEng         Press           Pxx            Pyy            Pzz            Pxy            Pxz            Pyz             Lx             Ly             Lz           Volume    
         0   0             -2179.6991     -32897.227     -32975.238     -32867.412     -32849.03      -72.884186     -32.522695      43.476146      17.79          17.79          17.79          5630.2521    
         1   0             -2179.7334     -32352.605     -32431.067     -32322.585     -32304.165     -73.109808     -32.106482      43.175664      17.788221      17.788227      17.788228      5628.5672    
         2   0             -2179.7671     -31807.618     -31886.517     -31777.395     -31758.941     -73.336198     -31.685741      42.874433      17.786442      17.786454      17.786456      5626.8827    
         3   0             -2179.8003     -31262.254     -31341.578     -31231.833     -31213.35      -73.563128     -31.260007      42.572487      17.784663      17.784681      17.784684      5625.1987    
         4   0             -2179.8328     -30716.528     -30796.266     -30685.911     -30667.405     -73.790301     -30.829419      42.27017       17.782884      17.782908      17.782912      5623.5151    
         5   0             -2179.8648     -30170.517     -30250.665     -30139.709     -30121.177     -74.016354     -30.394744      41.969923      17.781105      17.781135      17.781141      5621.8319    
         6   0             -2179.8962     -29624.278     -29704.833     -29593.281     -29574.721     -74.241643     -29.958061      41.673964      17.779326      17.779363      17.779369      5620.1491    
         7   0             -2179.9271     -29077.821     -29158.778     -29046.638     -29028.047     -74.466223     -29.519367      41.382205      17.777547      17.777591      17.777598      5618.4668    
         8   0             -2179.9573     -28531.101     -28612.451     -28499.735     -28481.118     -74.690551     -29.077463      41.093108      17.775768      17.775819      17.775827      5616.785     
         9   0             -2179.987      -27984.051     -28065.78      -27952.503     -27933.871     -74.91452      -28.631324      40.804592      17.773989      17.774047      17.774056      5615.1035    
        10   0             -2180.0161     -27436.638     -27518.732     -27404.908     -27386.272     -75.137922     -28.180263      40.51563       17.77221       17.772275      17.772286      5613.4226    
        11   0             -2180.0446     -26888.881     -26971.332     -26856.972     -26838.34      -75.360769     -27.724836      40.226891      17.770431      17.770503      17.770515      5611.7421    
        12   0             -2180.0725     -26340.832     -26423.631     -26308.746     -26290.12      -75.584989     -27.265912      39.938325      17.768652      17.768732      17.768745      5610.062     
        13   0             -2180.0998     -25792.527     -25875.666     -25760.268     -25741.648     -75.811026     -26.804141      39.650721      17.766873      17.76696       17.766975      5608.3824    
        14   0             -2180.1266     -25244.014     -25327.483     -25211.587     -25192.971     -76.038589     -26.339229      39.364288      17.765094      17.765189      17.765205      5606.7033    
        15   0             -2180.1528     -24695.252     -24779.038     -24662.663     -24644.056     -76.265406     -25.870383      39.079826      17.763315      17.763418      17.763436      5605.0247    
        16   0             -2180.1784     -24146.197     -24230.289     -24113.449     -24094.854     -76.490275     -25.397489      38.798653      17.761536      17.761648      17.761666      5603.3465    
        17   0             -2180.2034     -23596.826     -23681.212     -23563.923     -23545.343     -76.712636     -24.918956      38.51999       17.759757      17.759877      17.759897      5601.6689    
        18   0             -2180.2278     -23047.124     -23131.795     -23014.068     -22995.509     -76.934075     -24.43508       38.242605      17.757978      17.758107      17.758128      5599.9917    
        19   0             -2180.2516     -22497.177     -22582.122     -22463.973     -22445.437     -77.15658      -23.945274      37.963705      17.756199      17.756337      17.75636       5598.315     
        20   0             -2180.2749     -21947.003     -22032.208     -21913.656     -21895.146     -77.380251     -23.449856      37.683456      17.75442       17.754568      17.754592      5596.6388    
        21   0             -2180.2976     -21396.637     -21482.087     -21363.154     -21344.67      -77.605475     -22.951241      37.402751      17.752641      17.752798      17.752824      5594.9632    
        22   0             -2180.3197     -20846.007     -20931.687     -20812.395     -20793.938     -77.829897     -22.44949       37.12418       17.750862      17.751029      17.751056      5593.288     
        23   0             -2180.3412     -20295.146     -20381.044     -20261.411     -20242.982     -78.053981     -21.945139      36.848435      17.749083      17.74926       17.749289      5591.6134    
        24   0             -2180.3621     -19744.053     -19830.156     -19710.201     -19691.803     -78.277543     -21.437881      36.575532      17.747304      17.747492      17.747522      5589.9393    
        25   0             -2180.3825     -19192.773     -19279.071     -19158.807     -19140.442     -78.501769     -20.926472      36.304145      17.745525      17.745723      17.745755      5588.2658    
        26   0             -2180.4022     -18641.326     -18727.805     -18607.248     -18588.925     -78.72716      -20.411678      36.03492       17.743746      17.743956      17.743989      5586.5928    
        27   0             -2180.4214     -18089.666     -18176.313     -18055.48      -18037.205     -78.953053     -19.892995      35.767021      17.741967      17.742188      17.742223      5584.9204    
        28   0             -2180.44       -17537.799     -17624.599     -17503.51      -17485.289     -79.179212     -19.370335      35.499988      17.740188      17.740421      17.740458      5583.2486    
        29   0             -2180.458      -16985.744     -17072.68      -16951.361     -16933.192     -79.404941     -18.842507      35.232063      17.738409      17.738654      17.738693      5581.5774    
        30   0             -2180.4755     -16433.519     -16520.573     -16399.052     -16380.933     -79.630409     -18.309276      34.962919      17.73663       17.736888      17.736929      5579.9068    
        31   0             -2180.4923     -15881.161     -15968.315     -15846.62      -15828.549     -79.855601     -17.771262      34.69267       17.734851      17.735122      17.735165      5578.2369    
        32   0             -2180.5086     -15328.647     -15415.878     -15294.042     -15276.023     -80.080886     -17.229744      34.422919      17.733072      17.733357      17.733401      5576.5676    
        33   0             -2180.5243     -14775.949     -14863.234     -14741.287     -14723.326     -80.307083     -16.68482       34.15323       17.731293      17.731592      17.731639      5574.8989    
        34   0             -2180.5394     -14223.075     -14310.392     -14188.364     -14170.468     -80.534201     -16.136445      33.883271      17.729514      17.729827      17.729876      5573.231     
        35   0             -2180.554      -13670.031     -13757.358     -13635.28      -13617.455     -80.761894     -15.584431      33.613538      17.727735      17.728063      17.728115      5571.5638    
        36   0             -2180.5679     -13116.889     -13204.204     -13082.107     -13064.355     -80.988563     -15.028654      33.345243      17.725956      17.7263        17.726354      5569.8973    
        37   0             -2180.5813     -12563.699     -12650.978     -12528.898     -12511.222     -81.214326     -14.469579      33.078528      17.724177      17.724538      17.724594      5568.2316    
        38   0             -2180.5941     -12010.481     -12097.695     -11975.672     -11958.076     -81.439012     -13.907143      32.813421      17.722398      17.722776      17.722835      5566.5667    
        39   0             -2180.6063     -11457.225     -11544.332     -11422.428     -11404.916     -81.663561     -13.340547      32.54721       17.720619      17.721015      17.721076      5564.9026    
        40   0             -2180.6179     -10903.879     -10990.841     -10869.108     -10851.687     -81.887872     -12.769356      32.28082       17.71884       17.719255      17.719319      5563.2395    
        41   0             -2180.629      -10350.417     -10437.195     -10315.69      -10298.367     -82.110899     -12.192306      32.013463      17.717061      17.717496      17.717562      5561.5773    
        42   0             -2180.6394     -9796.8834     -9883.4439     -9762.2129     -9744.9934     -82.332434     -11.609868      31.745375      17.715282      17.715737      17.715807      5559.9161    
        43   0             -2180.6493     -9243.3791     -9329.6843     -9208.7816     -9191.6714     -82.553671     -11.021948      31.475049      17.713503      17.71398       17.714053      5558.256     
        44   0             -2180.6586     -8689.9617     -8775.9664     -8655.4569     -8638.4618     -82.775459     -10.429139      31.201711      17.711724      17.712224      17.7123        5556.597     
        45   0             -2180.6674     -8136.7122     -8222.3608     -8102.3244     -8085.4513     -82.998036     -9.8323378      30.925643      17.709945      17.71047       17.710549      5554.9393    
        46   0             -2180.6755     -7583.6066     -7668.8329     -7549.363      -7532.624      -83.219825     -9.2321504      30.648656      17.708166      17.708717      17.7088        5553.283     
        47   0             -2180.6831     -7030.6739     -7115.4105     -6996.6015     -6980.0097     -83.44051      -8.628463       30.371677      17.706387      17.706965      17.707053      5551.6282    
        48   0             -2180.6901     -6477.9666     -6562.1356     -6444.0963     -6427.6678     -83.659807     -8.0218819      30.094432      17.704608      17.705216      17.705307      5549.975     
        49   0             -2180.6965     -5925.5434     -6009.061      -5891.909      -5875.6603     -83.878349     -7.4118574      29.816857      17.702829      17.703469      17.703565      5548.3236    
        50   0             -2180.7024     -5373.4765     -5456.2339     -5340.1224     -5324.0733     -84.097037     -6.7981918      29.538967      17.70105       17.701725      17.701826      5546.6745    
        51   0             -2180.7077     -4821.8697     -4903.7473     -4788.8447     -4773.017      -84.315302     -6.1812409      29.261104      17.699271      17.699984      17.70009       5545.0277    
        52   0             -2180.7124     -4270.889      -4351.7423     -4238.2521     -4222.6726     -84.53267      -5.5608311      28.983126      17.697492      17.698247      17.698358      5543.3838    
        53   0             -2180.7166     -3720.7664     -3800.4371     -3688.5816     -3673.2804     -84.748091     -4.9370534      28.704098      17.695713      17.696514      17.696632      5541.7435    
        54   0             -2180.7201     -3171.8503     -3250.1144     -3140.2098     -3125.2267     -84.960587     -4.3110352      28.423174      17.693934      17.694788      17.694913      5540.1074    
        55   0             -2180.7232     -2624.5396     -2701.103      -2593.5636     -2578.9522     -85.169454     -3.6838004      28.140673      17.692155      17.693069      17.693202      5538.4768    
        56   0             -2180.7256     -2079.4171     -2153.8597     -2049.2786     -2035.1131     -85.373488     -3.0562213      27.85788       17.690376      17.691361      17.691504      5536.8537    
        57   0             -2180.7276     -1537.48       -1609.2096     -1508.4188     -1494.8114     -85.571904     -2.4309668      27.575086      17.688597      17.689668      17.689823      5535.2413    
        58   0             -2180.729      -1000.8053     -1068.8872     -973.20119     -960.32747     -85.761225     -1.8106624      27.293856      17.686818      17.688001      17.68817       5533.646     
        59   0             -2180.7299     -474.39982     -537.0739      -448.96561     -437.15997     -85.932149     -1.2031607      27.017798      17.685039      17.686381      17.686572      5532.0828    
        60   0             -2180.7306      22.988428     -29.416484      44.281511      54.100258     -86.047729     -0.6431464      26.759269      17.68326       17.684894      17.685124      5530.6085    
        61   0             -2180.7361     -117.37893     -57.500667     -141.59846     -153.03767     -84.90523      -1.2478005      26.928099      17.681575      17.686266      17.686903      5531.0668    
        62   0             -2180.7377      324.64146      349.75485      314.51459      309.65493     -84.671028     -0.90618113     26.702386      17.680852      17.684613      17.685124      5529.7675    
        63   0             -2180.739      -130.5173      -122.01673     -133.93894     -135.59624     -84.200073     -1.5810129      26.956331      17.682631      17.685932      17.68638       5531.1288    
        64   0             -2180.7421      373.42585      363.02164      377.69773      379.55819     -83.685527     -1.2940092      26.71879       17.681414      17.684221      17.684601      5529.657     
        65   0             -2180.7436     -176.96072     -188.21083     -172.37022     -170.3011      -83.133001     -2.0963471      27.030113      17.683193      17.685966      17.68634       5531.303     
        66   0             -2180.747       339.30281      336.32025      340.57528      341.0129      -82.590871     -1.8031314      26.795893      17.681414      17.684432      17.684837      5529.7965    
        67   0             -2180.7487     -206.75342     -206.08434     -206.98974     -207.18616     -81.99995      -2.6157295      27.107893      17.683094      17.6862        17.686616      5531.4312    
        68   0             -2180.7519      350.97415      353.05636      350.19174      349.67434     -81.485712     -2.2718241      26.848606      17.681315      17.68448       17.684902      5529.8012    
        69   0             -2180.7539     -205.79492     -203.35245     -206.75551     -207.27679     -80.830469     -3.1238978      27.167674      17.683094      17.686259      17.686679      5531.4696    
        70   0             -2180.7572      358.01478      357.7785       358.16997      358.09588     -80.295573     -2.785694       26.904914      17.681375      17.684489      17.6849        5529.8223    
        71   0             -2180.7593     -195.2536      -195.69588     -195.04534     -195.0196      -79.628331     -3.6393191      27.221899      17.683154      17.686253      17.68666       5531.4807    
        72   0             -2180.7627      375.77013      374.49739      376.34831      376.46468     -79.063827     -3.3080137      26.95727       17.681378      17.684476      17.684881      5529.8134    
        73   0             -2180.7647     -179.97062     -180.48741     -179.7292      -179.69524     -78.398342     -4.163102       27.275112      17.683146      17.686255      17.68666       5531.479     
        74   0             -2180.7683      387.39674      386.91106      387.6573       387.62186     -77.782243     -3.8596323      27.01484       17.681367      17.684499      17.684905      5529.8244    
        75   0             -2180.7702     -168.56205     -168.28938     -168.64017     -168.75659     -77.133546     -4.7076414      27.331377      17.683135      17.686278      17.686684      5531.49      
        76   0             -2180.7741      404.05354      403.61083      404.2969       404.25288     -76.454741     -4.4283724      27.070783      17.681356      17.684503      17.684906      5529.8223    
        77   0             -2180.776      -152.6922      -152.62333     -152.68763     -152.76565     -75.818097     -5.272075       27.386543      17.683131      17.686282      17.686684      5531.4897    
        78   0             -2180.7801      420.98865      420.3129       421.32764      421.32542     -75.059122     -5.0290692      27.128674      17.681352      17.684506      17.684905      5529.8219    
        79   0             -2180.7819     -135.88395     -135.99722     -135.8045      -135.85014     -74.440793     -5.8649163      27.443074      17.683125      17.686285      17.686684      5531.489     
        80   0             -2180.7864      437.25386      436.66498      437.5591       437.5375      -73.581537     -5.6691458      27.189667      17.681346      17.684518      17.684914      5529.8265    
        81   0             -2180.7882     -119.83148     -119.8287      -119.79843     -119.86733     -72.983785     -6.4960135      27.502557      17.683119      17.686297      17.686693      5531.4934    
        82   0             -2180.7931      455.58925      454.96832      455.90914      455.8903      -71.996506     -6.3578647      27.252991      17.68134       17.684526      17.68492       5529.8289    
        83   0             -2180.7948     -101.84913     -101.91208     -101.78905     -101.84627     -71.417696     -7.1763778      27.564433      17.683113      17.686305      17.686698      5531.4961    
        84   0             -2180.8005      475.15405      474.52026      475.48174      475.46016     -70.251373     -7.1201973      27.320895      17.681334      17.684538      17.684928      5529.8336    
        85   0             -2180.8021     -82.576393     -82.649331     -82.511571     -82.568277     -69.693363     -7.9293799      27.630658      17.683107      17.686317      17.686707      5531.5007    
        86   0             -2180.8088      497.34753      496.69787      497.68499      497.65975     -68.252299     -7.9982165      27.395801      17.681328      17.684553      17.684939      5529.8398    
        87   0             -2180.8103     -60.719537     -60.814847     -60.645074     -60.698691     -67.716078     -8.7975619      27.703505      17.683102      17.686332      17.686718      5531.507     
        88   0             -2180.819       524.49875      523.82743      524.85023      524.81859     -65.765027     -9.0982357      27.48447       17.681323      17.684573      17.684954      5529.8492    
        89   0             -2180.8204     -33.940615     -34.061931     -33.853891     -33.906024     -65.252154     -9.8865971      27.789253      17.683097      17.686352      17.686733      5531.5165    
        90   0             -2180.8349      566.67683      565.97259      567.04798      567.00994     -61.810933     -10.863891      27.614916      17.681318      17.68461       17.684983      5529.8677    
        91   0             -2180.8362      7.7753796      7.6154527      7.8797333      7.8309529     -61.324046     -11.639602      27.915891      17.683092      17.686389      17.686761      5531.5351    
        92   0             -2180.8568     -481.99245     -481.68937     -482.11099     -482.17699     -55.787945     -14.682663      28.349321      17.684811      17.688168      17.688529      5533.1826    
        93   0             -2180.8578      83.124058      82.888732      83.273039      83.210403     -55.80807      -14.122814      28.064664      17.683033      17.686389      17.68675       5531.5134    
        94   0             -2180.8652     -451.66592     -451.37033     -451.81135     -451.81609     -53.594864     -15.682791      28.401423      17.684786      17.688168      17.688524      5533.1731    
        95   0             -2180.8665      114.43532      114.19174      114.56144      114.55277     -53.537842     -15.161799      28.117952      17.683007      17.68639       17.686745      5531.5041    
        96   0             -2180.8723     -426.74506     -426.51284     -426.80737     -426.91497     -51.741134     -16.535912      28.442656      17.684768      17.688169      17.688522      5533.1675    
        97   0             -2180.8737      139.98971      139.68517      140.19625      140.0877      -51.628479     -16.043835      28.159695      17.682989      17.686392      17.686745      5531.4989    
        98   0             -2180.8788     -402.71899     -402.46689     -402.8482      -402.84187     -50.007595     -17.338232      28.478058      17.684748      17.688171      17.688518      5533.1603    
        99   0             -2180.8804      164.59437      164.3141       164.72758      164.74144     -49.842912     -16.873508      28.19574       17.682969      17.686395      17.686741      5531.4922    
       100   0             -2180.8851     -380.19367     -379.98842     -380.26668     -380.32592     -48.314311     -18.127665      28.510502      17.684732      17.688174      17.688518      5533.1563    
Loop time of 0.117522 on 1 procs for 100 steps with 500 atoms

93.1% CPU use with 1 MPI tasks x 1 OpenMP threads

Minimization stats:
  Stopping criterion = max iterations
  Energy initial, next-to-last, final = 
     -2179.69905310324  -2180.88038903659  -2180.88507672175
  Force two-norm initial, final = 200.26208 3.1553061
  Force max component initial, final = 115.87918 1.3210005
  Final line search alpha, max atom move = 0.00047416109 0.00062636706
  Iterations, force evaluations = 100 100

MPI task timing breakdown:
Section |  min time  |  avg time  |  max time  |%varavg| %total
---------------------------------------------------------------
Pair    | 0.10949    | 0.10949    | 0.10949    |   0.0 | 93.16
Neigh   | 0          | 0          | 0          |   0.0 |  0.00
Comm    | 0.000636   | 0.000636   | 0.000636   |   0.0 |  0.54
Output  | 0.001404   | 0.001404   | 0.001404   |   0.0 |  1.19
Modify  | 0          | 0          | 0          |   0.0 |  0.00
Other   |            | 0.005995   |            |       |  5.10

Nlocal:            500 ave         500 max         500 min
Histogram: 1 0 0 0 0 0 0 0 0 0
Nghost:           1956 ave        1956 max        1956 min
Histogram: 1 0 0 0 0 0 0 0 0 0
Neighs:          33500 ave       33500 max       33500 min
Histogram: 1 0 0 0 0 0 0 0 0 0

Total # of neighbors = 33500
Ave neighs/atom = 67
Neighbor list builds = 0
Dangerous builds = 0
Displacing atoms ...
System init for write_restart ...
OMP_NUM_THREADS environment is not set. Defaulting to 1 thread. (src/comm.cpp:98)
  using 1 OpenMP thread(s) per MPI task
Loaded 1 plugins from F:\Lammps\LAMMPS 64-bit 2Aug2023\plugins

The 'box' command has been removed and will be ignored

Reading restart file ...
  restart file = 2 Aug 2023, LAMMPS = 2 Aug 2023
  restoring atom style atomic from restart
  triclinic box = (0.052633981 0.050913187 0.050740769) to (17.737366 17.739087 17.739259) with tilt (0 0 0)
  1 by 1 by 1 MPI processor grid
  pair style eam/alloy stores no restart info
  500 atoms
  read_restart CPU = 0.000 seconds
Changing box ...
  triclinic box = (0.052633981 0.050913187 0.050740769) to (17.737348 17.739087 17.739259) with tilt (0 0 0)
  triclinic box = (0.052633981 0.050913187 0.050740769) to (17.737348 17.739087 17.739259) with tilt (0 0 0)
  triclinic box = (0.052633981 0.050913187 0.050740769) to (17.737348 17.739087 17.739259) with tilt (0 0 0)
Neighbor list info ...
  update: every = 1 steps, delay = 0 steps, check = yes
  max neighbors/atom: 2000, page size: 100000
  master list distance cutoff = 6.80375
  ghost atom cutoff = 6.80375
  1 neighbor lists, perpetual/occasional/extra = 1 0 0
  (1) pair eam/alloy, perpetual
      attributes: half, newton on
      pair build: half/nsq/newton
      stencil: none
      bin: none
Setting up cg style minimization ...
  Unit style    : metal
  Current step  : 100
Per MPI rank memory allocation (min/avg/max) = 4.484 | 4.484 | 4.484 Mbytes
   Step          Temp          PotEng         Press           Pxx            Pyy            Pzz            Pxy            Pxz            Pyz             Lx             Ly             Lz           Volume    
       100   0             -2180.8851     -378.31033     -377.48688     -378.6486      -378.79552     -48.329046     -18.076642      28.489307      17.684714      17.688174      17.688518      5533.1507    
       101   0             -2181.0622      521.49909      494.85363      540.58901      529.05465      20.060966     -50.73378       29.536066      17.684714      17.688174      17.688518      5533.1507    
       102   0             -2181.1307      1117.38        1044.9576      1158.3101      1148.8723      49.506529     -85.088217      24.95866       17.684714      17.688174      17.688518      5533.1507    
       103   0             -2181.1458      903.41081      818.99679      940.1262       951.10944      17.756773     -79.176323      27.573764      17.684714      17.688174      17.688518      5533.1507    
       104   0             -2181.1512      926.7048       842.13603      962.40132      975.57706      21.77773      -84.248792      21.649429      17.684714      17.688174      17.688518      5533.1507    
       105   0             -2181.1529      1002.7799      921.50506      1037.8031      1049.0317      27.664962     -88.119797      19.601249      17.684714      17.688174      17.688518      5533.1507    
       106   0             -2181.1538      952.1747       875.94821      985.2783       995.29758      23.04707      -84.514176      16.456988      17.684714      17.688174      17.688518      5533.1507    
       107   0             -2181.154       939.16921      865.77858      970.81978      980.90927      23.128679     -83.6138        17.808717      17.684714      17.688174      17.688518      5533.1507    
       108   0             -2181.1541      942.20812      869.32692      973.27862      984.01881      24.541719     -84.477913      19.465249      17.684714      17.688174      17.688518      5533.1507    
       109   0             -2181.1542      941.71411      867.95858      972.53064      984.65311      24.169159     -84.715259      19.29588       17.684714      17.688174      17.688518      5533.1507    
       110   0             -2181.1542      942.3617       868.10468      973.40898      985.57143      23.680506     -84.486741      19.118657      17.684714      17.688174      17.688518      5533.1507    
       111   0             -2181.1542      939.72852      865.95042      970.50514      982.72998      23.964544     -84.588465      18.60978       17.684714      17.688174      17.688518      5533.1507    
       112   0             -2181.1542      938.43817      865.14376      968.73706      981.43369      24.13744      -84.467432      18.5838        17.684714      17.688174      17.688518      5533.1507    
       113   0             -2181.1542      940.15066      866.49358      970.52821      983.4302       24.079561     -84.573072      18.57121       17.684714      17.688174      17.688518      5533.1507    
       114   0             -2181.1542      940.32581      866.65479      970.78224      983.5404       24.032522     -84.596115      18.745089      17.684714      17.688174      17.688518      5533.1507    
       115   0             -2181.1542      940.24177      866.44776      970.74258      983.53496      24.032705     -84.547885      18.660362      17.684714      17.688174      17.688518      5533.1507    
       116   0             -2181.1542      940.12978      866.28068      970.68732      983.42133      23.89101      -84.604733      18.626426      17.684714      17.688174      17.688518      5533.1507    
       117   0             -2181.1542      939.86565      865.96322      970.4653       983.16841      23.848255     -84.518991      18.614362      17.684714      17.688174      17.688518      5533.1507    
       118   0             -2181.1542      939.95315      866.03455      970.55218      983.27272      23.819823     -84.478426      18.652691      17.684714      17.688174      17.688518      5533.1507    
       119   0             -2181.1542      939.99371      866.08252      970.55756      983.34105      23.896237     -84.477524      18.641415      17.684714      17.688174      17.688518      5533.1507    
       120   0             -2181.1542      939.93108      866.03465      970.48203      983.27656      23.88638      -84.473893      18.661286      17.684714      17.688174      17.688518      5533.1507    
       121   0             -2181.1542      939.90212      865.99626      970.46016      983.24993      23.879997     -84.467859      18.666684      17.684714      17.688174      17.688518      5533.1507    
       122   0             -2181.1542      939.89285      865.99017      970.45346      983.2349       23.87652      -84.473566      18.668816      17.684714      17.688174      17.688518      5533.1507    
       123   0             -2181.1542      939.89577      865.99175      970.45488      983.24069      23.875947     -84.47983       18.659835      17.684714      17.688174      17.688518      5533.1507    
       124   0             -2181.1542      939.88431      865.98283      970.44067      983.22943      23.876433     -84.481397      18.659495      17.684714      17.688174      17.688518      5533.1507    
       125   0             -2181.1542      939.87987      865.98158      970.43353      983.22449      23.876342     -84.482248      18.664228      17.684714      17.688174      17.688518      5533.1507    
       126   0             -2181.1542      939.87994      865.98356      970.43152      983.22473      23.877263     -84.48165       18.665873      17.684714      17.688174      17.688518      5533.1507    
       127   0             -2181.1542      939.88715      865.99068      970.43813      983.23265      23.878539     -84.481273      18.664283      17.684714      17.688174      17.688518      5533.1507    
       128   0             -2181.1542      939.88972      865.99244      970.44108      983.23564      23.878694     -84.481089      18.664924      17.684714      17.688174      17.688518      5533.1507    
       129   0             -2181.1542      939.89049      865.99216      970.44233      983.237        23.878281     -84.481573      18.66497       17.684714      17.688174      17.688518      5533.1507    
       130   0             -2181.1542      939.88827      865.98942      970.44022      983.23518      23.877976     -84.482483      18.665123      17.684714      17.688174      17.688518      5533.1507    
       131   0             -2181.1542      939.88762      865.9884       970.43967      983.23478      23.878115     -84.482429      18.665396      17.684714      17.688174      17.688518      5533.1507    
       132   0             -2181.1542      939.88803      865.98885      970.44002      983.23521      23.878202     -84.48216       18.665072      17.684714      17.688174      17.688518      5533.1507    
       133   0             -2181.1542      939.8889       865.9896       970.44077      983.23635      23.878097     -84.482095      18.664842      17.684714      17.688174      17.688518      5533.1507    
       134   0             -2181.1542      939.88885      865.98959      970.44064      983.23633      23.877963     -84.482011      18.665058      17.684714      17.688174      17.688518      5533.1507    
       135   0             -2181.1542      939.88847      865.98921      970.44016      983.23605      23.87806      -84.482081      18.665056      17.684714      17.688174      17.688518      5533.1507    
       136   0             -2181.1542      939.88836      865.98907      970.44005      983.23596      23.878067     -84.482091      18.665051      17.684714      17.688174      17.688518      5533.1507    
       137   0             -2181.1542      939.88841      865.98912      970.44008      983.23604      23.87808      -84.482066      18.665024      17.684714      17.688174      17.688518      5533.1507    
       138   0             -2181.1542      939.88843      865.98913      970.4401       983.23605      23.87808      -84.482068      18.665022      17.684714      17.688174      17.688518      5533.1507    
       139   0             -2181.1542      939.88844      865.98915      970.44012      983.23606      23.878077     -84.482068      18.665018      17.684714      17.688174      17.688518      5533.1507    
       140   0             -2181.1542      939.88843      865.98915      970.4401       983.23605      23.878079     -84.482062      18.665024      17.684714      17.688174      17.688518      5533.1507    
       141   0             -2181.1542      939.88844      865.98916      970.44011      983.23605      23.878082     -84.482059      18.665026      17.684714      17.688174      17.688518      5533.1507    
       142   0             -2181.1542      939.88844      865.98917      970.44011      983.23605      23.878079     -84.482058      18.665026      17.684714      17.688174      17.688518      5533.1507    
       143   0             -2181.1542      939.88845      865.98918      970.44011      983.23606      23.878078     -84.482053      18.665027      17.684714      17.688174      17.688518      5533.1507    
       144   0             -2181.1542      939.88845      865.98918      970.44011      983.23606      23.878078     -84.482051      18.665029      17.684714      17.688174      17.688518      5533.1507    
       145   0             -2181.1542      939.88845      865.98917      970.44011      983.23606      23.878077     -84.482053      18.665029      17.684714      17.688174      17.688518      5533.1507    
       146   0             -2181.1542      939.88844      865.98917      970.44011      983.23606      23.878077     -84.482054      18.665029      17.684714      17.688174      17.688518      5533.1507    
       147   0             -2181.1542      939.88845      865.98917      970.44011      983.23606      23.878077     -84.482054      18.665029      17.684714      17.688174      17.688518      5533.1507    
       148   0             -2181.1542      939.88845      865.98917      970.44011      983.23606      23.878078     -84.482054      18.665029      17.684714      17.688174      17.688518      5533.1507    
       149   0             -2181.1542      939.88844      865.98917      970.44011      983.23606      23.878078     -84.482054      18.665029      17.684714      17.688174      17.688518      5533.1507    
       150   0             -2181.1542      939.88844      865.98917      970.44011      983.23606      23.878077     -84.482054      18.665029      17.684714      17.688174      17.688518      5533.1507    
       151   0             -2181.1542      939.88844      865.98917      970.44011      983.23606      23.878077     -84.482054      18.665029      17.684714      17.688174      17.688518      5533.1507    
       152   0             -2181.1542      939.88844      865.98917      970.44011      983.23606      23.878077     -84.482054      18.665029      17.684714      17.688174      17.688518      5533.1507    
       153   0             -2181.1542      939.88844      865.98917      970.44011      983.23606      23.878077     -84.482054      18.665029      17.684714      17.688174      17.688518      5533.1507    
       154   0             -2181.1542      939.88844      865.98917      970.44011      983.23606      23.878077     -84.482054      18.665029      17.684714      17.688174      17.688518      5533.1507    
       155   0             -2181.1542      939.88844      865.98917      970.44011      983.23606      23.878077     -84.482054      18.665029      17.684714      17.688174      17.688518      5533.1507    
       156   0             -2181.1542      939.88844      865.98917      970.44011      983.23606      23.878077     -84.482054      18.665029      17.684714      17.688174      17.688518      5533.1507    
       157   0             -2181.1542      939.88844      865.98917      970.44011      983.23606      23.878077     -84.482054      18.665029      17.684714      17.688174      17.688518      5533.1507    
       158   0             -2181.1542      939.88844      865.98917      970.44011      983.23606      23.878077     -84.482054      18.665029      17.684714      17.688174      17.688518      5533.1507    
       159   0             -2181.1542      939.88844      865.98917      970.44011      983.23606      23.878077     -84.482054      18.665029      17.684714      17.688174      17.688518      5533.1507    
       160   0             -2181.1542      939.88844      865.98917      970.44011      983.23606      23.878077     -84.482054      18.665029      17.684714      17.688174      17.688518      5533.1507    
       161   0             -2181.1542      939.88844      865.98917      970.44011      983.23606      23.878077     -84.482054      18.665029      17.684714      17.688174      17.688518      5533.1507    
Loop time of 0.142059 on 1 procs for 61 steps with 500 atoms

99.0% CPU use with 1 MPI tasks x 1 OpenMP threads

Minimization stats:
  Stopping criterion = force tolerance
  Energy initial, next-to-last, final = 
      -2180.8850844175  -2181.15424233838  -2181.15424233837
  Force two-norm initial, final = 2.1733019 7.3836158e-11
  Force max component initial, final = 0.18690515 8.9310691e-12
  Final line search alpha, max atom move = 1 8.9310691e-12
  Iterations, force evaluations = 61 120

MPI task timing breakdown:
Section |  min time  |  avg time  |  max time  |%varavg| %total
---------------------------------------------------------------
Pair    | 0.13948    | 0.13948    | 0.13948    |   0.0 | 98.19
Neigh   | 0          | 0          | 0          |   0.0 |  0.00
Comm    | 0.000681   | 0.000681   | 0.000681   |   0.0 |  0.48
Output  | 0.000959   | 0.000959   | 0.000959   |   0.0 |  0.68
Modify  | 0          | 0          | 0          |   0.0 |  0.00
Other   |            | 0.000936   |            |       |  0.66

Nlocal:            500 ave         500 max         500 min
Histogram: 1 0 0 0 0 0 0 0 0 0
Nghost:           1956 ave        1956 max        1956 min
Histogram: 1 0 0 0 0 0 0 0 0 0
Neighs:          33500 ave       33500 max       33500 min
Histogram: 1 0 0 0 0 0 0 0 0 0

Total # of neighbors = 33500
Ave neighs/atom = 67
Neighbor list builds = 0
Dangerous builds = 0
OMP_NUM_THREADS environment is not set. Defaulting to 1 thread. (src/comm.cpp:98)
  using 1 OpenMP thread(s) per MPI task
Loaded 1 plugins from F:\Lammps\LAMMPS 64-bit 2Aug2023\plugins

The 'box' command has been removed and will be ignored

Reading restart file ...
  restart file = 2 Aug 2023, LAMMPS = 2 Aug 2023
  restoring atom style atomic from restart
  triclinic box = (0.052633981 0.050913187 0.050740769) to (17.737366 17.739087 17.739259) with tilt (0 0 0)
  1 by 1 by 1 MPI processor grid
  pair style eam/alloy stores no restart info
  500 atoms
  read_restart CPU = 0.000 seconds
Changing box ...
  triclinic box = (0.052633981 0.050913187 0.050740769) to (17.737384 17.739087 17.739259) with tilt (0 0 0)
  triclinic box = (0.052633981 0.050913187 0.050740769) to (17.737384 17.739087 17.739259) with tilt (0 0 0)
  triclinic box = (0.052633981 0.050913187 0.050740769) to (17.737384 17.739087 17.739259) with tilt (0 0 0)
Neighbor list info ...
  update: every = 1 steps, delay = 0 steps, check = yes
  max neighbors/atom: 2000, page size: 100000
  master list distance cutoff = 6.80375
  ghost atom cutoff = 6.80375
  1 neighbor lists, perpetual/occasional/extra = 1 0 0
  (1) pair eam/alloy, perpetual
      attributes: half, newton on
      pair build: half/nsq/newton
      stencil: none
      bin: none
Setting up cg style minimization ...
  Unit style    : metal
  Current step  : 100
Per MPI rank memory allocation (min/avg/max) = 4.484 | 4.484 | 4.484 Mbytes
   Step          Temp          PotEng         Press           Pxx            Pyy            Pzz            Pxy            Pxz            Pyz             Lx             Ly             Lz           Volume    
       100   0             -2180.8851     -382.03696     -382.43231     -381.76602     -381.91255     -48.326261     -18.081733      28.490946      17.68475       17.688174      17.688518      5533.1618    
       101   0             -2181.0622      517.81109      489.95243      537.50801      525.97283      20.065814     -50.738003      29.537062      17.68475       17.688174      17.688518      5533.1618    
       102   0             -2181.1307      1113.7138      1040.0787      1155.2509      1145.8119      49.513431     -85.090348      24.958051      17.68475       17.688174      17.688518      5533.1618    
       103   0             -2181.1458      899.74199      814.11892      937.06264      948.04441      17.763774     -79.179335      27.573867      17.68475       17.688174      17.688518      5533.1618    
       104   0             -2181.1512      923.04212      837.26406      959.34389      972.51842      21.785041     -84.251692      21.649227      17.68475       17.688174      17.688518      5533.1618    
       105   0             -2181.1529      999.111        916.62594      1034.7394      1045.9676      27.672099     -88.122306      19.601187      17.68475       17.688174      17.688518      5533.1618    
       106   0             -2181.1538      948.50489      871.06954      982.21302      992.2321       23.05429      -84.516712      16.456973      17.68475       17.688174      17.688518      5533.1618    
       107   0             -2181.154       935.50116      860.90151      967.75632      977.84566      23.135844     -83.616317      17.808885      17.68475       17.688174      17.688518      5533.1618    
       108   0             -2181.1541      938.54005      864.44995      970.21505      980.95514      24.548623     -84.480443      19.465426      17.68475       17.688174      17.688518      5533.1618    
       109   0             -2181.1542      938.04647      863.08242      969.46736      981.58963      24.176247     -84.717724      19.295911      17.68475       17.688174      17.688518      5533.1618    
       110   0             -2181.1542      938.69439      863.22898      970.346        982.50819      23.687602     -84.489227      19.118709      17.68475       17.688174      17.688518      5533.1618    
       111   0             -2181.1542      936.06079      861.07434      967.44173      979.6663       23.971669     -84.590909      18.60986       17.68475       17.688174      17.688518      5533.1618    
       112   0             -2181.1542      934.77079      860.26801      965.674        978.37035      24.144509     -84.469921      18.5839        17.68475       17.688174      17.688518      5533.1618    
       113   0             -2181.1542      936.48326      861.6178       967.46513      980.36687      24.086667     -84.575536      18.571301      17.68475       17.688174      17.688518      5533.1618    
       114   0             -2181.1542      936.65825      861.7788       967.71902      980.47692      24.039608     -84.598582      18.745169      17.68475       17.688174      17.688518      5533.1618    
       115   0             -2181.1542      936.57416      861.5717       967.67933      980.47146      24.03978      -84.550357      18.660441      17.68475       17.688174      17.688518      5533.1618    
       116   0             -2181.1542      936.46211      861.40454      967.62402      980.35778      23.898097     -84.607205      18.626508      17.68475       17.688174      17.688518      5533.1618    
       117   0             -2181.1542      936.198        861.08709      967.40202      980.10489      23.855346     -84.521464      18.614446      17.68475       17.688174      17.688518      5533.1618    
       118   0             -2181.1542      936.28554      861.15845      967.48893      980.20923      23.826916     -84.480906      18.65277       17.68475       17.688174      17.688518      5533.1618    
       119   0             -2181.1542      936.32607      861.2064       967.49428      980.27754      23.903321     -84.480004      18.641496      17.68475       17.688174      17.688518      5533.1618    
       120   0             -2181.1542      936.26343      861.15851      967.41875      980.21304      23.893473     -84.476375      18.66137       17.68475       17.688174      17.688518      5533.1618    
       121   0             -2181.1542      936.23448      861.12014      967.39689      980.18642      23.887088     -84.470339      18.666763      17.68475       17.688174      17.688518      5533.1618    
       122   0             -2181.1542      936.22521      861.11405      967.39019      980.17138      23.883612     -84.476046      18.668896      17.68475       17.688174      17.688518      5533.1618    
       123   0             -2181.1542      936.22814      861.11563      967.39161      980.17718      23.883039     -84.482309      18.659915      17.68475       17.688174      17.688518      5533.1618    
       124   0             -2181.1542      936.21668      861.10671      967.3774       980.16592      23.883526     -84.483876      18.659575      17.68475       17.688174      17.688518      5533.1618    
       125   0             -2181.1542      936.21223      861.10546      967.37026      980.16097      23.883435     -84.484727      18.664308      17.68475       17.688174      17.688518      5533.1618    
       126   0             -2181.1542      936.2123       861.10744      967.36825      980.16122      23.884355     -84.484129      18.665953      17.68475       17.688174      17.688518      5533.1618    
       127   0             -2181.1542      936.21952      861.11456      967.37485      980.16914      23.885631     -84.483752      18.664364      17.68475       17.688174      17.688518      5533.1618    
       128   0             -2181.1542      936.22209      861.11632      967.37781      980.17213      23.885786     -84.483569      18.665004      17.68475       17.688174      17.688518      5533.1618    
       129   0             -2181.1542      936.22286      861.11604      967.37906      980.17348      23.885373     -84.484052      18.66505       17.68475       17.688174      17.688518      5533.1618    
       130   0             -2181.1542      936.22064      861.1133       967.37695      980.17167      23.885068     -84.484962      18.665203      17.68475       17.688174      17.688518      5533.1618    
       131   0             -2181.1542      936.21998      861.11228      967.3764       980.17126      23.885208     -84.484908      18.665476      17.68475       17.688174      17.688518      5533.1618    
       132   0             -2181.1542      936.22039      861.11273      967.37675      980.1717       23.885294     -84.484639      18.665152      17.68475       17.688174      17.688518      5533.1618    
       133   0             -2181.1542      936.22127      861.11348      967.37749      980.17283      23.885189     -84.484574      18.664922      17.68475       17.688174      17.688518      5533.1618    
       134   0             -2181.1542      936.22122      861.11347      967.37737      980.17281      23.885055     -84.48449       18.665138      17.68475       17.688174      17.688518      5533.1618    
       135   0             -2181.1542      936.22084      861.1131       967.37689      980.17253      23.885153     -84.48456       18.665136      17.68475       17.688174      17.688518      5533.1618    
       136   0             -2181.1542      936.22073      861.11295      967.37678      980.17245      23.885159     -84.484571      18.665131      17.68475       17.688174      17.688518      5533.1618    
       137   0             -2181.1542      936.22078      861.113        967.37681      980.17253      23.885172     -84.484545      18.665104      17.68475       17.688174      17.688518      5533.1618    
       138   0             -2181.1542      936.22079      861.11301      967.37683      980.17254      23.885172     -84.484547      18.665102      17.68475       17.688174      17.688518      5533.1618    
       139   0             -2181.1542      936.22081      861.11303      967.37684      980.17255      23.88517      -84.484547      18.665098      17.68475       17.688174      17.688518      5533.1618    
       140   0             -2181.1542      936.2208       861.11303      967.37683      980.17253      23.885172     -84.484541      18.665104      17.68475       17.688174      17.688518      5533.1618    
       141   0             -2181.1542      936.2208       861.11304      967.37683      980.17254      23.885174     -84.484538      18.665106      17.68475       17.688174      17.688518      5533.1618    
       142   0             -2181.1542      936.22081      861.11305      967.37684      980.17254      23.885172     -84.484537      18.665106      17.68475       17.688174      17.688518      5533.1618    
       143   0             -2181.1542      936.22082      861.11306      967.37684      980.17255      23.885171     -84.484532      18.665107      17.68475       17.688174      17.688518      5533.1618    
       144   0             -2181.1542      936.22082      861.11306      967.37684      980.17255      23.88517      -84.48453       18.665109      17.68475       17.688174      17.688518      5533.1618    
       145   0             -2181.1542      936.22081      861.11305      967.37684      980.17255      23.88517      -84.484532      18.665109      17.68475       17.688174      17.688518      5533.1618    
       146   0             -2181.1542      936.22081      861.11305      967.37683      980.17254      23.88517      -84.484533      18.665109      17.68475       17.688174      17.688518      5533.1618    
       147   0             -2181.1542      936.22081      861.11305      967.37684      980.17255      23.88517      -84.484533      18.665109      17.68475       17.688174      17.688518      5533.1618    
       148   0             -2181.1542      936.22081      861.11305      967.37684      980.17255      23.88517      -84.484533      18.665109      17.68475       17.688174      17.688518      5533.1618    
       149   0             -2181.1542      936.22081      861.11305      967.37684      980.17254      23.88517      -84.484533      18.665109      17.68475       17.688174      17.688518      5533.1618    
       150   0             -2181.1542      936.22081      861.11305      967.37683      980.17254      23.88517      -84.484533      18.665109      17.68475       17.688174      17.688518      5533.1618    
       151   0             -2181.1542      936.22081      861.11305      967.37684      980.17254      23.88517      -84.484533      18.665109      17.68475       17.688174      17.688518      5533.1618    
       152   0             -2181.1542      936.22081      861.11305      967.37684      980.17254      23.88517      -84.484533      18.66511       17.68475       17.688174      17.688518      5533.1618    
       153   0             -2181.1542      936.22081      861.11305      967.37684      980.17254      23.88517      -84.484533      18.665109      17.68475       17.688174      17.688518      5533.1618    
       154   0             -2181.1542      936.22081      861.11305      967.37684      980.17254      23.88517      -84.484533      18.665109      17.68475       17.688174      17.688518      5533.1618    
       155   0             -2181.1542      936.22081      861.11305      967.37684      980.17254      23.88517      -84.484533      18.665109      17.68475       17.688174      17.688518      5533.1618    
       156   0             -2181.1542      936.22081      861.11305      967.37684      980.17254      23.88517      -84.484533      18.665109      17.68475       17.688174      17.688518      5533.1618    
       157   0             -2181.1542      936.22081      861.11305      967.37684      980.17254      23.88517      -84.484533      18.665109      17.68475       17.688174      17.688518      5533.1618    
       158   0             -2181.1542      936.22081      861.11305      967.37684      980.17254      23.88517      -84.484533      18.665109      17.68475       17.688174      17.688518      5533.1618    
       159   0             -2181.1542      936.22081      861.11305      967.37684      980.17254      23.88517      -84.484533      18.665109      17.68475       17.688174      17.688518      5533.1618    
       160   0             -2181.1542      936.22081      861.11305      967.37684      980.17254      23.88517      -84.484533      18.665109      17.68475       17.688174      17.688518      5533.1618    
       161   0             -2181.1542      936.22081      861.11305      967.37684      980.17254      23.88517      -84.484533      18.665109      17.68475       17.688174      17.688518      5533.1618    
Loop time of 0.142155 on 1 procs for 61 steps with 500 atoms

98.9% CPU use with 1 MPI tasks x 1 OpenMP threads

Minimization stats:
  Stopping criterion = force tolerance
  Energy initial, next-to-last, final = 
     -2180.88508179311  -2181.15424830298  -2181.15424830298
  Force two-norm initial, final = 2.1733497 7.3853371e-11
  Force max component initial, final = 0.18690562 8.913558e-12
  Final line search alpha, max atom move = 1 8.913558e-12
  Iterations, force evaluations = 61 120

MPI task timing breakdown:
Section |  min time  |  avg time  |  max time  |%varavg| %total
---------------------------------------------------------------
Pair    | 0.13937    | 0.13937    | 0.13937    |   0.0 | 98.04
Neigh   | 0          | 0          | 0          |   0.0 |  0.00
Comm    | 0.000854   | 0.000854   | 0.000854   |   0.0 |  0.60
Output  | 0.000964   | 0.000964   | 0.000964   |   0.0 |  0.68
Modify  | 0          | 0          | 0          |   0.0 |  0.00
Other   |            | 0.000964   |            |       |  0.68

Nlocal:            500 ave         500 max         500 min
Histogram: 1 0 0 0 0 0 0 0 0 0
Nghost:           1956 ave        1956 max        1956 min
Histogram: 1 0 0 0 0 0 0 0 0 0
Neighs:          33500 ave       33500 max       33500 min
Histogram: 1 0 0 0 0 0 0 0 0 0

Total # of neighbors = 33500
Ave neighs/atom = 67
Neighbor list builds = 0
Dangerous builds = 0
OMP_NUM_THREADS environment is not set. Defaulting to 1 thread. (src/comm.cpp:98)
  using 1 OpenMP thread(s) per MPI task
Loaded 1 plugins from F:\Lammps\LAMMPS 64-bit 2Aug2023\plugins

The 'box' command has been removed and will be ignored

Reading restart file ...
  restart file = 2 Aug 2023, LAMMPS = 2 Aug 2023
  restoring atom style atomic from restart
  triclinic box = (0.052633981 0.050913187 0.050740769) to (17.737366 17.739087 17.739259) with tilt (0 0 0)
  1 by 1 by 1 MPI processor grid
  pair style eam/alloy stores no restart info
  500 atoms
  read_restart CPU = 0.000 seconds
Changing box ...
  triclinic box = (0.052633981 0.050913187 0.050740769) to (17.737366 17.739069 17.739259) with tilt (0 0 0)
  triclinic box = (0.052633981 0.050913187 0.050740769) to (17.737366 17.739069 17.739259) with tilt (0 0 0)
Neighbor list info ...
  update: every = 1 steps, delay = 0 steps, check = yes
  max neighbors/atom: 2000, page size: 100000
  master list distance cutoff = 6.80375
  ghost atom cutoff = 6.80375
  1 neighbor lists, perpetual/occasional/extra = 1 0 0
  (1) pair eam/alloy, perpetual
      attributes: half, newton on
      pair build: half/nsq/newton
      stencil: none
      bin: none
Setting up cg style minimization ...
  Unit style    : metal
  Current step  : 100
Per MPI rank memory allocation (min/avg/max) = 4.484 | 4.484 | 4.484 Mbytes
   Step          Temp          PotEng         Press           Pxx            Pyy            Pzz            Pxy            Pxz            Pyz             Lx             Ly             Lz           Volume    
       100   0             -2180.8851     -378.308       -378.40088     -377.73056     -378.79254     -48.328797     -18.077218      28.489202      17.684732      17.688156      17.688518      5533.1507    
       101   0             -2181.0622      521.50451      493.94646      541.50681      529.06026      20.061584     -50.734057      29.535967      17.684732      17.688156      17.688518      5533.1507    
       102   0             -2181.1307      1117.379       1044.0436      1159.2223      1148.8712      49.506875     -85.087478      24.957955      17.684732      17.688156      17.688518      5533.1507    
       103   0             -2181.1458      903.41319      818.08936      941.03902      951.11119      17.757836     -79.176107      27.573444      17.684732      17.688156      17.688518      5533.1507    
       104   0             -2181.1512      926.70529      841.22672      963.31217      975.57697      21.778581     -84.24844       21.649166      17.684732      17.688156      17.688518      5533.1507    
       105   0             -2181.1529      1002.7828      920.59756      1038.7167      1049.0342      27.665735     -88.119351      19.600873      17.684732      17.688156      17.688518      5533.1507    
       106   0             -2181.1538      952.1773       875.04163      986.19058      995.29968      23.047724     -84.51379       16.456643      17.684732      17.688156      17.688518      5533.1507    
       107   0             -2181.154       939.1712       864.87143      971.73141      980.91077      23.129325     -83.613352      17.808399      17.684732      17.688156      17.688518      5533.1507    
       108   0             -2181.1541      942.2104       868.42023      974.19042      984.02056      24.542307     -84.477449      19.465021      17.684732      17.688156      17.688518      5533.1507    
       109   0             -2181.1542      941.71631      867.05196      973.4422       984.65476      24.169825     -84.714801      19.295592      17.684732      17.688156      17.688518      5533.1507    
       110   0             -2181.1542      942.36397      867.19818      974.32055      985.57317      23.681124     -84.486314      19.118394      17.684732      17.688156      17.688518      5533.1507    
       111   0             -2181.1542      939.73094      865.04412      971.4168       982.7319       23.965219     -84.588003      18.609483      17.684732      17.688156      17.688518      5533.1507    
       112   0             -2181.1542      938.44043      864.23733      969.6485       981.43545      24.138069     -84.467002      18.583502      17.684732      17.688156      17.688518      5533.1507    
       113   0             -2181.1542      940.15286      865.58709      971.43956      983.43193      24.080188     -84.57261       18.57091       17.684732      17.688156      17.688518      5533.1507    
       114   0             -2181.1542      940.32806      865.74835      971.69365      983.54218      24.033128     -84.595655      18.744801      17.684732      17.688156      17.688518      5533.1507    
       115   0             -2181.1542      940.24399      865.54127      971.65399      983.53672      24.033319     -84.547432      18.660067      17.684732      17.688156      17.688518      5533.1507    
       116   0             -2181.1542      940.132        865.37416      971.59873      983.42309      23.891618     -84.604281      18.626132      17.684732      17.688156      17.688518      5533.1507    
       117   0             -2181.1542      939.86786      865.0567       971.37671      983.17018      23.848866     -84.518541      18.614065      17.684732      17.688156      17.688518      5533.1507    
       118   0             -2181.1542      939.95535      865.12801      971.46357      983.27447      23.820436     -84.477979      18.652396      17.684732      17.688156      17.688518      5533.1507    
       119   0             -2181.1542      939.99592      865.176        971.46895      983.34282      23.896847     -84.477076      18.641118      17.684732      17.688156      17.688518      5533.1507    
       120   0             -2181.1542      939.93329      865.12812      971.39342      983.27832      23.886992     -84.473446      18.660989      17.684732      17.688156      17.688518      5533.1507    
       121   0             -2181.1542      939.90432      865.08974      971.37155      983.25169      23.880606     -84.467412      18.666386      17.684732      17.688156      17.688518      5533.1507    
       122   0             -2181.1542      939.89505      865.08364      971.36484      983.23666      23.877131     -84.473118      18.66852       17.684732      17.688156      17.688518      5533.1507    
       123   0             -2181.1542      939.89798      865.08522      971.36626      983.24245      23.876557     -84.479382      18.659539      17.684732      17.688156      17.688518      5533.1507    
       124   0             -2181.1542      939.88651      865.0763       971.35205      983.23119      23.877043     -84.480949      18.659199      17.684732      17.688156      17.688518      5533.1507    
       125   0             -2181.1542      939.88207      865.07506      971.34491      983.22625      23.876953     -84.4818        18.663931      17.684732      17.688156      17.688518      5533.1507    
       126   0             -2181.1542      939.88214      865.07703      971.3429       983.22649      23.877873     -84.481202      18.665577      17.684732      17.688156      17.688518      5533.1507    
       127   0             -2181.1542      939.88935      865.08415      971.34951      983.23441      23.879149     -84.480825      18.663987      17.684732      17.688156      17.688518      5533.1507    
       128   0             -2181.1542      939.89192      865.08591      971.35246      983.2374       23.879304     -84.480641      18.664628      17.684732      17.688156      17.688518      5533.1507    
       129   0             -2181.1542      939.8927       865.08563      971.35371      983.23875      23.878891     -84.481125      18.664674      17.684732      17.688156      17.688518      5533.1507    
       130   0             -2181.1542      939.89048      865.08289      971.3516       983.23694      23.878587     -84.482035      18.664826      17.684732      17.688156      17.688518      5533.1507    
       131   0             -2181.1542      939.88982      865.08187      971.35105      983.23654      23.878726     -84.481981      18.6651        17.684732      17.688156      17.688518      5533.1507    
       132   0             -2181.1542      939.89023      865.08232      971.3514       983.23697      23.878813     -84.481712      18.664775      17.684732      17.688156      17.688518      5533.1507    
       133   0             -2181.1542      939.89111      865.08307      971.35215      983.23811      23.878708     -84.481647      18.664545      17.684732      17.688156      17.688518      5533.1507    
       134   0             -2181.1542      939.89106      865.08306      971.35202      983.23809      23.878574     -84.481562      18.664761      17.684732      17.688156      17.688518      5533.1507    
       135   0             -2181.1542      939.89068      865.08269      971.35154      983.23781      23.878671     -84.481633      18.66476       17.684732      17.688156      17.688518      5533.1507    
       136   0             -2181.1542      939.89057      865.08254      971.35143      983.23772      23.878678     -84.481643      18.664754      17.684732      17.688156      17.688518      5533.1507    
       137   0             -2181.1542      939.89062      865.08259      971.35146      983.2378       23.878691     -84.481618      18.664727      17.684732      17.688156      17.688518      5533.1507    
       138   0             -2181.1542      939.89063      865.0826       971.35148      983.23781      23.878691     -84.48162       18.664725      17.684732      17.688156      17.688518      5533.1507    
       139   0             -2181.1542      939.89065      865.08263      971.3515       983.23782      23.878688     -84.48162       18.664722      17.684732      17.688156      17.688518      5533.1507    
       140   0             -2181.1542      939.89064      865.08262      971.35148      983.23781      23.87869      -84.481614      18.664727      17.684732      17.688156      17.688518      5533.1507    
       141   0             -2181.1542      939.89064      865.08263      971.35149      983.23781      23.878693     -84.481611      18.664729      17.684732      17.688156      17.688518      5533.1507    
       142   0             -2181.1542      939.89065      865.08264      971.35149      983.23781      23.87869      -84.48161       18.66473       17.684732      17.688156      17.688518      5533.1507    
       143   0             -2181.1542      939.89065      865.08265      971.35149      983.23782      23.878689     -84.481605      18.664731      17.684732      17.688156      17.688518      5533.1507    
       144   0             -2181.1542      939.89065      865.08265      971.35149      983.23782      23.878688     -84.481603      18.664733      17.684732      17.688156      17.688518      5533.1507    
       145   0             -2181.1542      939.89065      865.08264      971.35149      983.23782      23.878688     -84.481605      18.664733      17.684732      17.688156      17.688518      5533.1507    
       146   0             -2181.1542      939.89065      865.08264      971.35149      983.23782      23.878688     -84.481606      18.664733      17.684732      17.688156      17.688518      5533.1507    
       147   0             -2181.1542      939.89065      865.08264      971.35149      983.23782      23.878688     -84.481606      18.664732      17.684732      17.688156      17.688518      5533.1507    
       148   0             -2181.1542      939.89065      865.08264      971.35149      983.23782      23.878689     -84.481606      18.664733      17.684732      17.688156      17.688518      5533.1507    
       149   0             -2181.1542      939.89065      865.08264      971.35149      983.23782      23.878688     -84.481606      18.664733      17.684732      17.688156      17.688518      5533.1507    
       150   0             -2181.1542      939.89065      865.08264      971.35149      983.23782      23.878688     -84.481606      18.664733      17.684732      17.688156      17.688518      5533.1507    
       151   0             -2181.1542      939.89065      865.08264      971.35149      983.23782      23.878688     -84.481606      18.664733      17.684732      17.688156      17.688518      5533.1507    
       152   0             -2181.1542      939.89065      865.08264      971.35149      983.23782      23.878688     -84.481606      18.664733      17.684732      17.688156      17.688518      5533.1507    
       153   0             -2181.1542      939.89065      865.08264      971.35149      983.23782      23.878688     -84.481606      18.664733      17.684732      17.688156      17.688518      5533.1507    
       154   0             -2181.1542      939.89065      865.08264      971.35149      983.23782      23.878688     -84.481606      18.664733      17.684732      17.688156      17.688518      5533.1507    
       155   0             -2181.1542      939.89065      865.08264      971.35149      983.23782      23.878688     -84.481606      18.664733      17.684732      17.688156      17.688518      5533.1507    
       156   0             -2181.1542      939.89065      865.08264      971.35149      983.23782      23.878688     -84.481606      18.664733      17.684732      17.688156      17.688518      5533.1507    
       157   0             -2181.1542      939.89065      865.08264      971.35149      983.23782      23.878688     -84.481606      18.664733      17.684732      17.688156      17.688518      5533.1507    
       158   0             -2181.1542      939.89065      865.08264      971.35149      983.23782      23.878688     -84.481606      18.664733      17.684732      17.688156      17.688518      5533.1507    
       159   0             -2181.1542      939.89065      865.08264      971.35149      983.23782      23.878688     -84.481606      18.664733      17.684732      17.688156      17.688518      5533.1507    
       160   0             -2181.1542      939.89065      865.08264      971.35149      983.23782      23.878688     -84.481606      18.664733      17.684732      17.688156      17.688518      5533.1507    
       161   0             -2181.1542      939.89065      865.08264      971.35149      983.23782      23.878688     -84.481606      18.664733      17.684732      17.688156      17.688518      5533.1507    
Loop time of 0.140024 on 1 procs for 61 steps with 500 atoms

100.4% CPU use with 1 MPI tasks x 1 OpenMP threads

Minimization stats:
  Stopping criterion = force tolerance
  Energy initial, next-to-last, final = 
     -2180.88508441835  -2181.15424197452  -2181.15424197453
  Force two-norm initial, final = 2.1733006 7.384741e-11
  Force max component initial, final = 0.18690458 8.9295318e-12
  Final line search alpha, max atom move = 1 8.9295318e-12
  Iterations, force evaluations = 61 120

MPI task timing breakdown:
Section |  min time  |  avg time  |  max time  |%varavg| %total
---------------------------------------------------------------
Pair    | 0.13745    | 0.13745    | 0.13745    |   0.0 | 98.17
Neigh   | 0          | 0          | 0          |   0.0 |  0.00
Comm    | 0.000698   | 0.000698   | 0.000698   |   0.0 |  0.50
Output  | 0.000931   | 0.000931   | 0.000931   |   0.0 |  0.66
Modify  | 0          | 0          | 0          |   0.0 |  0.00
Other   |            | 0.00094    |            |       |  0.67

Nlocal:            500 ave         500 max         500 min
Histogram: 1 0 0 0 0 0 0 0 0 0
Nghost:           1956 ave        1956 max        1956 min
Histogram: 1 0 0 0 0 0 0 0 0 0
Neighs:          33500 ave       33500 max       33500 min
Histogram: 1 0 0 0 0 0 0 0 0 0

Total # of neighbors = 33500
Ave neighs/atom = 67
Neighbor list builds = 0
Dangerous builds = 0
OMP_NUM_THREADS environment is not set. Defaulting to 1 thread. (src/comm.cpp:98)
  using 1 OpenMP thread(s) per MPI task
Loaded 1 plugins from F:\Lammps\LAMMPS 64-bit 2Aug2023\plugins

The 'box' command has been removed and will be ignored

Reading restart file ...
  restart file = 2 Aug 2023, LAMMPS = 2 Aug 2023
  restoring atom style atomic from restart
  triclinic box = (0.052633981 0.050913187 0.050740769) to (17.737366 17.739087 17.739259) with tilt (0 0 0)
  1 by 1 by 1 MPI processor grid
  pair style eam/alloy stores no restart info
  500 atoms
  read_restart CPU = 0.000 seconds
Changing box ...
  triclinic box = (0.052633981 0.050913187 0.050740769) to (17.737366 17.739105 17.739259) with tilt (0 0 0)
  triclinic box = (0.052633981 0.050913187 0.050740769) to (17.737366 17.739105 17.739259) with tilt (0 0 0)
Neighbor list info ...
  update: every = 1 steps, delay = 0 steps, check = yes
  max neighbors/atom: 2000, page size: 100000
  master list distance cutoff = 6.80375
  ghost atom cutoff = 6.80375
  1 neighbor lists, perpetual/occasional/extra = 1 0 0
  (1) pair eam/alloy, perpetual
      attributes: half, newton on
      pair build: half/nsq/newton
      stencil: none
      bin: none
Setting up cg style minimization ...
  Unit style    : metal
  Current step  : 100
Per MPI rank memory allocation (min/avg/max) = 4.484 | 4.484 | 4.484 Mbytes
   Step          Temp          PotEng         Press           Pxx            Pyy            Pzz            Pxy            Pxz            Pyz             Lx             Ly             Lz           Volume    
       100   0             -2180.8851     -382.0393      -381.5183      -382.68406     -381.91553     -48.326511     -18.081157      28.491051      17.684732      17.688191      17.688518      5533.1618    
       101   0             -2181.0622      517.80568      490.8596       536.59021      525.96722      20.065195     -50.737726      29.53716       17.684732      17.688191      17.688518      5533.1618    
       102   0             -2181.1307      1113.7147      1040.9926      1154.3387      1145.8129      49.513086     -85.091086      24.958756      17.684732      17.688191      17.688518      5533.1618    
       103   0             -2181.1458      899.73961      815.02635      936.14982      948.04267      17.762711     -79.179552      27.574186      17.684732      17.688191      17.688518      5533.1618    
       104   0             -2181.1512      923.04164      838.17336      958.43305      972.51851      21.78419      -84.252043      21.649489      17.684732      17.688191      17.688518      5533.1618    
       105   0             -2181.1529      999.10811      917.53344      1033.8258      1045.9651      27.671325     -88.122752      19.601564      17.684732      17.688191      17.688518      5533.1618    
       106   0             -2181.1538      948.50229      871.97612      981.30074      992.23         23.053635     -84.517099      16.457318      17.684732      17.688191      17.688518      5533.1618    
       107   0             -2181.154       935.49917      861.80866      966.84469      977.84416      23.135197     -83.616765      17.809203      17.684732      17.688191      17.688518      5533.1618    
       108   0             -2181.1541      938.53776      865.35665      969.30325      980.95339      24.548036     -84.480908      19.465654      17.684732      17.688191      17.688518      5533.1618    
       109   0             -2181.1542      938.04427      863.98904      968.5558       981.58797      24.175581     -84.718182      19.296197      17.684732      17.688191      17.688518      5533.1618    
       110   0             -2181.1542      938.69212      864.13548      969.43443      982.50645      23.686985     -84.489653      19.118973      17.684732      17.688191      17.688518      5533.1618    
       111   0             -2181.1542      936.05837      861.98064      966.53007      979.66438      23.970995     -84.591371      18.610158      17.684732      17.688191      17.688518      5533.1618    
       112   0             -2181.1542      934.76853      861.17444      964.76257      978.36859      24.143879     -84.470351      18.584199      17.684732      17.688191      17.688518      5533.1618    
       113   0             -2181.1542      936.48107      862.52429      966.55378      980.36514      24.08604      -84.575999      18.571602      17.684732      17.688191      17.688518      5533.1618    
       114   0             -2181.1542      936.65599      862.68525      966.8076       980.47513      24.039002     -84.599042      18.745456      17.684732      17.688191      17.688518      5533.1618    
       115   0             -2181.1542      936.57194      862.47819      966.76793      980.4697       24.039165     -84.55081       18.660735      17.684732      17.688191      17.688518      5533.1618    
       116   0             -2181.1542      936.45989      862.31106      966.71261      980.35601      23.897489     -84.607657      18.626802      17.684732      17.688191      17.688518      5533.1618    
       117   0             -2181.1542      936.19578      861.99361      966.49061      980.10312      23.854735     -84.521914      18.614744      17.684732      17.688191      17.688518      5533.1618    
       118   0             -2181.1542      936.28333      862.06499      966.57753      980.20748      23.826303     -84.481353      18.653066      17.684732      17.688191      17.688518      5533.1618    
       119   0             -2181.1542      936.32386      862.11293      966.58288      980.27577      23.90271      -84.480453      18.641793      17.684732      17.688191      17.688518      5533.1618    
       120   0             -2181.1542      936.26123      862.06504      966.50736      980.21128      23.892861     -84.476822      18.661667      17.684732      17.688191      17.688518      5533.1618    
       121   0             -2181.1542      936.23228      862.02667      966.4855       980.18465      23.886479     -84.470786      18.66706       17.684732      17.688191      17.688518      5533.1618    
       122   0             -2181.1542      936.22301      862.02058      966.47881      980.16963      23.883001     -84.476493      18.669192      17.684732      17.688191      17.688518      5533.1618    
       123   0             -2181.1542      936.22594      862.02216      966.48023      980.17542      23.882429     -84.482757      18.660212      17.684732      17.688191      17.688518      5533.1618    
       124   0             -2181.1542      936.21447      862.01324      966.46602      980.16416      23.882915     -84.484325      18.659872      17.684732      17.688191      17.688518      5533.1618    
       125   0             -2181.1542      936.21003      862.01199      966.45887      980.15921      23.882824     -84.485175      18.664605      17.684732      17.688191      17.688518      5533.1618    
       126   0             -2181.1542      936.2101       862.01397      966.45686      980.15946      23.883744     -84.484577      18.66625       17.684732      17.688191      17.688518      5533.1618    
       127   0             -2181.1542      936.21731      862.02109      966.46347      980.16738      23.88502      -84.484201      18.66466       17.684732      17.688191      17.688518      5533.1618    
       128   0             -2181.1542      936.21988      862.02285      966.46642      980.17037      23.885175     -84.484017      18.665301      17.684732      17.688191      17.688518      5533.1618    
       129   0             -2181.1542      936.22066      862.02257      966.46768      980.17172      23.884762     -84.484501      18.665347      17.684732      17.688191      17.688518      5533.1618    
       130   0             -2181.1542      936.21843      862.01983      966.46556      980.16991      23.884458     -84.48541       18.6655        17.684732      17.688191      17.688518      5533.1618    
       131   0             -2181.1542      936.21778      862.01881      966.46502      980.1695       23.884597     -84.485356      18.665773      17.684732      17.688191      17.688518      5533.1618    
       132   0             -2181.1542      936.21819      862.01926      966.46536      980.16994      23.884684     -84.485088      18.665449      17.684732      17.688191      17.688518      5533.1618    
       133   0             -2181.1542      936.21906      862.02001      966.46611      980.17107      23.884578     -84.485023      18.665219      17.684732      17.688191      17.688518      5533.1618    
[...]
       155   0             -2181.1542      938.05205      863.54752      968.90554      981.7031       25.058226     -84.483412      18.665284      17.684732      17.688174      17.688518      5533.1563    
       156   0             -2181.1542      938.05205      863.54752      968.90554      981.7031       25.058226     -84.483412      18.665284      17.684732      17.688174      17.688518      5533.1563    
       157   0             -2181.1542      938.05205      863.54752      968.90554      981.7031       25.058226     -84.483412      18.665284      17.684732      17.688174      17.688518      5533.1563    
       158   0             -2181.1542      938.05205      863.54752      968.90554      981.7031       25.058227     -84.483412      18.665284      17.684732      17.688174      17.688518      5533.1563    
       159   0             -2181.1542      938.05205      863.54752      968.90554      981.7031       25.058226     -84.483412      18.665284      17.684732      17.688174      17.688518      5533.1563    
       160   0             -2181.1542      938.05205      863.54752      968.90554      981.7031       25.058226     -84.483412      18.665284      17.684732      17.688174      17.688518      5533.1563    
       161   0             -2181.1542      938.05205      863.54752      968.90554      981.7031       25.058226     -84.483412      18.665284      17.684732      17.688174      17.688518      5533.1563    
Loop time of 0.146141 on 1 procs for 61 steps with 500 atoms

96.2% CPU use with 1 MPI tasks x 1 OpenMP threads

Minimization stats:
  Stopping criterion = force tolerance
  Energy initial, next-to-last, final = 
     -2180.88508327444  -2181.15424524038  -2181.15424524038
  Force two-norm initial, final = 2.1733239 7.3837123e-11
  Force max component initial, final = 0.18690517 8.9027816e-12
  Final line search alpha, max atom move = 1 8.9027816e-12
  Iterations, force evaluations = 61 120

MPI task timing breakdown:
Section |  min time  |  avg time  |  max time  |%varavg| %total
---------------------------------------------------------------
Pair    | 0.14348    | 0.14348    | 0.14348    |   0.0 | 98.18
Neigh   | 0          | 0          | 0          |   0.0 |  0.00
Comm    | 0.000704   | 0.000704   | 0.000704   |   0.0 |  0.48
Output  | 0.000973   | 0.000973   | 0.000973   |   0.0 |  0.67
Modify  | 0          | 0          | 0          |   0.0 |  0.00
Other   |            | 0.000988   |            |       |  0.68

Nlocal:            500 ave         500 max         500 min
Histogram: 1 0 0 0 0 0 0 0 0 0
Nghost:           1956 ave        1956 max        1956 min
Histogram: 1 0 0 0 0 0 0 0 0 0
Neighs:          33500 ave       33500 max       33500 min
Histogram: 1 0 0 0 0 0 0 0 0 0

Total # of neighbors = 33500
Ave neighs/atom = 67
Neighbor list builds = 0
Dangerous builds = 0
OMP_NUM_THREADS environment is not set. Defaulting to 1 thread. (src/comm.cpp:98)
  using 1 OpenMP thread(s) per MPI task
Loaded 1 plugins from F:\Lammps\LAMMPS 64-bit 2Aug2023\plugins

The 'box' command has been removed and will be ignored

Reading restart file ...
  restart file = 2 Aug 2023, LAMMPS = 2 Aug 2023
  restoring atom style atomic from restart
  triclinic box = (0.052633981 0.050913187 0.050740769) to (17.737366 17.739087 17.739259) with tilt (0 0 0)
  1 by 1 by 1 MPI processor grid
  pair style eam/alloy stores no restart info
  500 atoms
  read_restart CPU = 0.000 seconds
Changing box ...
  triclinic box = (0.052633981 0.050913187 0.050740769) to (17.737366 17.739087 17.739259) with tilt (1.7688174e-05 0 0)
Neighbor list info ...
  update: every = 1 steps, delay = 0 steps, check = yes
  max neighbors/atom: 2000, page size: 100000
  master list distance cutoff = 6.80375
  ghost atom cutoff = 6.80375
  1 neighbor lists, perpetual/occasional/extra = 1 0 0
  (1) pair eam/alloy, perpetual
      attributes: half, newton on
      pair build: half/nsq/newton
      stencil: none
      bin: none
Setting up cg style minimization ...
  Unit style    : metal
  Current step  : 100
Per MPI rank memory allocation (min/avg/max) = 4.484 | 4.484 | 4.484 Mbytes
   Step          Temp          PotEng         Press           Pxx            Pyy            Pzz            Pxy            Pxz            Pyz             Lx             Ly             Lz           Volume    
       100   0             -2180.8851     -380.17292     -379.9583      -380.20616     -380.35429     -49.512947     -18.07907       28.490362      17.684732      17.688174      17.688518      5533.1563    
       101   0             -2181.0622      519.65583      492.40464      539.04946      527.51338      18.884274     -50.735828      29.53655       17.684732      17.688174      17.688518      5533.1563    
       102   0             -2181.1307      1115.5567      1042.5284      1156.7906      1147.3509      48.332719     -85.089716      24.958208      17.684732      17.688174      17.688518      5533.1563    
       103   0             -2181.1458      901.58516      816.56713      938.6036       949.58474      16.585675     -79.177956      27.573556      17.684732      17.688174      17.688518      5533.1563    
       104   0             -2181.1512      924.87609      839.70372      960.87538      974.04915      20.605079     -84.250083      21.64923       17.684732      17.688174      17.688518      5533.1563    
       105   0             -2181.1529      1000.9467      919.06795      1036.2727      1047.4996      26.491589     -88.120842      19.600922      17.684732      17.688174      17.688518      5533.1563    
       106   0             -2181.1538      950.34219      873.51236      983.7484       993.76582      21.87416      -84.515314      16.456744      17.684732      17.688174      17.688518      5533.1563    
       107   0             -2181.154       937.33772      863.34357      969.29093      979.37866      21.955496     -83.614929      17.808554      17.684732      17.688174      17.688518      5533.1563    
       108   0             -2181.1541      940.37677      866.89214      971.74984      982.48832      23.368409     -84.479058      19.465098      17.684732      17.688174      17.688518      5533.1563    
       109   0             -2181.1542      939.88286      865.52412      971.00191      983.12255      22.996015     -84.716366      19.295632      17.684732      17.688174      17.688518      5533.1563    
       110   0             -2181.1542      940.53047      865.6703       971.88023      984.04087      22.507411     -84.487872      19.118472      17.684732      17.688174      17.688518      5533.1563    
       111   0             -2181.1542      937.89723      863.51596      968.97636      981.19935      22.791531     -84.589563      18.609629      17.684732      17.688174      17.688518      5533.1563    
       112   0             -2181.1542      936.60711      862.70953      967.20853      979.90328      22.964411     -84.468552      18.583643      17.684732      17.688174      17.688518      5533.1563    
       113   0             -2181.1542      938.31958      864.05934      968.99964      981.89977      22.906516     -84.57419       18.571032      17.684732      17.688174      17.688518      5533.1563    
       114   0             -2181.1542      938.49459      864.22038      969.25355      982.00983      22.859481     -84.597229      18.744909      17.684732      17.688174      17.688518      5533.1563    
       115   0             -2181.1542      938.41052      864.0133       969.21387      982.00439      22.859661     -84.549004      18.660188      17.684732      17.688174      17.688518      5533.1563    
       116   0             -2181.1542      938.29852      863.8462       969.15861      981.89076      22.717969     -84.605854      18.626256      17.684732      17.688174      17.688518      5533.1563    
       117   0             -2181.1542      938.03441      863.52875      968.93661      981.63786      22.675204     -84.520111      18.614192      17.684732      17.688174      17.688518      5533.1563    
       118   0             -2181.1542      938.12192      863.60009      969.02349      981.74217      22.646766     -84.479547      18.652518      17.684732      17.688174      17.688518      5533.1563    
       119   0             -2181.1542      938.16246      863.64805      969.02885      981.81049      22.723179     -84.478646      18.641241      17.684732      17.688174      17.688518      5533.1563    
       120   0             -2181.1542      938.09983      863.60017      968.95332      981.746        22.713327     -84.475016      18.661113      17.684732      17.688174      17.688518      5533.1563    
       121   0             -2181.1542      938.07088      863.5618       968.93146      981.71937      22.70694      -84.46898       18.666509      17.684732      17.688174      17.688518      5533.1563    
       122   0             -2181.1542      938.0616       863.55571      968.92476      981.70434      22.703463     -84.474687      18.668642      17.684732      17.688174      17.688518      5533.1563    
       123   0             -2181.1542      938.06453      863.55729      968.92618      981.71013      22.70289      -84.480952      18.65966       17.684732      17.688174      17.688518      5533.1563    
       124   0             -2181.1542      938.05307      863.54836      968.91197      981.69887      22.703377     -84.482519      18.659321      17.684732      17.688174      17.688518      5533.1563    
       125   0             -2181.1542      938.04862      863.54712      968.90483      981.69393      22.703285     -84.483369      18.664053      17.684732      17.688174      17.688518      5533.1563    
       126   0             -2181.1542      938.04869      863.54909      968.90282      981.69417      22.704205     -84.482772      18.665699      17.684732      17.688174      17.688518      5533.1563    
       127   0             -2181.1542      938.05591      863.55621      968.90942      981.70209      22.705482     -84.482395      18.664109      17.684732      17.688174      17.688518      5533.1563    
       128   0             -2181.1542      938.05848      863.55797      968.91238      981.70508      22.705637     -84.482211      18.66475       17.684732      17.688174      17.688518      5533.1563    
       129   0             -2181.1542      938.05925      863.55769      968.91363      981.70644      22.705224     -84.482695      18.664796      17.684732      17.688174      17.688518      5533.1563    
       130   0             -2181.1542      938.05703      863.55495      968.91152      981.70462      22.704919     -84.483605      18.664948      17.684732      17.688174      17.688518      5533.1563    
       131   0             -2181.1542      938.05637      863.55393      968.91097      981.70422      22.705059     -84.483551      18.665222      17.684732      17.688174      17.688518      5533.1563    
       132   0             -2181.1542      938.05678      863.55438      968.91132      981.70465      22.705145     -84.483282      18.664897      17.684732      17.688174      17.688518      5533.1563    
       133   0             -2181.1542      938.05766      863.55513      968.91207      981.70579      22.70504      -84.483217      18.664667      17.684732      17.688174      17.688518      5533.1563    
       134   0             -2181.1542      938.05761      863.55512      968.91194      981.70577      22.704906     -84.483132      18.664883      17.684732      17.688174      17.688518      5533.1563    
       135   0             -2181.1542      938.05723      863.55475      968.91146      981.70549      22.705004     -84.483202      18.664882      17.684732      17.688174      17.688518      5533.1563    
       136   0             -2181.1542      938.05712      863.5546       968.91135      981.7054       22.70501      -84.483213      18.664876      17.684732      17.688174      17.688518      5533.1563    
       137   0             -2181.1542      938.05717      863.55465      968.91138      981.70548      22.705023     -84.483188      18.664849      17.684732      17.688174      17.688518      5533.1563    
       138   0             -2181.1542      938.05718      863.55467      968.9114       981.70549      22.705023     -84.48319       18.664847      17.684732      17.688174      17.688518      5533.1563    
       139   0             -2181.1542      938.0572       863.55469      968.91141      981.7055       22.705021     -84.483189      18.664844      17.684732      17.688174      17.688518      5533.1563    
       140   0             -2181.1542      938.05719      863.55468      968.9114       981.70549      22.705023     -84.483183      18.664849      17.684732      17.688174      17.688518      5533.1563    
       141   0             -2181.1542      938.0572       863.55469      968.9114       981.70549      22.705025     -84.48318       18.664851      17.684732      17.688174      17.688518      5533.1563    
       142   0             -2181.1542      938.0572       863.5547       968.91141      981.7055       22.705023     -84.483179      18.664852      17.684732      17.688174      17.688518      5533.1563    
       143   0             -2181.1542      938.05721      863.55471      968.91141      981.7055       22.705022     -84.483174      18.664853      17.684732      17.688174      17.688518      5533.1563    
       144   0             -2181.1542      938.05721      863.55471      968.91141      981.7055       22.705021     -84.483172      18.664855      17.684732      17.688174      17.688518      5533.1563    
       145   0             -2181.1542      938.0572       863.5547       968.91141      981.7055       22.705021     -84.483175      18.664855      17.684732      17.688174      17.688518      5533.1563    
       146   0             -2181.1542      938.0572       863.5547       968.91141      981.7055       22.705021     -84.483175      18.664855      17.684732      17.688174      17.688518      5533.1563    
       147   0             -2181.1542      938.0572       863.5547       968.91141      981.7055       22.705021     -84.483176      18.664854      17.684732      17.688174      17.688518      5533.1563    
       148   0             -2181.1542      938.0572       863.5547       968.91141      981.7055       22.705021     -84.483176      18.664855      17.684732      17.688174      17.688518      5533.1563    
       149   0             -2181.1542      938.0572       863.5547       968.91141      981.7055       22.705021     -84.483176      18.664855      17.684732      17.688174      17.688518      5533.1563    
       150   0             -2181.1542      938.0572       863.5547       968.91141      981.7055       22.705021     -84.483176      18.664855      17.684732      17.688174      17.688518      5533.1563    
       151   0             -2181.1542      938.0572       863.5547       968.91141      981.7055       22.705021     -84.483176      18.664855      17.684732      17.688174      17.688518      5533.1563    
       152   0             -2181.1542      938.0572       863.5547       968.91141      981.7055       22.705021     -84.483176      18.664855      17.684732      17.688174      17.688518      5533.1563    
       153   0             -2181.1542      938.0572       863.5547       968.91141      981.7055       22.705021     -84.483176      18.664855      17.684732      17.688174      17.688518      5533.1563    
       154   0             -2181.1542      938.0572       863.5547       968.91141      981.7055       22.705021     -84.483176      18.664855      17.684732      17.688174      17.688518      5533.1563    
       155   0             -2181.1542      938.0572       863.5547       968.91141      981.7055       22.705021     -84.483176      18.664855      17.684732      17.688174      17.688518      5533.1563    
       156   0             -2181.1542      938.0572       863.5547       968.91141      981.7055       22.705021     -84.483176      18.664855      17.684732      17.688174      17.688518      5533.1563    
       157   0             -2181.1542      938.0572       863.5547       968.91141      981.7055       22.705021     -84.483176      18.664855      17.684732      17.688174      17.688518      5533.1563    
       158   0             -2181.1542      938.0572       863.5547       968.91141      981.7055       22.705021     -84.483176      18.664855      17.684732      17.688174      17.688518      5533.1563    
       159   0             -2181.1542      938.0572       863.5547       968.91141      981.7055       22.705021     -84.483176      18.664855      17.684732      17.688174      17.688518      5533.1563    
       160   0             -2181.1542      938.0572       863.5547       968.91141      981.7055       22.705021     -84.483176      18.664855      17.684732      17.688174      17.688518      5533.1563    
       161   0             -2181.1542      938.0572       863.5547       968.91141      981.7055       22.705021     -84.483176      18.664855      17.684732      17.688174      17.688518      5533.1563    
Loop time of 0.148731 on 1 procs for 61 steps with 500 atoms

94.5% CPU use with 1 MPI tasks x 1 OpenMP threads

Minimization stats:
  Stopping criterion = force tolerance
  Energy initial, next-to-last, final = 
     -2180.88508294064  -2181.15424540536  -2181.15424540535
  Force two-norm initial, final = 2.1733277 7.3859684e-11
  Force max component initial, final = 0.1869056 8.9006441e-12
  Final line search alpha, max atom move = 1 8.9006441e-12
  Iterations, force evaluations = 61 120

MPI task timing breakdown:
Section |  min time  |  avg time  |  max time  |%varavg| %total
---------------------------------------------------------------
Pair    | 0.14594    | 0.14594    | 0.14594    |   0.0 | 98.13
Neigh   | 0          | 0          | 0          |   0.0 |  0.00
Comm    | 0.000732   | 0.000732   | 0.000732   |   0.0 |  0.49
Output  | 0.001018   | 0.001018   | 0.001018   |   0.0 |  0.68
Modify  | 0          | 0          | 0          |   0.0 |  0.00
Other   |            | 0.001038   |            |       |  0.70

Nlocal:            500 ave         500 max         500 min
Histogram: 1 0 0 0 0 0 0 0 0 0
Nghost:           1956 ave        1956 max        1956 min
Histogram: 1 0 0 0 0 0 0 0 0 0
Neighs:          33500 ave       33500 max       33500 min
Histogram: 1 0 0 0 0 0 0 0 0 0

Total # of neighbors = 33500
Ave neighs/atom = 67
Neighbor list builds = 0
Dangerous builds = 0
=========================================
Components of the Elastic Constant Tensor
=========================================
Elastic Constant C11all = 243.805918145001 GPa
Elastic Constant C22all = 244.301764603006 GPa
Elastic Constant C33all = 244.525572468498 GPa
Elastic Constant C12all = 153.158336226996 GPa
Elastic Constant C13all = 153.169727087498 GPa
Elastic Constant C23all = 153.350973765002 GPa
Elastic Constant C44all = 117.89042816913 GPa
Elastic Constant C55all = 117.69276509006 GPa
Elastic Constant C66all = 117.66029286533 GPa
Elastic Constant C14all = -0.00493806431100552 GPa
Elastic Constant C15all = 0.132399599202017 GPa
Elastic Constant C16all = -0.357006192617746 GPa
Elastic Constant C24all = -0.0355347477341468 GPa
Elastic Constant C25all = 0.172994403466191 GPa
Elastic Constant C26all = -0.293540943630205 GPa
Elastic Constant C34all = -0.0649968809598249 GPa
Elastic Constant C35all = 0.0420915538609279 GPa
Elastic Constant C36all = -0.118913565278717 GPa
Elastic Constant C45all = -0.0537459945899741 GPa
Elastic Constant C46all = 0.0256783337749766 GPa
Elastic Constant C56all = -0.0118075764298738 GPa
=========================================
Average properties for a cubic crystal
=========================================
Bulk Modulus = 183.554592152833 GPa
Shear Modulus 1 = 117.747828708173 GPa
Shear Modulus 2 = 45.4923696895015 GPa
Poisson Ratio = 0.385535769487292
Total wall time: 0:00:02
