LAMMPS (2 Aug 2023 - Update 3)
OMP_NUM_THREADS environment is not set. Defaulting to 1 thread. (src/comm.cpp:98)
  using 1 OpenMP thread(s) per MPI task
Loaded 1 plugins from F:\Lammps\LAMMPS 64-bit 2Aug2023\plugins
Reading data file ...
  orthogonal box = (0 0 0) to (17.79 17.79 17.79)
  1 by 1 by 1 MPI processor grid
  reading atoms ...
  500 atoms
  read_data CPU = 0.002 seconds
Changing box ...
  triclinic box = (0 0 0) to (17.79 17.79 17.79) with tilt (0 0 0)
Neighbor list info ...
  update: every = 1 steps, delay = 0 steps, check = yes
  max neighbors/atom: 2000, page size: 100000
  master list distance cutoff = 6.80375
  ghost atom cutoff = 6.80375
  1 neighbor lists, perpetual/occasional/extra = 1 0 0
  (1) pair eam/alloy, perpetual
      attributes: half, newton on
      pair build: half/nsq/newton
      stencil: none
      bin: none
Setting up cg style minimization ...
  Unit style    : metal
  Current step  : 0
WARNING: Energy due to 3 extra global DOFs will be included in minimizer energies
 (src/min.cpp:228)
Per MPI rank memory allocation (min/avg/max) = 4.492 | 4.492 | 4.492 Mbytes
   Step          Temp          PotEng         Press           Pxx            Pyy            Pzz            Pxy            Pxz            Pyz             Lx             Ly             Lz           Volume    
         0   0             -2179.7718     -33247.589     -33226.326     -33240.85      -33275.589      229.00605     -89.02848      -101.54956      17.79          17.79          17.79          5630.2521    
         1   0             -2179.8065     -32704.708     -32683.569     -32698.038     -32732.517      228.28451     -88.844346     -100.90789      17.788224      17.788223      17.788221      5628.5647    
         2   0             -2179.8407     -32161.406     -32140.391     -32154.81      -32189.018      227.55929     -88.660879     -100.26026      17.786447      17.786446      17.786442      5626.8775    
         3   0             -2179.8742     -31617.676     -31596.785     -31611.158     -31645.084      226.83029     -88.478796     -99.606764      17.784671      17.784669      17.784663      5625.1907    
         4   0             -2179.9072     -31073.533     -31052.768     -31067.098     -31100.733      226.09736     -88.297974     -98.947687      17.782895      17.782892      17.782884      5623.5043    
         5   0             -2179.9397     -30529.046     -30508.408     -30522.694     -30556.036      225.35774     -88.117886     -98.284416      17.781118      17.781114      17.781105      5621.8182    
         6   0             -2179.9715     -29984.26      -29963.751     -29977.99      -30011.04       224.61241     -87.937933     -97.61724       17.779342      17.779337      17.779326      5620.1325    
         7   0             -2180.0028     -29439.174     -29418.797     -29432.985     -29465.741      223.86157     -87.757978     -96.946041      17.777566      17.77756       17.777547      5618.4471    
         8   0             -2180.0335     -28893.751     -28873.508     -28887.645     -28920.1        223.10601     -87.579669     -96.269751      17.77579       17.775783      17.775768      5616.7621    
         9   0             -2180.0636     -28347.932     -28327.825     -28341.914     -28374.057      222.34783     -87.403017     -95.587252      17.774014      17.774006      17.773989      5615.0774    
        10   0             -2180.0931     -27801.687     -27781.716     -27795.761     -27827.584      221.58798     -87.226118     -94.89904       17.772238      17.772229      17.77221       5613.3931    
        11   0             -2180.122      -27255.032     -27235.196     -27249.201     -27280.697      220.8261      -87.048688     -94.205634      17.770462      17.770452      17.770431      5611.7091    
        12   0             -2180.1504     -26708.004     -26688.305     -26702.273     -26733.435      220.0614      -86.870891     -93.508704      17.768686      17.768675      17.768652      5610.0255    
        13   0             -2180.1782     -26160.635     -26141.072     -26155.005     -26185.828      219.29327     -86.694185     -92.808592      17.76691       17.766899      17.766873      5608.3423    
        14   0             -2180.2054     -25612.966     -25593.54      -25607.441     -25637.916      218.51783     -86.521928     -92.103843      17.765134      17.765122      17.765094      5606.6594    
        15   0             -2180.232      -25064.958     -25045.672     -25059.542     -25089.66       217.73558     -86.353868     -91.393216      17.763358      17.763345      17.763315      5604.9768    
        16   0             -2180.2581     -24516.566     -24497.421     -24511.259     -24541.017      216.94616     -86.189684     -90.676598      17.761582      17.761568      17.761536      5603.2946    
        17   0             -2180.2835     -23967.768     -23948.766     -23962.571     -23991.966      216.14971     -86.028266     -89.954207      17.759806      17.759791      17.759757      5601.6128    
        18   0             -2180.3084     -23418.553     -23399.695     -23413.467     -23442.497      215.35028     -85.867619     -89.228331      17.75803       17.758014      17.757978      5599.9313    
        19   0             -2180.3327     -22869.006     -22850.292     -22864.036     -22892.689      214.54824     -85.708201     -88.499419      17.756254      17.756237      17.756199      5598.2502    
        20   0             -2180.3564     -22319.142     -22300.573     -22314.294     -22342.559      213.74402     -85.549708     -87.7672        17.754479      17.754461      17.75442       5596.5695    
        21   0             -2180.3795     -21768.986     -21750.564     -21764.266     -21792.129      212.93709     -85.393083     -87.031411      17.752703      17.752684      17.752641      5594.8891    
        22   0             -2180.4021     -21218.461     -21200.187     -21213.871     -21241.326      212.12549     -85.239362     -86.290718      17.750927      17.750907      17.750862      5593.209     
        23   0             -2180.4241     -20667.595     -20649.469     -20663.138     -20690.179      211.31036     -85.087275     -85.544917      17.749152      17.74913       17.749083      5591.5294    
        24   0             -2180.4455     -20116.38      -20098.403     -20112.056     -20138.679      210.49174     -84.936532     -84.794617      17.747376      17.747354      17.747304      5589.85      
        25   0             -2180.4663     -19564.864     -19547.036     -19560.677     -19586.879      209.67037     -84.784348     -84.040143      17.745601      17.745577      17.745525      5588.1711    
        26   0             -2180.4865     -19013.054     -18995.379     -19009.001     -19034.781      208.84457     -84.630457     -83.28181       17.743826      17.743801      17.743746      5586.4925    
        27   0             -2180.5061     -18460.907     -18443.391     -18456.988     -18482.343      208.0137      -84.476441     -82.519431      17.74205       17.742024      17.741967      5584.8143    
        28   0             -2180.5252     -17908.428     -17891.074     -17904.644     -17929.567      207.17836     -84.323401     -81.752039      17.740275      17.740247      17.740188      5583.1364    
        29   0             -2180.5437     -17355.634     -17338.44      -17351.991     -17376.471      206.34063     -84.17502      -80.980532      17.7385        17.738471      17.738409      5581.4589    
        30   0             -2180.5616     -16802.534     -16785.5       -16799.04      -16823.064      205.50098     -84.031793     -80.205036      17.736725      17.736694      17.73663       5579.7818    
        31   0             -2180.5789     -16249.155     -16232.278     -16245.816     -16269.373      204.65988     -83.892475     -79.42603       17.73495       17.734918      17.734851      5578.1051    
        32   0             -2180.5956     -15695.458     -15678.74      -15692.275     -15715.358      203.81546     -83.755013     -78.643543      17.733175      17.733142      17.733072      5576.4287    
        33   0             -2180.6117     -15141.414     -15124.862     -15138.39      -15160.991      202.96709     -83.615234     -77.855888      17.7314        17.731365      17.731293      5574.7527    
        34   0             -2180.6273     -14587.032     -14570.65      -14584.167     -14606.278      202.1147      -83.473275     -77.062609      17.729625      17.729589      17.729514      5573.0771    
        35   0             -2180.6423     -14032.317     -14016.11      -14029.614     -14051.229      201.25777     -83.329524     -76.263716      17.727851      17.727813      17.727735      5571.4019    
        36   0             -2180.6567     -13477.341     -13461.309     -13474.799     -13495.916      200.39674     -83.188037     -75.460025      17.726076      17.726036      17.725956      5569.727     
        37   0             -2180.6705     -12922.127     -12906.273     -12919.748     -12940.362      199.53386     -83.05087      -74.652258      17.724302      17.72426       17.724177      5568.0525    
        38   0             -2180.6837     -12366.683     -12351.007     -12364.468     -12384.573      198.66913     -82.917902     -73.840994      17.722527      17.722484      17.722398      5566.3785    
        39   0             -2180.6964     -11810.969     -11795.476     -11808.925     -11828.507      197.80366     -82.788794     -73.025801      17.720753      17.720708      17.720619      5564.7048    
        40   0             -2180.7085     -11254.925     -11239.618     -11253.053     -11272.104      196.93491     -82.65996      -72.206697      17.718979      17.718932      17.71884       5563.0315    
        41   0             -2180.7199     -10698.523     -10683.405     -10696.825     -10715.338      196.05988     -82.531204     -71.382493      17.717205      17.717156      17.717061      5561.3586    
        42   0             -2180.7308     -10141.791     -10126.864     -10140.27      -10158.239      195.17832     -82.402666     -70.553222      17.715432      17.71538       17.715282      5559.6862    
        43   0             -2180.7412     -9584.8078     -9570.0766     -9583.4692     -9600.8775      194.29156     -82.274714     -69.718947      17.713658      17.713604      17.713503      5558.0141    
        44   0             -2180.7509     -9027.6003     -9013.0706     -9026.4522     -9043.2781      193.4022      -82.149599     -68.880514      17.711885      17.711828      17.711724      5556.3425    
        45   0             -2180.7601     -8470.207      -8455.8868     -8469.2558     -8485.4783      192.51201     -82.026365     -68.038539      17.710112      17.710053      17.709945      5554.6713    
        46   0             -2180.7686     -7912.5627     -7898.4609     -7911.8094     -7927.4178      191.62016     -81.904805     -67.193318      17.708339      17.708277      17.708166      5553.0006    
        47   0             -2180.7766     -7354.6722     -7340.7969     -7354.1159     -7369.1037      190.72573     -81.784885     -66.34443       17.706567      17.706501      17.706387      5551.3303    
        48   0             -2180.784      -6796.539      -6782.8985     -6796.1782     -6810.5403      189.82819     -81.664762     -65.491769      17.704794      17.704726      17.704608      5549.6605    
        49   0             -2180.7909     -6238.1704     -6224.7733     -6238.0059     -6251.7318      188.92716     -81.545723     -64.63568       17.703023      17.702951      17.702829      5547.9912    
        50   0             -2180.7971     -5679.5494     -5666.4091     -5679.5822     -5692.6568      188.0218      -81.427911     -63.777132      17.701251      17.701176      17.70105       5546.3224    
        51   0             -2180.8028     -5120.6881     -5107.8182     -5120.9185     -5133.3276      187.11179     -81.312054     -62.916372      17.699481      17.699401      17.699271      5544.6542    
        52   0             -2180.8079     -4561.6229     -4549.0397     -4562.0511     -4573.7778      186.19724     -81.19839      -62.053096      17.69771       17.697626      17.697492      5542.9866    
        53   0             -2180.8124     -4002.4412     -3990.1627     -4003.0654     -4014.0956      185.27896     -81.08566      -61.186265      17.695941      17.695852      17.695713      5541.3196    
        54   0             -2180.8163     -3443.217      -3431.2684     -3444.0348     -3454.3477      184.3582      -80.972649     -60.314407      17.694173      17.694078      17.693934      5539.6534    
        55   0             -2180.8197     -2883.9676     -2872.3843     -2884.9751     -2894.5435      183.43444     -80.859026     -59.437121      17.692406      17.692304      17.692155      5537.9881    
        56   0             -2180.8225     -2324.683      -2313.5189     -2325.8741     -2334.656       182.50538     -80.745839     -58.554328      17.69064       17.690531      17.690376      5536.3238    
        57   0             -2180.8247     -1765.3762     -1754.7038     -1766.7419     -1774.6829      181.5694      -80.63452      -57.665281      17.688877      17.688759      17.688597      5534.6609    
        58   0             -2180.8264     -1206.1897     -1196.1229     -1207.7129     -1214.7333      180.62446     -80.525165     -56.770271      17.687118      17.686988      17.686818      5532.9999    
        59   0             -2180.8275     -647.52091     -638.26335     -649.16359     -655.13581      179.66776     -80.415756     -55.86626       17.685367      17.685219      17.685039      5531.3422    
        60   0             -2180.8283     -90.765299     -82.845804     -92.420132     -97.029961      178.69295     -80.300375     -54.940307      17.683634      17.683456      17.68326       5529.6926    
        61   0             -2180.8306      441.84094      442.26254      441.44612      441.81415      177.53869     -80.109121     -53.765668      17.682115      17.681762      17.681481      5528.1316    
        62   0             -2180.8321     -104.92443     -106.47759     -104.63268     -103.66303      178.32685     -80.159259     -54.454131      17.683894      17.683491      17.683191      5529.7633    
        63   0             -2180.8372      466.59601      465.88494      466.41506      467.48804      176.8071      -79.846563     -52.860649      17.682115      17.681728      17.68144       5528.108     
        64   0             -2180.8388     -90.551648     -90.910653     -90.518094     -90.226197      177.59812     -79.895359     -53.554535      17.683882      17.6835        17.683219      5529.7711    
        65   0             -2180.8452      483.05985      483.84821      482.57377      482.75756      175.91977     -79.524059     -51.768542      17.682103      17.681741      17.681478      5528.1207    
        66   0             -2180.8468     -75.81327      -74.998734     -76.018892     -76.422186      176.71451     -79.577106     -52.469418      17.683882      17.683517      17.683257      5529.7885    
        67   0             -2180.8544      498.31706      497.16626      498.21616      499.56876      174.89289     -79.153809     -50.50587       17.682173      17.681754      17.681478      5528.1467    
        68   0             -2180.8559     -60.450407     -61.512142     -60.286739     -59.552341      175.68956     -79.21158      -51.214148      17.683949      17.68353       17.683257      5529.8135    
        69   0             -2180.865       505.96336      508.58145      505.10416      504.20447      173.68579     -78.719156     -49.043952      17.68217       17.681826      17.681604      5528.2077    
        70   0             -2180.8664     -52.231144     -49.793922     -52.773996     -54.125513      174.48398     -78.782269     -49.759211      17.683949      17.683598      17.683377      5529.8721    
        71   0             -2180.8765      494.00791      487.18884      495.06531      499.76957      172.39123     -78.254722     -47.459093      17.682493      17.681917      17.681598      5528.3349    
        72   0             -2180.8778     -61.814171     -67.855786     -60.639192     -56.947534      173.18435     -78.321122     -48.177102      17.684246      17.683684      17.683377      5529.9918    
        73   0             -2180.8855      411.45541      423.75616      408.68302      401.92706      171.45535     -77.893032     -46.349079      17.682467      17.682323      17.682233      5528.652     
        74   0             -2180.8867     -139.23181     -128.37721     -141.43858     -147.87966      172.23564     -77.961399     -47.05449       17.684246      17.684065      17.683961      5530.2937    
        75   0             -2180.891       355.41472      349.68228      356.33974      360.22213      170.89663     -77.682573     -45.634241      17.683042      17.682473      17.682182      5528.8632    
        76   0             -2180.8925     -196.29321     -203.16629     -194.87007     -190.84328      171.63826     -77.73934      -46.29751       17.684821      17.684222      17.683921      5530.5104    
        77   0             -2180.896       344.86021      343.26102      344.9383       346.38132      170.29489     -77.472533     -44.934275      17.683042      17.682563      17.682324      5528.9359    
        78   0             -2180.8978     -202.95939     -202.50208     -203.03479     -203.3413       170.98413     -77.51477      -45.546702      17.68475       17.684315      17.684103      5530.5742    
        79   0             -2180.9011      360.81765      362.7862       360.16912      359.49762      169.62048     -77.248994     -44.162513      17.682971      17.682569      17.682376      5528.9317    
        80   0             -2180.9031     -195.74495     -193.87591     -196.10171     -197.25724      170.29711     -77.286624     -44.756015      17.68475       17.684342      17.684152      5530.5976    
        81   0             -2180.9066      369.06124      369.19201      368.78974      369.20197      168.91817     -77.016076     -43.350225      17.683032      17.68258       17.682373      5528.9531    
        82   0             -2180.9086     -184.40349     -184.87482     -184.28731     -184.04833      169.58357     -77.053456     -43.934153      17.684811      17.684341      17.684131      5530.61      
        83   0             -2180.9121      388.57339      387.99995      388.43363      389.28659      168.16222     -76.771012     -42.487629      17.683037      17.682562      17.682353      5528.9431    
        84   0             -2180.9142     -167.73098     -168.11171     -167.6458      -167.43543      168.82937     -76.810411     -43.077498      17.68481       17.684336      17.684132      5530.6082    
        85   0             -2180.918       403.60149      403.81065      403.2967       403.69713      167.37079     -76.514948     -41.59203       17.683031      17.682567      17.682373      5528.9487    
        86   0             -2180.9199     -153.10896     -152.73962     -153.18199     -153.40528      168.04514     -76.55924      -42.19328       17.684804      17.684341      17.684152      5530.6143    
        87   0             -2180.924       421.4314       421.52334      421.14673      421.62413      166.5319      -76.247056     -40.648711      17.683035      17.682562      17.682373      5528.9486    
        88   0             -2180.9259     -135.95883     -135.9321      -135.96783     -135.97657      167.21379     -76.296415     -41.26106       17.684814      17.684336      17.68415       5530.6153    
        89   0             -2180.9303      440.1013       440.03439      439.84173      440.42779      165.63402     -75.96336      -39.646866      17.683042      17.682557      17.682374      5528.9492    
        90   0             -2180.9321     -117.82785     -117.86729     -117.83305     -117.78321      166.32513     -76.018527     -40.272625      17.684819      17.684333      17.684153      5530.6167    
        91   0             -2180.9371      460.1875       460.2774       459.89009      460.395        164.6561      -75.657949     -38.565198      17.683042      17.682554      17.68238       5528.9502    
        92   0             -2180.9388     -98.05617      -97.933421     -98.102242     -98.132847      165.35717     -75.719542     -39.205103      17.68482       17.684329      17.684159      5530.6176    
        93   0             -2180.9445      481.99687      481.93995      481.72296      482.32772      163.56088     -75.320275     -37.363691      17.683051      17.68255       17.682383      5528.9528    
        94   0             -2180.9461     -76.746101     -76.795587     -76.765755     -76.676961      164.27322     -75.389073     -38.019274      17.684829      17.684326      17.684162      5530.6205    
        95   0             -2180.9531      507.75409      507.93127      507.4236       507.90741      162.26481     -74.926807     -35.956689      17.683052      17.682547      17.682393      5528.9553    
        96   0             -2180.9546     -51.371554     -51.183832     -51.450537     -51.480295      162.9888      -75.003438     -36.628643      17.68483       17.684323      17.684172      5530.6229    
        97   0             -2180.9643      540.42241      539.88088      540.23183      541.15453      160.52232     -74.407592     -34.086085      17.683079      17.682544      17.682395      5528.9633    
        98   0             -2180.9657     -18.963074     -19.450478     -18.914342     -18.5244        161.25975     -74.4941       -34.776819      17.684855      17.684319      17.684174      5530.6303    
        99   0             -2180.988       580.50038      586.70044      578.89812      575.90259      156.67202     -73.285527     -30.034068      17.683076      17.682671      17.682627      5529.0749    
       100   0             -2180.9892      24.756526      30.148156      23.565397      20.556024      157.41876     -73.386813     -30.742831      17.684855      17.684429      17.68438       5530.7291    
Loop time of 0.119084 on 1 procs for 100 steps with 500 atoms

91.8% CPU use with 1 MPI tasks x 1 OpenMP threads

Minimization stats:
  Stopping criterion = max iterations
  Energy initial, next-to-last, final = 
     -2179.77175765558  -2180.98802870992  -2180.98922664974
  Force two-norm initial, final = 202.39453 2.2049357
  Force max component initial, final = 116.93466 0.19923743
  Final line search alpha, max atom move = 5.0521412e-05 1.0065756e-05
  Iterations, force evaluations = 100 100

MPI task timing breakdown:
Section |  min time  |  avg time  |  max time  |%varavg| %total
---------------------------------------------------------------
Pair    | 0.1114     | 0.1114     | 0.1114     |   0.0 | 93.55
Neigh   | 0          | 0          | 0          |   0.0 |  0.00
Comm    | 0.000593   | 0.000593   | 0.000593   |   0.0 |  0.50
Output  | 0.001396   | 0.001396   | 0.001396   |   0.0 |  1.17
Modify  | 0          | 0          | 0          |   0.0 |  0.00
Other   |            | 0.005695   |            |       |  4.78

Nlocal:            500 ave         500 max         500 min
Histogram: 1 0 0 0 0 0 0 0 0 0
Nghost:           1956 ave        1956 max        1956 min
Histogram: 1 0 0 0 0 0 0 0 0 0
Neighs:          33500 ave       33500 max       33500 min
Histogram: 1 0 0 0 0 0 0 0 0 0

Total # of neighbors = 33500
Ave neighs/atom = 67
Neighbor list builds = 0
Dangerous builds = 0
Displacing atoms ...
System init for write_restart ...
OMP_NUM_THREADS environment is not set. Defaulting to 1 thread. (src/comm.cpp:98)
  using 1 OpenMP thread(s) per MPI task
Loaded 1 plugins from F:\Lammps\LAMMPS 64-bit 2Aug2023\plugins

The 'box' command has been removed and will be ignored

Reading restart file ...
  restart file = 2 Aug 2023, LAMMPS = 2 Aug 2023
  restoring atom style atomic from restart
  triclinic box = (0.052572393 0.05278536 0.052810237) to (17.737428 17.737215 17.73719) with tilt (0 0 0)
  1 by 1 by 1 MPI processor grid
  pair style eam/alloy stores no restart info
  500 atoms
  read_restart CPU = 0.000 seconds
Changing box ...
  triclinic box = (0.052572393 0.05278536 0.052810237) to (17.73741 17.737215 17.73719) with tilt (0 0 0)
  triclinic box = (0.052572393 0.05278536 0.052810237) to (17.73741 17.737215 17.73719) with tilt (0 0 0)
  triclinic box = (0.052572393 0.05278536 0.052810237) to (17.73741 17.737215 17.73719) with tilt (0 0 0)
Neighbor list info ...
  update: every = 1 steps, delay = 0 steps, check = yes
  max neighbors/atom: 2000, page size: 100000
  master list distance cutoff = 6.80375
  ghost atom cutoff = 6.80375
  1 neighbor lists, perpetual/occasional/extra = 1 0 0
  (1) pair eam/alloy, perpetual
      attributes: half, newton on
      pair build: half/nsq/newton
      stencil: none
      bin: none
Setting up cg style minimization ...
  Unit style    : metal
  Current step  : 100
Per MPI rank memory allocation (min/avg/max) = 4.482 | 4.482 | 4.482 Mbytes
   Step          Temp          PotEng         Press           Pxx            Pyy            Pzz            Pxy            Pxz            Pyz             Lx             Ly             Lz           Volume    
       100   0             -2180.9892      26.539634      32.543538      25.024471      22.050894      157.4235      -73.36128      -30.722417      17.684838      17.684429      17.68438       5530.7235    
       101   0             -2181.1662      875.87204      884.12327      865.95567      877.53718      110.02462     -62.584487      14.421541      17.684838      17.684429      17.68438       5530.7235    
       102   0             -2181.2441      1501.7651      1504.9709      1494.924       1505.4005      42.995544     -63.291544      40.39036       17.684838      17.684429      17.68438       5530.7235    
       103   0             -2181.2671      1388.4833      1383.8889      1382.56        1399.0009      12.641252     -81.761507      22.180537      17.684838      17.684429      17.68438       5530.7235    
       104   0             -2181.2724      1559.6374      1559.2101      1557.5582      1562.144       5.9241501     -80.921349      33.275342      17.684838      17.684429      17.68438       5530.7235    
       105   0             -2181.2741      1545.2113      1553.7203      1544.6922      1537.2214      6.3646193     -81.783436      36.031055      17.684838      17.684429      17.68438       5530.7235    
       106   0             -2181.2747      1500.9103      1511.8579      1502.1065      1488.7665      1.9211507     -84.829827      34.523037      17.684838      17.684429      17.68438       5530.7235    
       107   0             -2181.2748      1503.6155      1514.7416      1504.8043      1491.3006      1.0604398     -85.128776      34.638979      17.684838      17.684429      17.68438       5530.7235    
       108   0             -2181.2749      1506.5837      1516.7529      1508.5632      1494.4349      2.7831706     -83.814504      34.304228      17.684838      17.684429      17.68438       5530.7235    
       109   0             -2181.2749      1510.2618      1520.2507      1513.1237      1497.4111      0.81228239    -84.601403      34.071136      17.684838      17.684429      17.68438       5530.7235    
       110   0             -2181.275       1507.4631      1517.2554      1510.1675      1494.9666      1.6223485     -84.570871      33.739397      17.684838      17.684429      17.68438       5530.7235    
       111   0             -2181.275       1504.8566      1514.7214      1507.2944      1492.5539      2.697786      -84.269011      34.094769      17.684838      17.684429      17.68438       5530.7235    
       112   0             -2181.275       1507.1325      1517.1007      1509.3164      1494.9804      2.4202739     -84.554198      34.127996      17.684838      17.684429      17.68438       5530.7235    
       113   0             -2181.275       1508.166       1518.3245      1509.8804      1496.2932      1.8922377     -84.756873      34.132877      17.684838      17.684429      17.68438       5530.7235    
       114   0             -2181.275       1507.3309      1517.6973      1508.9402      1495.3552      1.7272973     -84.62666       34.147814      17.684838      17.684429      17.68438       5530.7235    
       115   0             -2181.275       1506.7817      1517.0686      1508.5074      1494.7692      1.8984296     -84.524822      34.023212      17.684838      17.684429      17.68438       5530.7235    
       116   0             -2181.275       1506.5684      1516.7832      1508.4361      1494.486       1.9789693     -84.538567      33.988297      17.684838      17.684429      17.68438       5530.7235    
       117   0             -2181.275       1506.8077      1517.0264      1508.7119      1494.6847      1.9349835     -84.54282       34.046476      17.684838      17.684429      17.68438       5530.7235    
       118   0             -2181.275       1506.8861      1517.0986      1508.8106      1494.7491      1.9230875     -84.564132      34.055808      17.684838      17.684429      17.68438       5530.7235    
       119   0             -2181.275       1506.7737      1516.9861      1508.7131      1494.6217      1.9240072     -84.583814      34.041913      17.684838      17.684429      17.68438       5530.7235    
       120   0             -2181.275       1506.7653      1516.9935      1508.6869      1494.6154      1.9520976     -84.569428      34.041193      17.684838      17.684429      17.68438       5530.7235    
       121   0             -2181.275       1506.8107      1517.045       1508.7279      1494.6593      1.9556819     -84.569694      34.061644      17.684838      17.684429      17.68438       5530.7235    
       122   0             -2181.275       1506.8339      1517.0716      1508.7514      1494.6787      1.9445256     -84.578587      34.057661      17.684838      17.684429      17.68438       5530.7235    
       123   0             -2181.275       1506.8235      1517.0594      1508.7403      1494.6708      1.947299      -84.570841      34.061041      17.684838      17.684429      17.68438       5530.7235    
       124   0             -2181.275       1506.7977      1517.035       1508.7126      1494.6454      1.9460548     -84.568261      34.061286      17.684838      17.684429      17.68438       5530.7235    
       125   0             -2181.275       1506.7949      1517.0318      1508.7103      1494.6426      1.9461574     -84.566413      34.057827      17.684838      17.684429      17.68438       5530.7235    
       126   0             -2181.275       1506.8004      1517.0371      1508.716       1494.6482      1.946773      -84.565145      34.059583      17.684838      17.684429      17.68438       5530.7235    
       127   0             -2181.275       1506.8024      1517.0395      1508.718       1494.6496      1.9477647     -84.566365      34.060425      17.684838      17.684429      17.68438       5530.7235    
       128   0             -2181.275       1506.8019      1517.039       1508.7181      1494.6487      1.9483639     -84.567451      34.060514      17.684838      17.684429      17.68438       5530.7235    
       129   0             -2181.275       1506.8008      1517.0376      1508.7177      1494.6472      1.9487217     -84.566959      34.059976      17.684838      17.684429      17.68438       5530.7235    
       130   0             -2181.275       1506.8016      1517.0382      1508.7188      1494.6479      1.9483102     -84.566924      34.059925      17.684838      17.684429      17.68438       5530.7235    
       131   0             -2181.275       1506.8017      1517.0386      1508.7189      1494.6475      1.9483817     -84.567195      34.059931      17.684838      17.684429      17.68438       5530.7235    
       132   0             -2181.275       1506.8019      1517.039       1508.7191      1494.6475      1.9483311     -84.567368      34.060001      17.684838      17.684429      17.68438       5530.7235    
       133   0             -2181.275       1506.8018      1517.0389      1508.7192      1494.6472      1.948359      -84.567297      34.060155      17.684838      17.684429      17.68438       5530.7235    
       134   0             -2181.275       1506.802       1517.0393      1508.7196      1494.6473      1.9482597     -84.567206      34.060169      17.684838      17.684429      17.68438       5530.7235    
       135   0             -2181.275       1506.8021      1517.0393      1508.7198      1494.6473      1.948149      -84.567199      34.060145      17.684838      17.684429      17.68438       5530.7235    
       136   0             -2181.275       1506.8021      1517.0393      1508.7198      1494.6473      1.9481523     -84.567176      34.060179      17.684838      17.684429      17.68438       5530.7235    
       137   0             -2181.275       1506.802       1517.0391      1508.7197      1494.6472      1.9481831     -84.567144      34.060175      17.684838      17.684429      17.68438       5530.7235    
       138   0             -2181.275       1506.802       1517.0391      1508.7197      1494.6472      1.9481845     -84.567149      34.060188      17.684838      17.684429      17.68438       5530.7235    
       139   0             -2181.275       1506.802       1517.0392      1508.7198      1494.6472      1.94819       -84.567157      34.060193      17.684838      17.684429      17.68438       5530.7235    
       140   0             -2181.275       1506.8021      1517.0392      1508.7198      1494.6472      1.948183      -84.56716       34.060192      17.684838      17.684429      17.68438       5530.7235    
       141   0             -2181.275       1506.802       1517.0392      1508.7198      1494.6472      1.9481838     -84.567158      34.060191      17.684838      17.684429      17.68438       5530.7235    
       142   0             -2181.275       1506.8021      1517.0392      1508.7198      1494.6472      1.9481847     -84.567159      34.060187      17.684838      17.684429      17.68438       5530.7235    
       143   0             -2181.275       1506.8021      1517.0392      1508.7198      1494.6472      1.9481859     -84.567161      34.060182      17.684838      17.684429      17.68438       5530.7235    
       144   0             -2181.275       1506.8021      1517.0392      1508.7198      1494.6472      1.9481864     -84.567161      34.060181      17.684838      17.684429      17.68438       5530.7235    
       145   0             -2181.275       1506.8021      1517.0392      1508.7198      1494.6472      1.9481884     -84.567159      34.060181      17.684838      17.684429      17.68438       5530.7235    
       146   0             -2181.275       1506.8021      1517.0392      1508.7198      1494.6472      1.9481888     -84.567161      34.060181      17.684838      17.684429      17.68438       5530.7235    
       147   0             -2181.275       1506.8021      1517.0392      1508.7198      1494.6472      1.9481873     -84.56716       34.060182      17.684838      17.684429      17.68438       5530.7235    
       148   0             -2181.275       1506.8021      1517.0392      1508.7198      1494.6472      1.9481875     -84.56716       34.060182      17.684838      17.684429      17.68438       5530.7235    
       149   0             -2181.275       1506.8021      1517.0392      1508.7198      1494.6472      1.9481881     -84.56716       34.060182      17.684838      17.684429      17.68438       5530.7235    
       150   0             -2181.275       1506.8021      1517.0392      1508.7198      1494.6472      1.9481884     -84.56716       34.060182      17.684838      17.684429      17.68438       5530.7235    
       151   0             -2181.275       1506.8021      1517.0392      1508.7198      1494.6472      1.9481884     -84.56716       34.060182      17.684838      17.684429      17.68438       5530.7235    
       152   0             -2181.275       1506.8021      1517.0392      1508.7198      1494.6472      1.9481882     -84.56716       34.060182      17.684838      17.684429      17.68438       5530.7235    
       153   0             -2181.275       1506.8021      1517.0392      1508.7198      1494.6472      1.9481881     -84.56716       34.060182      17.684838      17.684429      17.68438       5530.7235    
       154   0             -2181.275       1506.8021      1517.0392      1508.7198      1494.6472      1.9481882     -84.56716       34.060182      17.684838      17.684429      17.68438       5530.7235    
       155   0             -2181.275       1506.8021      1517.0392      1508.7198      1494.6472      1.9481882     -84.56716       34.060182      17.684838      17.684429      17.68438       5530.7235    
       156   0             -2181.275       1506.8021      1517.0392      1508.7198      1494.6472      1.9481882     -84.56716       34.060182      17.684838      17.684429      17.68438       5530.7235    
       157   0             -2181.275       1506.8021      1517.0392      1508.7198      1494.6472      1.9481882     -84.56716       34.060182      17.684838      17.684429      17.68438       5530.7235    
       158   0             -2181.275       1506.8021      1517.0392      1508.7198      1494.6472      1.9481882     -84.56716       34.060182      17.684838      17.684429      17.68438       5530.7235    
       159   0             -2181.275       1506.8021      1517.0392      1508.7198      1494.6472      1.9481881     -84.56716       34.060182      17.684838      17.684429      17.68438       5530.7235    
       160   0             -2181.275       1506.8021      1517.0392      1508.7198      1494.6472      1.9481881     -84.56716       34.060182      17.684838      17.684429      17.68438       5530.7235    
       161   0             -2181.275       1506.8021      1517.0392      1508.7198      1494.6472      1.9481881     -84.56716       34.060182      17.684838      17.684429      17.68438       5530.7235    
       162   0             -2181.275       1506.8021      1517.0392      1508.7198      1494.6472      1.9481881     -84.56716       34.060182      17.684838      17.684429      17.68438       5530.7235    
Loop time of 0.153077 on 1 procs for 62 steps with 500 atoms

102.1% CPU use with 1 MPI tasks x 1 OpenMP threads

Minimization stats:
  Stopping criterion = force tolerance
  Energy initial, next-to-last, final = 
     -2180.98923711514  -2181.27500091727  -2181.27500091727
  Force two-norm initial, final = 2.1997343 7.9871952e-11
  Force max component initial, final = 0.19919712 9.493936e-12
  Final line search alpha, max atom move = 1 9.493936e-12
  Iterations, force evaluations = 62 121

MPI task timing breakdown:
Section |  min time  |  avg time  |  max time  |%varavg| %total
---------------------------------------------------------------
Pair    | 0.15026    | 0.15026    | 0.15026    |   0.0 | 98.16
Neigh   | 0          | 0          | 0          |   0.0 |  0.00
Comm    | 0.000783   | 0.000783   | 0.000783   |   0.0 |  0.51
Output  | 0.001015   | 0.001015   | 0.001015   |   0.0 |  0.66
Modify  | 0          | 0          | 0          |   0.0 |  0.00
Other   |            | 0.001021   |            |       |  0.67

Nlocal:            500 ave         500 max         500 min
Histogram: 1 0 0 0 0 0 0 0 0 0
Nghost:           1956 ave        1956 max        1956 min
Histogram: 1 0 0 0 0 0 0 0 0 0
Neighs:          33500 ave       33500 max       33500 min
Histogram: 1 0 0 0 0 0 0 0 0 0

Total # of neighbors = 33500
Ave neighs/atom = 67
Neighbor list builds = 0
Dangerous builds = 0
OMP_NUM_THREADS environment is not set. Defaulting to 1 thread. (src/comm.cpp:98)
  using 1 OpenMP thread(s) per MPI task
Loaded 1 plugins from F:\Lammps\LAMMPS 64-bit 2Aug2023\plugins

The 'box' command has been removed and will be ignored

Reading restart file ...
  restart file = 2 Aug 2023, LAMMPS = 2 Aug 2023
  restoring atom style atomic from restart
  triclinic box = (0.052572393 0.05278536 0.052810237) to (17.737428 17.737215 17.73719) with tilt (0 0 0)
  1 by 1 by 1 MPI processor grid
  pair style eam/alloy stores no restart info
  500 atoms
  read_restart CPU = 0.000 seconds
Changing box ...
  triclinic box = (0.052572393 0.05278536 0.052810237) to (17.737445 17.737215 17.73719) with tilt (0 0 0)
  triclinic box = (0.052572393 0.05278536 0.052810237) to (17.737445 17.737215 17.73719) with tilt (0 0 0)
  triclinic box = (0.052572393 0.05278536 0.052810237) to (17.737445 17.737215 17.73719) with tilt (0 0 0)
Neighbor list info ...
  update: every = 1 steps, delay = 0 steps, check = yes
  max neighbors/atom: 2000, page size: 100000
  master list distance cutoff = 6.80375
  ghost atom cutoff = 6.80375
  1 neighbor lists, perpetual/occasional/extra = 1 0 0
  (1) pair eam/alloy, perpetual
      attributes: half, newton on
      pair build: half/nsq/newton
      stencil: none
      bin: none
Setting up cg style minimization ...
  Unit style    : metal
  Current step  : 100
Per MPI rank memory allocation (min/avg/max) = 4.482 | 4.482 | 4.482 Mbytes
   Step          Temp          PotEng         Press           Pxx            Pyy            Pzz            Pxy            Pxz            Pyz             Lx             Ly             Lz           Volume    
       100   0             -2180.9892      22.80448       27.584686      21.902939      18.925815      157.43022     -73.362368     -30.726593      17.684873      17.684429      17.68438       5530.7346    
       101   0             -2181.1662      872.14627      879.17803      862.83996      874.42081      110.0329      -62.586906      14.41815       17.684873      17.684429      17.68438       5530.7346    
       102   0             -2181.2441      1498.0635      1500.049       1491.8312      1502.3102      43.0028       -63.295153      40.389933      17.684873      17.684429      17.68438       5530.7346    
       103   0             -2181.2671      1384.8193      1379.0089      1379.5039      1395.9449      12.64317      -81.764544      22.181813      17.684873      17.684429      17.68438       5530.7346    
       104   0             -2181.2724      1555.982       1554.3366      1554.5112      1559.0983      5.9251896     -80.925767      33.278098      17.684873      17.684429      17.68438       5530.7346    
       105   0             -2181.2741      1541.5114      1548.8035      1541.6012      1534.1295      6.3691342     -81.787981      36.03202       17.684873      17.684429      17.68438       5530.7346    
       106   0             -2181.2747      1497.2252      1506.9558      1499.0293      1485.6905      1.9231982     -84.835761      34.52347       17.684873      17.684429      17.68438       5530.7346    
       107   0             -2181.2748      1499.9386      1509.848       1501.7353      1488.2325      1.0620653     -85.13448       34.639615      17.684873      17.684429      17.68438       5530.7346    
       108   0             -2181.2749      1502.9057      1511.8589      1505.493       1491.365       2.784482      -83.82004       34.305343      17.684873      17.684429      17.68438       5530.7346    
       109   0             -2181.275       1506.5816      1515.3549      1510.0512      1494.3387      0.81403421    -84.606974      34.071996      17.684873      17.684429      17.68438       5530.7346    
       110   0             -2181.275       1503.7796      1512.3564      1507.0914      1491.891       1.625153      -84.57597       33.740265      17.684873      17.684429      17.68438       5530.7346    
       111   0             -2181.275       1501.1767      1509.8266      1504.2218      1489.4818      2.6999404     -84.27427       34.095729      17.684873      17.684429      17.68438       5530.7346    
       112   0             -2181.275       1503.454       1512.2074      1506.245       1491.9095      2.4221421     -84.55955       34.128878      17.684873      17.684429      17.68438       5530.7346    
       113   0             -2181.275       1504.4867      1513.4307      1506.8082      1493.2212      1.8941766     -84.762247      34.133851      17.684873      17.684429      17.68438       5530.7346    
       114   0             -2181.275       1503.6513      1512.8033      1505.8677      1492.2828      1.7293563     -84.632024      34.148754      17.684873      17.684429      17.68438       5530.7346    
       115   0             -2181.275       1503.102       1512.1746      1505.4349      1491.6967      1.900493      -84.530203      34.024162      17.684873      17.684429      17.68438       5530.7346    
       116   0             -2181.275       1502.889       1511.8894      1505.3638      1491.4137      1.980954      -84.543953      33.989257      17.684873      17.684429      17.68438       5530.7346    
       117   0             -2181.275       1503.1283      1512.1327      1505.6396      1491.6125      1.9369544     -84.548184      34.047432      17.684873      17.684429      17.68438       5530.7346    
       118   0             -2181.275       1503.2065      1512.2047      1505.7381      1491.6767      1.9250956     -84.569493      34.056763      17.684873      17.684429      17.68438       5530.7346    
       119   0             -2181.275       1503.0941      1512.0923      1505.6406      1491.5493      1.9260155     -84.58918       34.042863      17.684873      17.684429      17.68438       5530.7346    
       120   0             -2181.275       1503.0858      1512.0997      1505.6146      1491.5431      1.9541062     -84.57479       34.042151      17.684873      17.684429      17.68438       5530.7346    
       121   0             -2181.275       1503.1312      1512.1513      1505.6555      1491.5869      1.9576791     -84.575057      34.062601      17.684873      17.684429      17.68438       5530.7346    
       122   0             -2181.275       1503.1544      1512.1778      1505.6791      1491.6064      1.9465181     -84.583952      34.058615      17.684873      17.684429      17.68438       5530.7346    
       123   0             -2181.275       1503.144       1512.1656      1505.6679      1491.5984      1.9492972     -84.576204      34.061996      17.684873      17.684429      17.68438       5530.7346    
       124   0             -2181.275       1503.1182      1512.1413      1505.6402      1491.573       1.948051      -84.573623      34.06224       17.684873      17.684429      17.68438       5530.7346    
       125   0             -2181.275       1503.1154      1512.1381      1505.6379      1491.5703      1.9481525     -84.571776      34.058781      17.684873      17.684429      17.68438       5530.7346    
       126   0             -2181.275       1503.1209      1512.1433      1505.6436      1491.5759      1.9487681     -84.570508      34.060538      17.684873      17.684429      17.68438       5530.7346    
       127   0             -2181.275       1503.1229      1512.1458      1505.6457      1491.5773      1.9497603     -84.571728      34.06138       17.684873      17.684429      17.68438       5530.7346    
       128   0             -2181.275       1503.1224      1512.1452      1505.6457      1491.5763      1.9503598     -84.572814      34.061469      17.684873      17.684429      17.68438       5530.7346    
       129   0             -2181.275       1503.1213      1512.1438      1505.6453      1491.5748      1.9507172     -84.572322      34.06093       17.684873      17.684429      17.68438       5530.7346    
       130   0             -2181.275       1503.1221      1512.1444      1505.6464      1491.5755      1.9503056     -84.572287      34.06088       17.684873      17.684429      17.68438       5530.7346    
       131   0             -2181.275       1503.1222      1512.1448      1505.6465      1491.5752      1.9503774     -84.572558      34.060886      17.684873      17.684429      17.68438       5530.7346    
       132   0             -2181.275       1503.1224      1512.1453      1505.6468      1491.5752      1.9503267     -84.572731      34.060956      17.684873      17.684429      17.68438       5530.7346    
       133   0             -2181.275       1503.1223      1512.1451      1505.6468      1491.5749      1.9503547     -84.57266       34.061109      17.684873      17.684429      17.68438       5530.7346    
       134   0             -2181.275       1503.1225      1512.1455      1505.6472      1491.5749      1.9502553     -84.572569      34.061124      17.684873      17.684429      17.68438       5530.7346    
       135   0             -2181.275       1503.1226      1512.1455      1505.6474      1491.5749      1.9501446     -84.572562      34.0611        17.684873      17.684429      17.68438       5530.7346    
       136   0             -2181.275       1503.1226      1512.1455      1505.6474      1491.5749      1.950148      -84.572539      34.061133      17.684873      17.684429      17.68438       5530.7346    
       137   0             -2181.275       1503.1225      1512.1453      1505.6474      1491.5748      1.9501787     -84.572507      34.061129      17.684873      17.684429      17.68438       5530.7346    
       138   0             -2181.275       1503.1225      1512.1454      1505.6474      1491.5748      1.9501801     -84.572511      34.061142      17.684873      17.684429      17.68438       5530.7346    
       139   0             -2181.275       1503.1225      1512.1454      1505.6474      1491.5748      1.9501856     -84.57252       34.061148      17.684873      17.684429      17.68438       5530.7346    
       140   0             -2181.275       1503.1226      1512.1454      1505.6474      1491.5748      1.9501786     -84.572523      34.061147      17.684873      17.684429      17.68438       5530.7346    
       141   0             -2181.275       1503.1225      1512.1454      1505.6474      1491.5748      1.9501794     -84.57252       34.061146      17.684873      17.684429      17.68438       5530.7346    
       142   0             -2181.275       1503.1226      1512.1454      1505.6474      1491.5748      1.9501803     -84.572521      34.061142      17.684873      17.684429      17.68438       5530.7346    
       143   0             -2181.275       1503.1226      1512.1454      1505.6474      1491.5748      1.9501816     -84.572524      34.061137      17.684873      17.684429      17.68438       5530.7346    
       144   0             -2181.275       1503.1226      1512.1454      1505.6474      1491.5748      1.950182      -84.572524      34.061136      17.684873      17.684429      17.68438       5530.7346    
       145   0             -2181.275       1503.1226      1512.1454      1505.6474      1491.5748      1.950184      -84.572522      34.061135      17.684873      17.684429      17.68438       5530.7346    
       146   0             -2181.275       1503.1226      1512.1454      1505.6474      1491.5748      1.9501844     -84.572524      34.061135      17.684873      17.684429      17.68438       5530.7346    
       147   0             -2181.275       1503.1226      1512.1454      1505.6474      1491.5748      1.950183      -84.572523      34.061136      17.684873      17.684429      17.68438       5530.7346    
       148   0             -2181.275       1503.1226      1512.1454      1505.6474      1491.5748      1.9501831     -84.572523      34.061136      17.684873      17.684429      17.68438       5530.7346    
       149   0             -2181.275       1503.1226      1512.1454      1505.6474      1491.5748      1.9501837     -84.572523      34.061136      17.684873      17.684429      17.68438       5530.7346    
       150   0             -2181.275       1503.1226      1512.1454      1505.6474      1491.5748      1.9501841     -84.572523      34.061136      17.684873      17.684429      17.68438       5530.7346    
       151   0             -2181.275       1503.1226      1512.1454      1505.6474      1491.5748      1.950184      -84.572523      34.061136      17.684873      17.684429      17.68438       5530.7346    
       152   0             -2181.275       1503.1226      1512.1454      1505.6474      1491.5748      1.9501839     -84.572523      34.061136      17.684873      17.684429      17.68438       5530.7346    
       153   0             -2181.275       1503.1226      1512.1454      1505.6474      1491.5748      1.9501837     -84.572523      34.061136      17.684873      17.684429      17.68438       5530.7346    
       154   0             -2181.275       1503.1226      1512.1454      1505.6474      1491.5748      1.9501838     -84.572523      34.061136      17.684873      17.684429      17.68438       5530.7346    
       155   0             -2181.275       1503.1226      1512.1454      1505.6474      1491.5748      1.9501838     -84.572523      34.061137      17.684873      17.684429      17.68438       5530.7346    
       156   0             -2181.275       1503.1226      1512.1454      1505.6474      1491.5748      1.9501838     -84.572523      34.061136      17.684873      17.684429      17.68438       5530.7346    
       157   0             -2181.275       1503.1226      1512.1454      1505.6474      1491.5748      1.9501838     -84.572523      34.061137      17.684873      17.684429      17.68438       5530.7346    
       158   0             -2181.275       1503.1226      1512.1454      1505.6474      1491.5748      1.9501838     -84.572523      34.061137      17.684873      17.684429      17.68438       5530.7346    
       159   0             -2181.275       1503.1226      1512.1454      1505.6474      1491.5748      1.9501838     -84.572523      34.061137      17.684873      17.684429      17.68438       5530.7346    
       160   0             -2181.275       1503.1226      1512.1454      1505.6474      1491.5748      1.9501838     -84.572523      34.061137      17.684873      17.684429      17.68438       5530.7346    
       161   0             -2181.275       1503.1226      1512.1454      1505.6474      1491.5748      1.9501838     -84.572523      34.061137      17.684873      17.684429      17.68438       5530.7346    
       162   0             -2181.275       1503.1226      1512.1454      1505.6474      1491.5748      1.9501838     -84.572523      34.061137      17.684873      17.684429      17.68438       5530.7346    
Loop time of 0.148349 on 1 procs for 62 steps with 500 atoms

94.8% CPU use with 1 MPI tasks x 1 OpenMP threads

Minimization stats:
  Stopping criterion = force tolerance
  Energy initial, next-to-last, final = 
     -2180.98923732271  -2181.27501137405  -2181.27501137406
  Force two-norm initial, final = 2.1997837 7.9906566e-11
  Force max component initial, final = 0.19920321 9.5054988e-12
  Final line search alpha, max atom move = 1 9.5054988e-12
  Iterations, force evaluations = 62 121

MPI task timing breakdown:
Section |  min time  |  avg time  |  max time  |%varavg| %total
---------------------------------------------------------------
Pair    | 0.14565    | 0.14565    | 0.14565    |   0.0 | 98.18
Neigh   | 0          | 0          | 0          |   0.0 |  0.00
Comm    | 0.000717   | 0.000717   | 0.000717   |   0.0 |  0.48
Output  | 0.000936   | 0.000936   | 0.000936   |   0.0 |  0.63
Modify  | 0          | 0          | 0          |   0.0 |  0.00
Other   |            | 0.001045   |            |       |  0.70

Nlocal:            500 ave         500 max         500 min
Histogram: 1 0 0 0 0 0 0 0 0 0
Nghost:           1956 ave        1956 max        1956 min
Histogram: 1 0 0 0 0 0 0 0 0 0
Neighs:          33500 ave       33500 max       33500 min
Histogram: 1 0 0 0 0 0 0 0 0 0

Total # of neighbors = 33500
Ave neighs/atom = 67
Neighbor list builds = 0
Dangerous builds = 0
OMP_NUM_THREADS environment is not set. Defaulting to 1 thread. (src/comm.cpp:98)
  using 1 OpenMP thread(s) per MPI task
Loaded 1 plugins from F:\Lammps\LAMMPS 64-bit 2Aug2023\plugins

The 'box' command has been removed and will be ignored

Reading restart file ...
  restart file = 2 Aug 2023, LAMMPS = 2 Aug 2023
  restoring atom style atomic from restart
  triclinic box = (0.052572393 0.05278536 0.052810237) to (17.737428 17.737215 17.73719) with tilt (0 0 0)
  1 by 1 by 1 MPI processor grid
  pair style eam/alloy stores no restart info
  500 atoms
  read_restart CPU = 0.000 seconds
Changing box ...
  triclinic box = (0.052572393 0.05278536 0.052810237) to (17.737428 17.737197 17.73719) with tilt (0 0 0)
  triclinic box = (0.052572393 0.05278536 0.052810237) to (17.737428 17.737197 17.73719) with tilt (0 0 0)
Neighbor list info ...
  update: every = 1 steps, delay = 0 steps, check = yes
  max neighbors/atom: 2000, page size: 100000
  master list distance cutoff = 6.80375
  ghost atom cutoff = 6.80375
  1 neighbor lists, perpetual/occasional/extra = 1 0 0
  (1) pair eam/alloy, perpetual
      attributes: half, newton on
      pair build: half/nsq/newton
      stencil: none
      bin: none
Setting up cg style minimization ...
  Unit style    : metal
  Current step  : 100
Per MPI rank memory allocation (min/avg/max) = 4.482 | 4.482 | 4.482 Mbytes
   Step          Temp          PotEng         Press           Pxx            Pyy            Pzz            Pxy            Pxz            Pyz             Lx             Ly             Lz           Volume    
       100   0             -2180.9892      26.53895       31.624886      25.941509      22.050455      157.42383     -73.361116     -30.720669      17.684855      17.684412      17.68438       5530.7235    
       101   0             -2181.1662      875.86823      883.20495      866.86676      877.53298      110.02532     -62.584286      14.423499      17.684855      17.684412      17.68438       5530.7235    
       102   0             -2181.2441      1501.7657      1504.0557      1495.8415      1505.4         42.99593      -63.291226      40.393145      17.684855      17.684412      17.68438       5530.7235    
       103   0             -2181.2671      1388.4817      1382.9748      1383.4731      1398.9973      12.640862     -81.760354      22.182778      17.684855      17.684412      17.68438       5530.7235    
       104   0             -2181.2724      1559.6388      1558.2968      1558.4761      1562.1435      5.9232682     -80.921254      33.278171      17.684855      17.684412      17.68438       5530.7235    
       105   0             -2181.2741      1545.2103      1552.8055      1545.6073      1537.2182      6.3643996     -81.78304       36.033773      17.684855      17.684412      17.68438       5530.7235    
       106   0             -2181.2747      1500.9115      1510.9458      1503.0232      1488.7654      1.9209198     -84.829602      34.525746      17.684855      17.684412      17.68438       5530.7235    
       107   0             -2181.2748      1503.6162      1513.8291      1505.7205      1491.2991      1.0601352     -85.128639      34.641653      17.684855      17.684412      17.68438       5530.7235    
       108   0             -2181.2749      1506.5845      1515.8407      1509.4792      1494.4335      2.7828569     -83.814316      34.306911      17.684855      17.684412      17.68438       5530.7235    
       109   0             -2181.2749      1510.2635      1519.3395      1514.0405      1497.4105      0.81196971    -84.60114       34.073913      17.684855      17.684412      17.68438       5530.7235    
       110   0             -2181.275       1507.4645      1516.3441      1511.0838      1494.9657      1.6220318     -84.570648      33.742231      17.684855      17.684412      17.68438       5530.7235    
       111   0             -2181.275       1504.8577      1513.8102      1508.2102      1492.5527      2.6974059     -84.268824      34.097574      17.684855      17.684412      17.68438       5530.7235    
       112   0             -2181.275       1507.1338      1516.1898      1510.2323      1494.9793      2.4199211     -84.553992      34.130781      17.684855      17.684412      17.68438       5530.7235    
       113   0             -2181.275       1508.1673      1517.4137      1510.7963      1496.2921      1.8919037     -84.756669      34.135678      17.684855      17.684412      17.68438       5530.7235    
       114   0             -2181.275       1507.3323      1516.7865      1509.8562      1495.3541      1.7269521     -84.626463      34.150596      17.684855      17.684412      17.68438       5530.7235    
       115   0             -2181.275       1506.7831      1516.1579      1509.4234      1494.768       1.8980998     -84.524618      34.025985      17.684855      17.684412      17.68438       5530.7235    
       116   0             -2181.275       1506.5698      1515.8725      1509.352       1494.4849      1.9786407     -84.538357      33.991078      17.684855      17.684412      17.68438       5530.7235    
       117   0             -2181.275       1506.8091      1516.1157      1509.6279      1494.6837      1.9346491     -84.54261       34.049259      17.684855      17.684412      17.68438       5530.7235    
       118   0             -2181.275       1506.8875      1516.1879      1509.7266      1494.748       1.9227513     -84.563921      34.058588      17.684855      17.684412      17.68438       5530.7235    
       119   0             -2181.275       1506.775       1516.0754      1509.6291      1494.6206      1.9236729     -84.583599      34.044692      17.684855      17.684412      17.68438       5530.7235    
       120   0             -2181.275       1506.7667      1516.0828      1509.6029      1494.6143      1.9517635     -84.569213      34.043969      17.684855      17.684412      17.68438       5530.7235    
       121   0             -2181.275       1506.8121      1516.1343      1509.6438      1494.6582      1.955346      -84.569479      34.064418      17.684855      17.684412      17.68438       5530.7235    
       122   0             -2181.275       1506.8353      1516.1609      1509.6674      1494.6776      1.9441903     -84.578371      34.060436      17.684855      17.684412      17.68438       5530.7235    
       123   0             -2181.275       1506.8249      1516.1487      1509.6563      1494.6697      1.9469642     -84.570626      34.063816      17.684855      17.684412      17.68438       5530.7235    
       124   0             -2181.275       1506.7991      1516.1243      1509.6286      1494.6443      1.9457195     -84.568046      34.06406       17.684855      17.684412      17.68438       5530.7235    
       125   0             -2181.275       1506.7963      1516.1211      1509.6262      1494.6415      1.9458225     -84.566199      34.060602      17.684855      17.684412      17.68438       5530.7235    
       126   0             -2181.275       1506.8018      1516.1264      1509.632       1494.6471      1.9464379     -84.56493       34.062358      17.684855      17.684412      17.68438       5530.7235    
       127   0             -2181.275       1506.8038      1516.1288      1509.634       1494.6485      1.9474297     -84.566151      34.0632        17.684855      17.684412      17.68438       5530.7235    
       128   0             -2181.275       1506.8033      1516.1283      1509.6341      1494.6476      1.9480289     -84.567237      34.063289      17.684855      17.684412      17.68438       5530.7235    
       129   0             -2181.275       1506.8022      1516.1269      1509.6337      1494.6461      1.9483868     -84.566744      34.06275       17.684855      17.684412      17.68438       5530.7235    
       130   0             -2181.275       1506.803       1516.1275      1509.6348      1494.6468      1.9479752     -84.566709      34.0627        17.684855      17.684412      17.68438       5530.7235    
       131   0             -2181.275       1506.8031      1516.1279      1509.6349      1494.6464      1.9480467     -84.566981      34.062706      17.684855      17.684412      17.68438       5530.7235    
       132   0             -2181.275       1506.8033      1516.1283      1509.6351      1494.6464      1.9479961     -84.567153      34.062776      17.684855      17.684412      17.68438       5530.7235    
       133   0             -2181.275       1506.8032      1516.1282      1509.6352      1494.6461      1.948024      -84.567083      34.06293       17.684855      17.684412      17.68438       5530.7235    
       134   0             -2181.275       1506.8034      1516.1286      1509.6356      1494.6462      1.9479247     -84.566991      34.062944      17.684855      17.684412      17.68438       5530.7235    
       135   0             -2181.275       1506.8035      1516.1286      1509.6358      1494.6462      1.947814      -84.566985      34.06292       17.684855      17.684412      17.68438       5530.7235    
       136   0             -2181.275       1506.8035      1516.1286      1509.6358      1494.6462      1.9478173     -84.566962      34.062953      17.684855      17.684412      17.68438       5530.7235    
       137   0             -2181.275       1506.8034      1516.1284      1509.6357      1494.6461      1.9478481     -84.56693       34.06295       17.684855      17.684412      17.68438       5530.7235    
       138   0             -2181.275       1506.8034      1516.1285      1509.6357      1494.6461      1.9478495     -84.566934      34.062962      17.684855      17.684412      17.68438       5530.7235    
       139   0             -2181.275       1506.8034      1516.1285      1509.6358      1494.6461      1.9478549     -84.566942      34.062968      17.684855      17.684412      17.68438       5530.7235    
       140   0             -2181.275       1506.8034      1516.1285      1509.6358      1494.6461      1.947848      -84.566945      34.062967      17.684855      17.684412      17.68438       5530.7235    
       141   0             -2181.275       1506.8034      1516.1285      1509.6358      1494.6461      1.9478488     -84.566943      34.062966      17.684855      17.684412      17.68438       5530.7235    
       142   0             -2181.275       1506.8034      1516.1285      1509.6358      1494.6461      1.9478497     -84.566944      34.062962      17.684855      17.684412      17.68438       5530.7235    
       143   0             -2181.275       1506.8035      1516.1285      1509.6358      1494.6461      1.9478509     -84.566946      34.062957      17.684855      17.684412      17.68438       5530.7235    
       144   0             -2181.275       1506.8035      1516.1285      1509.6358      1494.6461      1.9478514     -84.566946      34.062956      17.684855      17.684412      17.68438       5530.7235    
       145   0             -2181.275       1506.8035      1516.1285      1509.6358      1494.6461      1.9478534     -84.566945      34.062955      17.684855      17.684412      17.68438       5530.7235    
       146   0             -2181.275       1506.8034      1516.1285      1509.6358      1494.6461      1.9478538     -84.566946      34.062956      17.684855      17.684412      17.68438       5530.7235    
       147   0             -2181.275       1506.8034      1516.1285      1509.6358      1494.6461      1.9478523     -84.566945      34.062956      17.684855      17.684412      17.68438       5530.7235    
       148   0             -2181.275       1506.8034      1516.1285      1509.6358      1494.6461      1.9478525     -84.566945      34.062956      17.684855      17.684412      17.68438       5530.7235    
       149   0             -2181.275       1506.8034      1516.1285      1509.6358      1494.6461      1.9478531     -84.566945      34.062957      17.684855      17.684412      17.68438       5530.7235    
       150   0             -2181.275       1506.8034      1516.1285      1509.6358      1494.6461      1.9478534     -84.566945      34.062957      17.684855      17.684412      17.68438       5530.7235    
       151   0             -2181.275       1506.8034      1516.1285      1509.6358      1494.6461      1.9478534     -84.566945      34.062957      17.684855      17.684412      17.68438       5530.7235    
       152   0             -2181.275       1506.8034      1516.1285      1509.6358      1494.6461      1.9478532     -84.566945      34.062957      17.684855      17.684412      17.68438       5530.7235    
       153   0             -2181.275       1506.8034      1516.1285      1509.6358      1494.6461      1.9478531     -84.566945      34.062957      17.684855      17.684412      17.68438       5530.7235    
       154   0             -2181.275       1506.8034      1516.1285      1509.6358      1494.6461      1.9478532     -84.566945      34.062957      17.684855      17.684412      17.68438       5530.7235    
       155   0             -2181.275       1506.8034      1516.1285      1509.6358      1494.6461      1.9478531     -84.566945      34.062957      17.684855      17.684412      17.68438       5530.7235    
       156   0             -2181.275       1506.8034      1516.1285      1509.6358      1494.6461      1.9478532     -84.566945      34.062957      17.684855      17.684412      17.68438       5530.7235    
       157   0             -2181.275       1506.8034      1516.1285      1509.6358      1494.6461      1.9478532     -84.566945      34.062957      17.684855      17.684412      17.68438       5530.7235    
       158   0             -2181.275       1506.8034      1516.1285      1509.6358      1494.6461      1.9478532     -84.566945      34.062957      17.684855      17.684412      17.68438       5530.7235    
       159   0             -2181.275       1506.8034      1516.1285      1509.6358      1494.6461      1.9478531     -84.566945      34.062957      17.684855      17.684412      17.68438       5530.7235    
       160   0             -2181.275       1506.8034      1516.1285      1509.6358      1494.6461      1.9478531     -84.566945      34.062957      17.684855      17.684412      17.68438       5530.7235    
       161   0             -2181.275       1506.8034      1516.1285      1509.6358      1494.6461      1.9478531     -84.566945      34.062957      17.684855      17.684412      17.68438       5530.7235    
       162   0             -2181.275       1506.8034      1516.1285      1509.6358      1494.6461      1.9478531     -84.566945      34.062957      17.684855      17.684412      17.68438       5530.7235    
Loop time of 0.145235 on 1 procs for 62 steps with 500 atoms

96.8% CPU use with 1 MPI tasks x 1 OpenMP threads

Minimization stats:
  Stopping criterion = force tolerance
  Energy initial, next-to-last, final = 
     -2180.98923713794  -2181.27500094286  -2181.27500094285
  Force two-norm initial, final = 2.1997348 7.9884394e-11
  Force max component initial, final = 0.19919797 9.5225165e-12
  Final line search alpha, max atom move = 1 9.5225165e-12
  Iterations, force evaluations = 62 121

MPI task timing breakdown:
Section |  min time  |  avg time  |  max time  |%varavg| %total
---------------------------------------------------------------
Pair    | 0.14246    | 0.14246    | 0.14246    |   0.0 | 98.09
Neigh   | 0          | 0          | 0          |   0.0 |  0.00
Comm    | 0.000726   | 0.000726   | 0.000726   |   0.0 |  0.50
Output  | 0.000988   | 0.000988   | 0.000988   |   0.0 |  0.68
Modify  | 0          | 0          | 0          |   0.0 |  0.00
Other   |            | 0.00106    |            |       |  0.73

Nlocal:            500 ave         500 max         500 min
Histogram: 1 0 0 0 0 0 0 0 0 0
Nghost:           1956 ave        1956 max        1956 min
Histogram: 1 0 0 0 0 0 0 0 0 0
Neighs:          33500 ave       33500 max       33500 min
Histogram: 1 0 0 0 0 0 0 0 0 0

Total # of neighbors = 33500
Ave neighs/atom = 67
Neighbor list builds = 0
Dangerous builds = 0
OMP_NUM_THREADS environment is not set. Defaulting to 1 thread. (src/comm.cpp:98)
  using 1 OpenMP thread(s) per MPI task
Loaded 1 plugins from F:\Lammps\LAMMPS 64-bit 2Aug2023\plugins

The 'box' command has been removed and will be ignored

Reading restart file ...
  restart file = 2 Aug 2023, LAMMPS = 2 Aug 2023
  restoring atom style atomic from restart
  triclinic box = (0.052572393 0.05278536 0.052810237) to (17.737428 17.737215 17.73719) with tilt (0 0 0)
  1 by 1 by 1 MPI processor grid
  pair style eam/alloy stores no restart info
  500 atoms
  read_restart CPU = 0.000 seconds
Changing box ...
  triclinic box = (0.052572393 0.05278536 0.052810237) to (17.737428 17.737232 17.73719) with tilt (0 0 0)
  triclinic box = (0.052572393 0.05278536 0.052810237) to (17.737428 17.737232 17.73719) with tilt (0 0 0)
Neighbor list info ...
  update: every = 1 steps, delay = 0 steps, check = yes
  max neighbors/atom: 2000, page size: 100000
  master list distance cutoff = 6.80375
  ghost atom cutoff = 6.80375
  1 neighbor lists, perpetual/occasional/extra = 1 0 0
  (1) pair eam/alloy, perpetual
      attributes: half, newton on
      pair build: half/nsq/newton
      stencil: none
      bin: none
Setting up cg style minimization ...
  Unit style    : metal
  Current step  : 100
Per MPI rank memory allocation (min/avg/max) = 4.482 | 4.482 | 4.482 Mbytes
   Step          Temp          PotEng         Press           Pxx            Pyy            Pzz            Pxy            Pxz            Pyz             Lx             Ly             Lz           Volume    
       100   0             -2180.9892      22.805163      28.50334       20.985896      18.926254      157.42988     -73.362532     -30.728341      17.684855      17.684447      17.68438       5530.7346    
       101   0             -2181.1662      872.15008      880.09636      861.92887      874.42501      110.03219     -62.587108      14.416193      17.684855      17.684447      17.68438       5530.7346    
       102   0             -2181.2441      1498.0629      1500.9642      1490.9137      1502.3107      43.002414     -63.295471      40.387149      17.684855      17.684447      17.68438       5530.7346    
       103   0             -2181.2671      1384.8208      1379.9231      1378.5908      1395.9486      12.64356      -81.765697      22.179573      17.684855      17.684447      17.68438       5530.7346    
       104   0             -2181.2724      1555.9807      1555.2499      1553.5933      1559.0988      5.9260716     -80.925863      33.275269      17.684855      17.684447      17.68438       5530.7346    
       105   0             -2181.2741      1541.5124      1549.7183      1540.6861      1534.1328      6.3693536     -81.788374      36.029302      17.684855      17.684447      17.68438       5530.7346    
       106   0             -2181.2747      1497.224       1507.8679      1498.1126      1485.6915      1.9234292     -84.835985      34.520762      17.684855      17.684447      17.68438       5530.7346    
       107   0             -2181.2748      1499.9379      1510.7605      1500.8192      1488.234       1.0623698     -85.134616      34.636941      17.684855      17.684447      17.68438       5530.7346    
       108   0             -2181.2749      1502.9048      1512.7712      1504.5769      1491.3664      2.7847961     -83.820227      34.302661      17.684855      17.684447      17.68438       5530.7346    
       109   0             -2181.275       1506.5799      1516.2661      1509.1344      1494.3393      0.81434709    -84.607237      34.069219      17.684855      17.684447      17.68438       5530.7346    
       110   0             -2181.275       1503.7782      1513.2677      1506.1752      1491.8918      1.6254695     -84.576192      33.737431      17.684855      17.684447      17.68438       5530.7346    
       111   0             -2181.275       1501.1755      1510.7378      1503.3059      1489.4829      2.7003207     -84.274457      34.092925      17.684855      17.684447      17.68438       5530.7346    
       112   0             -2181.275       1503.4526      1513.1183      1505.329       1491.9105      2.4224952     -84.559756      34.126092      17.684855      17.684447      17.68438       5530.7346    
       113   0             -2181.275       1504.4854      1514.3415      1505.8923      1493.2224      1.8945105     -84.762452      34.131049      17.684855      17.684447      17.68438       5530.7346    
       114   0             -2181.275       1503.6499      1513.714       1504.9518      1492.2839      1.7297008     -84.632223      34.145972      17.684855      17.684447      17.68438       5530.7346    
       115   0             -2181.275       1503.1007      1513.0853      1504.5189      1491.6978      1.9008229     -84.530407      34.021389      17.684855      17.684447      17.68438       5530.7346    
       116   0             -2181.275       1502.8876      1512.8002      1504.4478      1491.4148      1.9812827     -84.54416       33.986476      17.684855      17.684447      17.68438       5530.7346    
       117   0             -2181.275       1503.1269      1513.0434      1504.7236      1491.6136      1.937289      -84.548394      34.044651      17.684855      17.684447      17.68438       5530.7346    
       118   0             -2181.275       1503.2051      1513.1154      1504.8221      1491.6778      1.925432      -84.569703      34.053983      17.684855      17.684447      17.68438       5530.7346    
       119   0             -2181.275       1503.0927      1513.003       1504.7247      1491.5504      1.9263495     -84.589395      34.040085      17.684855      17.684447      17.68438       5530.7346    
       120   0             -2181.275       1503.0844      1513.0104      1504.6986      1491.5442      1.9544403     -84.575006      34.039376      17.684855      17.684447      17.68438       5530.7346    
       121   0             -2181.275       1503.1299      1513.062       1504.7395      1491.5881      1.958015      -84.575272      34.059826      17.684855      17.684447      17.68438       5530.7346    
       122   0             -2181.275       1503.153       1513.0885      1504.7631      1491.6075      1.9468535     -84.584168      34.055841      17.684855      17.684447      17.68438       5530.7346    
       123   0             -2181.275       1503.1426      1513.0763      1504.7519      1491.5996      1.9496317     -84.576419      34.059222      17.684855      17.684447      17.68438       5530.7346    
       124   0             -2181.275       1503.1168      1513.052       1504.7242      1491.5741      1.9483861     -84.573838      34.059467      17.684855      17.684447      17.68438       5530.7346    
       125   0             -2181.275       1503.114       1513.0487      1504.7219      1491.5714      1.9484872     -84.571991      34.056007      17.684855      17.684447      17.68438       5530.7346    
       126   0             -2181.275       1503.1195      1513.054       1504.7276      1491.577       1.949103      -84.570723      34.057764      17.684855      17.684447      17.68438       5530.7346    
       127   0             -2181.275       1503.1215      1513.0565      1504.7297      1491.5784      1.9500951     -84.571943      34.058606      17.684855      17.684447      17.68438       5530.7346    
       128   0             -2181.275       1503.121       1513.0559      1504.7297      1491.5774      1.9506947     -84.573029      34.058694      17.684855      17.684447      17.68438       5530.7346    
       129   0             -2181.275       1503.1199      1513.0545      1504.7293      1491.5759      1.951052      -84.572536      34.058156      17.684855      17.684447      17.68438       5530.7346    
       130   0             -2181.275       1503.1207      1513.0551      1504.7304      1491.5766      1.9506405     -84.572502      34.058106      17.684855      17.684447      17.68438       5530.7346    
[...]
       157   0             -2181.275       1504.9618      1514.5913      1507.1823      1493.1119      3.1300001     -84.571643      34.061698      17.684855      17.684429      17.68438       5530.7291    
       158   0             -2181.275       1504.9618      1514.5913      1507.1823      1493.1119      3.1300001     -84.571643      34.061698      17.684855      17.684429      17.68438       5530.7291    
       159   0             -2181.275       1504.9618      1514.5913      1507.1823      1493.1119      3.1300001     -84.571643      34.061698      17.684855      17.684429      17.68438       5530.7291    
       160   0             -2181.275       1504.9618      1514.5913      1507.1823      1493.1119      3.13          -84.571643      34.061698      17.684855      17.684429      17.68438       5530.7291    
       161   0             -2181.275       1504.9618      1514.5913      1507.1823      1493.1119      3.1300001     -84.571643      34.061698      17.684855      17.684429      17.68438       5530.7291    
       162   0             -2181.275       1504.9618      1514.5913      1507.1823      1493.1119      3.1300001     -84.571643      34.061698      17.684855      17.684429      17.68438       5530.7291    
Loop time of 0.143898 on 1 procs for 62 steps with 500 atoms

97.7% CPU use with 1 MPI tasks x 1 OpenMP threads

Minimization stats:
  Stopping criterion = force tolerance
  Energy initial, next-to-last, final = 
     -2180.98923667769  -2181.27500614111  -2181.27500614112
  Force two-norm initial, final = 2.1997603 7.98954e-11
  Force max component initial, final = 0.19920039 9.5211851e-12
  Final line search alpha, max atom move = 1 9.5211851e-12
  Iterations, force evaluations = 62 121

MPI task timing breakdown:
Section |  min time  |  avg time  |  max time  |%varavg| %total
---------------------------------------------------------------
Pair    | 0.14121    | 0.14121    | 0.14121    |   0.0 | 98.13
Neigh   | 0          | 0          | 0          |   0.0 |  0.00
Comm    | 0.000774   | 0.000774   | 0.000774   |   0.0 |  0.54
Output  | 0.000942   | 0.000942   | 0.000942   |   0.0 |  0.65
Modify  | 0          | 0          | 0          |   0.0 |  0.00
Other   |            | 0.000971   |            |       |  0.67

Nlocal:            500 ave         500 max         500 min
Histogram: 1 0 0 0 0 0 0 0 0 0
Nghost:           1956 ave        1956 max        1956 min
Histogram: 1 0 0 0 0 0 0 0 0 0
Neighs:          33500 ave       33500 max       33500 min
Histogram: 1 0 0 0 0 0 0 0 0 0

Total # of neighbors = 33500
Ave neighs/atom = 67
Neighbor list builds = 0
Dangerous builds = 0
OMP_NUM_THREADS environment is not set. Defaulting to 1 thread. (src/comm.cpp:98)
  using 1 OpenMP thread(s) per MPI task
Loaded 1 plugins from F:\Lammps\LAMMPS 64-bit 2Aug2023\plugins

The 'box' command has been removed and will be ignored

Reading restart file ...
  restart file = 2 Aug 2023, LAMMPS = 2 Aug 2023
  restoring atom style atomic from restart
  triclinic box = (0.052572393 0.05278536 0.052810237) to (17.737428 17.737215 17.73719) with tilt (0 0 0)
  1 by 1 by 1 MPI processor grid
  pair style eam/alloy stores no restart info
  500 atoms
  read_restart CPU = 0.000 seconds
Changing box ...
  triclinic box = (0.052572393 0.05278536 0.052810237) to (17.737428 17.737215 17.73719) with tilt (1.7684429e-05 0 0)
Neighbor list info ...
  update: every = 1 steps, delay = 0 steps, check = yes
  max neighbors/atom: 2000, page size: 100000
  master list distance cutoff = 6.80375
  ghost atom cutoff = 6.80375
  1 neighbor lists, perpetual/occasional/extra = 1 0 0
  (1) pair eam/alloy, perpetual
      attributes: half, newton on
      pair build: half/nsq/newton
      stencil: none
      bin: none
Setting up cg style minimization ...
  Unit style    : metal
  Current step  : 100
Per MPI rank memory allocation (min/avg/max) = 4.482 | 4.482 | 4.482 Mbytes
   Step          Temp          PotEng         Press           Pxx            Pyy            Pzz            Pxy            Pxz            Pyz             Lx             Ly             Lz           Volume    
       100   0             -2180.9892      24.675208      30.067786      23.46673       20.49111       156.23909     -73.361657     -30.724473      17.684855      17.684429      17.68438       5530.7291    
       101   0             -2181.1662      874.01307      881.65542      864.40197      875.98183      108.84577     -62.58489       14.419591      17.684855      17.684429      17.68438       5530.7291    
       102   0             -2181.2441      1499.9162      1502.5127      1493.3801      1503.8557      41.81636      -63.291813      40.389509      17.684855      17.684429      17.68438       5530.7291    
       103   0             -2181.2671      1386.6512      1381.4495      1381.0329      1397.4713      11.462929     -81.761444      22.180431      17.684855      17.684429      17.68438       5530.7291    
       104   0             -2181.2724      1557.8091      1556.7732      1556.035       1560.619       4.7434584     -80.921764      33.275732      17.684855      17.684429      17.68438       5530.7291    
       105   0             -2181.2741      1543.3625      1551.2635      1543.1488      1535.6753      5.1857558     -81.783966      36.030507      17.684855      17.684429      17.68438       5530.7291    
       106   0             -2181.2747      1499.0684      1509.4081      1500.5695      1487.2277      0.74124081    -84.831032      34.522241      17.684855      17.684429      17.68438       5530.7291    
       107   0             -2181.2748      1501.7774      1512.2958      1503.2711      1489.7654     -0.11976527    -85.129836      34.638272      17.684855      17.684429      17.68438       5530.7291    
       108   0             -2181.2749      1504.745       1514.3068      1507.0293      1492.899       1.6029127     -83.815467      34.303755      17.684855      17.684429      17.68438       5530.7291    
       109   0             -2181.2749      1508.4222      1517.8038      1511.5887      1495.8739     -0.36780132    -84.60236       34.070531      17.684855      17.684429      17.68438       5530.7291    
       110   0             -2181.275       1505.622       1514.807       1508.6309      1493.4279      0.44283798    -84.571659      33.738772      17.684855      17.684429      17.68438       5530.7291    
       111   0             -2181.275       1503.0171      1512.275       1505.7594      1491.0169      1.5180259     -84.269839      34.094209      17.684855      17.684429      17.68438       5530.7291    
       112   0             -2181.275       1505.2937      1514.655       1507.782       1493.444       1.2403926     -84.555068      34.12739       17.684855      17.684429      17.68438       5530.7291    
       113   0             -2181.275       1506.3268      1515.8786      1508.3456      1494.7563      0.71241678    -84.757758      34.132317      17.684855      17.684429      17.68438       5530.7291    
       114   0             -2181.275       1505.4915      1515.2513      1507.4053      1493.8181      0.54754169    -84.627534      34.147242      17.684855      17.684429      17.68438       5530.7291    
       115   0             -2181.275       1504.9424      1514.6226      1506.9725      1493.232       0.71866324    -84.525713      34.022645      17.684855      17.684429      17.68438       5530.7291    
       116   0             -2181.275       1504.7292      1514.3373      1506.9012      1492.9489      0.7991643     -84.539454      33.987736      17.684855      17.684429      17.68438       5530.7291    
       117   0             -2181.275       1504.9684      1514.5805      1507.1771      1493.1477      0.75515201    -84.5437        34.045915      17.684855      17.684429      17.68438       5530.7291    
       118   0             -2181.275       1505.0468      1514.6527      1507.2757      1493.212       0.74327436    -84.56501       34.055248      17.684855      17.684429      17.68438       5530.7291    
       119   0             -2181.275       1504.9343      1514.5402      1507.1782      1493.0846      0.74419488    -84.584695      34.041349      17.684855      17.684429      17.68438       5530.7291    
       120   0             -2181.275       1504.926       1514.5476      1507.1521      1493.0783      0.77228503    -84.570308      34.040632      17.684855      17.684429      17.68438       5530.7291    
       121   0             -2181.275       1504.9714      1514.5992      1507.193       1493.1222      0.77586386    -84.570574      34.061084      17.684855      17.684429      17.68438       5530.7291    
       122   0             -2181.275       1504.9946      1514.6257      1507.2166      1493.1416      0.76470724    -84.579468      34.057099      17.684855      17.684429      17.68438       5530.7291    
       123   0             -2181.275       1504.9842      1514.6135      1507.2054      1493.1337      0.76748402    -84.571721      34.06048       17.684855      17.684429      17.68438       5530.7291    
       124   0             -2181.275       1504.9584      1514.5891      1507.1777      1493.1082      0.76623904    -84.569141      34.060725      17.684855      17.684429      17.68438       5530.7291    
       125   0             -2181.275       1504.9556      1514.5859      1507.1754      1493.1055      0.76634093    -84.567293      34.057266      17.684855      17.684429      17.68438       5530.7291    
       126   0             -2181.275       1504.9611      1514.5912      1507.1811      1493.1111      0.76695638    -84.566025      34.059022      17.684855      17.684429      17.68438       5530.7291    
       127   0             -2181.275       1504.9631      1514.5936      1507.1832      1493.1125      0.76794827    -84.567245      34.059864      17.684855      17.684429      17.68438       5530.7291    
       128   0             -2181.275       1504.9626      1514.5931      1507.1833      1493.1116      0.76854771    -84.568331      34.059953      17.684855      17.684429      17.68438       5530.7291    
       129   0             -2181.275       1504.9615      1514.5917      1507.1828      1493.1101      0.76890527    -84.567839      34.059414      17.684855      17.684429      17.68438       5530.7291    
       130   0             -2181.275       1504.9623      1514.5923      1507.184       1493.1107      0.76849372    -84.567804      34.059364      17.684855      17.684429      17.68438       5530.7291    
       131   0             -2181.275       1504.9624      1514.5927      1507.184       1493.1104      0.76856533    -84.568075      34.05937       17.684855      17.684429      17.68438       5530.7291    
       132   0             -2181.275       1504.9626      1514.5931      1507.1843      1493.1104      0.76851475    -84.568248      34.05944       17.684855      17.684429      17.68438       5530.7291    
       133   0             -2181.275       1504.9625      1514.593       1507.1844      1493.1101      0.76854269    -84.568177      34.059593      17.684855      17.684429      17.68438       5530.7291    
       134   0             -2181.275       1504.9628      1514.5934      1507.1848      1493.1102      0.76844332    -84.568086      34.059608      17.684855      17.684429      17.68438       5530.7291    
       135   0             -2181.275       1504.9628      1514.5934      1507.1849      1493.1101      0.76833266    -84.568079      34.059584      17.684855      17.684429      17.68438       5530.7291    
       136   0             -2181.275       1504.9628      1514.5934      1507.185       1493.1102      0.76833595    -84.568056      34.059617      17.684855      17.684429      17.68438       5530.7291    
       137   0             -2181.275       1504.9627      1514.5932      1507.1849      1493.11        0.76836674    -84.568024      34.059614      17.684855      17.684429      17.68438       5530.7291    
       138   0             -2181.275       1504.9627      1514.5933      1507.1849      1493.11        0.7683681     -84.568029      34.059626      17.684855      17.684429      17.68438       5530.7291    
       139   0             -2181.275       1504.9628      1514.5933      1507.1849      1493.1101      0.76837359    -84.568037      34.059632      17.684855      17.684429      17.68438       5530.7291    
       140   0             -2181.275       1504.9628      1514.5933      1507.1849      1493.1101      0.7683666     -84.56804       34.059631      17.684855      17.684429      17.68438       5530.7291    
       141   0             -2181.275       1504.9628      1514.5933      1507.1849      1493.11        0.76836743    -84.568038      34.05963       17.684855      17.684429      17.68438       5530.7291    
       142   0             -2181.275       1504.9628      1514.5933      1507.185       1493.1101      0.76836833    -84.568038      34.059626      17.684855      17.684429      17.68438       5530.7291    
       143   0             -2181.275       1504.9628      1514.5933      1507.185       1493.1101      0.76836956    -84.568041      34.059621      17.684855      17.684429      17.68438       5530.7291    
       144   0             -2181.275       1504.9628      1514.5933      1507.185       1493.1101      0.76837005    -84.568041      34.05962       17.684855      17.684429      17.68438       5530.7291    
       145   0             -2181.275       1504.9628      1514.5933      1507.185       1493.1101      0.76837205    -84.568039      34.059619      17.684855      17.684429      17.68438       5530.7291    
       146   0             -2181.275       1504.9628      1514.5933      1507.185       1493.1101      0.76837241    -84.568041      34.059619      17.684855      17.684429      17.68438       5530.7291    
       147   0             -2181.275       1504.9628      1514.5933      1507.185       1493.1101      0.76837096    -84.56804       34.05962       17.684855      17.684429      17.68438       5530.7291    
       148   0             -2181.275       1504.9628      1514.5933      1507.185       1493.1101      0.76837113    -84.56804       34.05962       17.684855      17.684429      17.68438       5530.7291    
       149   0             -2181.275       1504.9628      1514.5933      1507.185       1493.1101      0.76837172    -84.56804       34.05962       17.684855      17.684429      17.68438       5530.7291    
       150   0             -2181.275       1504.9628      1514.5933      1507.185       1493.1101      0.76837207    -84.56804       34.059621      17.684855      17.684429      17.68438       5530.7291    
       151   0             -2181.275       1504.9628      1514.5933      1507.185       1493.1101      0.76837202    -84.56804       34.05962       17.684855      17.684429      17.68438       5530.7291    
       152   0             -2181.275       1504.9628      1514.5933      1507.185       1493.1101      0.76837187    -84.56804       34.059621      17.684855      17.684429      17.68438       5530.7291    
       153   0             -2181.275       1504.9628      1514.5933      1507.185       1493.1101      0.76837175    -84.56804       34.059621      17.684855      17.684429      17.68438       5530.7291    
       154   0             -2181.275       1504.9628      1514.5933      1507.185       1493.1101      0.76837181    -84.56804       34.05962       17.684855      17.684429      17.68438       5530.7291    
       155   0             -2181.275       1504.9628      1514.5933      1507.185       1493.1101      0.76837179    -84.56804       34.059621      17.684855      17.684429      17.68438       5530.7291    
       156   0             -2181.275       1504.9628      1514.5933      1507.185       1493.1101      0.7683718     -84.56804       34.059621      17.684855      17.684429      17.68438       5530.7291    
       157   0             -2181.275       1504.9628      1514.5933      1507.185       1493.1101      0.7683718     -84.56804       34.059621      17.684855      17.684429      17.68438       5530.7291    
       158   0             -2181.275       1504.9628      1514.5933      1507.185       1493.1101      0.76837179    -84.56804       34.059621      17.684855      17.684429      17.68438       5530.7291    
       159   0             -2181.275       1504.9628      1514.5933      1507.185       1493.1101      0.76837178    -84.56804       34.059621      17.684855      17.684429      17.68438       5530.7291    
       160   0             -2181.275       1504.9628      1514.5933      1507.185       1493.1101      0.76837177    -84.56804       34.059621      17.684855      17.684429      17.68438       5530.7291    
       161   0             -2181.275       1504.9628      1514.5933      1507.185       1493.1101      0.76837178    -84.56804       34.059621      17.684855      17.684429      17.68438       5530.7291    
       162   0             -2181.275       1504.9628      1514.5933      1507.185       1493.1101      0.76837178    -84.56804       34.059621      17.684855      17.684429      17.68438       5530.7291    
Loop time of 0.144162 on 1 procs for 62 steps with 500 atoms

97.5% CPU use with 1 MPI tasks x 1 OpenMP threads

Minimization stats:
  Stopping criterion = force tolerance
  Energy initial, next-to-last, final = 
     -2180.98923776459  -2181.27500615458  -2181.27500615457
  Force two-norm initial, final = 2.1997577 7.9905938e-11
  Force max component initial, final = 0.19919994 9.5360074e-12
  Final line search alpha, max atom move = 1 9.5360074e-12
  Iterations, force evaluations = 62 121

MPI task timing breakdown:
Section |  min time  |  avg time  |  max time  |%varavg| %total
---------------------------------------------------------------
Pair    | 0.14147    | 0.14147    | 0.14147    |   0.0 | 98.14
Neigh   | 0          | 0          | 0          |   0.0 |  0.00
Comm    | 0.000706   | 0.000706   | 0.000706   |   0.0 |  0.49
Output  | 0.000999   | 0.000999   | 0.000999   |   0.0 |  0.69
Modify  | 0          | 0          | 0          |   0.0 |  0.00
Other   |            | 0.000983   |            |       |  0.68

Nlocal:            500 ave         500 max         500 min
Histogram: 1 0 0 0 0 0 0 0 0 0
Nghost:           1956 ave        1956 max        1956 min
Histogram: 1 0 0 0 0 0 0 0 0 0
Neighs:          33500 ave       33500 max       33500 min
Histogram: 1 0 0 0 0 0 0 0 0 0

Total # of neighbors = 33500
Ave neighs/atom = 67
Neighbor list builds = 0
Dangerous builds = 0
=========================================
Components of the Elastic Constant Tensor
=========================================
Elastic Constant C11all = 244.6886894895 GPa
Elastic Constant C22all = 245.217203381006 GPa
Elastic Constant C33all = 244.672196987507 GPa
Elastic Constant C12all = 153.618673336998 GPa
Elastic Constant C13all = 153.618691119991 GPa
Elastic Constant C23all = 153.508199676493 GPa
Elastic Constant C44all = 118.170609570685 GPa
Elastic Constant C55all = 118.13470505806 GPa
Elastic Constant C66all = 118.08141377315 GPa
Elastic Constant C14all = -0.0494299241856879 GPa
Elastic Constant C15all = 0.276590171890689 GPa
Elastic Constant C16all = -0.0999759286987684 GPa
Elastic Constant C24all = 0.226319067785425 GPa
Elastic Constant C25all = 0.29384281357278 GPa
Elastic Constant C26all = -0.133275870354737 GPa
Elastic Constant C34all = 0.0103437204256807 GPa
Elastic Constant C35all = 0.28243658891131 GPa
Elastic Constant C36all = 0.0939549511508631 GPa
Elastic Constant C45all = 0.14835692826 GPa
Elastic Constant C46all = 0.10809349700503 GPa
Elastic Constant C56all = -0.180145793820259 GPa
=========================================
Average properties for a cubic crystal
=========================================
Bulk Modulus = 184.007690902775 GPa
Shear Modulus 1 = 118.128909467298 GPa
Shear Modulus 2 = 45.6387542874215 GPa
Poisson Ratio = 0.385456744367883
Total wall time: 0:00:02
