LAMMPS (2 Aug 2023 - Update 3)
OMP_NUM_THREADS environment is not set. Defaulting to 1 thread. (src/comm.cpp:98)
  using 1 OpenMP thread(s) per MPI task
Loaded 1 plugins from F:\Lammps\LAMMPS 64-bit 2Aug2023\plugins
Reading data file ...
  orthogonal box = (0 0 0) to (17.79 17.79 17.79)
  1 by 1 by 1 MPI processor grid
  reading atoms ...
  500 atoms
  read_data CPU = 0.002 seconds
Changing box ...
  triclinic box = (0 0 0) to (17.79 17.79 17.79) with tilt (0 0 0)
Neighbor list info ...
  update: every = 1 steps, delay = 0 steps, check = yes
  max neighbors/atom: 2000, page size: 100000
  master list distance cutoff = 6.80375
  ghost atom cutoff = 6.80375
  1 neighbor lists, perpetual/occasional/extra = 1 0 0
  (1) pair eam/alloy, perpetual
      attributes: half, newton on
      pair build: half/nsq/newton
      stencil: none
      bin: none
Setting up cg style minimization ...
  Unit style    : metal
  Current step  : 0
WARNING: Energy due to 3 extra global DOFs will be included in minimizer energies
 (src/min.cpp:228)
Per MPI rank memory allocation (min/avg/max) = 4.492 | 4.492 | 4.492 Mbytes
   Step          Temp          PotEng         Press           Pxx            Pyy            Pzz            Pxy            Pxz            Pyz             Lx             Ly             Lz           Volume    
         0   0             -2179.982      -32588.926     -32689.315     -32557.427     -32520.035      17.703479      78.573561      29.044354      17.79          17.79          17.79          5630.2521    
         1   0             -2180.016      -32045.016     -32145.417     -32012.519     -31977.113      16.955563      78.588889      28.06439       17.788221      17.788228      17.78823       5628.5684    
         2   0             -2180.0494     -31500.699     -31601.106     -31467.207     -31433.785      16.206806      78.601648      27.081656      17.786442      17.786457      17.786461      5626.8851    
         3   0             -2180.0822     -30955.97      -31056.379     -30921.486     -30890.044      15.456642      78.611909      26.096143      17.784663      17.784685      17.784691      5625.2023    
         4   0             -2180.1144     -30410.847     -30511.254     -30375.375     -30345.913      14.705179      78.620165      25.10848       17.782884      17.782914      17.782921      5623.5198    
         5   0             -2180.1461     -29865.406     -29965.802     -29828.949     -29801.465      13.954042      78.62497       24.119786      17.781105      17.781143      17.781152      5621.8378    
         6   0             -2180.1771     -29319.685     -29420.063     -29282.251     -29256.741      13.206214      78.626221      23.130102      17.779326      17.779372      17.779383      5620.1562    
         7   0             -2180.2076     -28773.69      -28874.042     -28735.284     -28711.744      12.461466      78.624213      22.139455      17.777547      17.777601      17.777614      5618.4751    
         8   0             -2180.2375     -28227.38      -28327.699     -28188.004     -28166.437      11.719251      78.621245      21.146707      17.775768      17.775831      17.775845      5616.7944    
         9   0             -2180.2668     -27680.702     -27780.981     -27640.36      -27620.766      10.976813      78.617463      20.150673      17.773989      17.774061      17.774076      5615.1142    
        10   0             -2180.2956     -27133.636     -27233.868     -27092.331     -27074.71       10.233595      78.611977      19.15305       17.77221       17.772291      17.772307      5613.4344    
        11   0             -2180.3238     -26586.2       -26686.378     -26543.937     -26528.285      9.4901621      78.603721      18.154218      17.770431      17.770521      17.770539      5611.7551    
        12   0             -2180.3513     -26038.436     -26138.556     -25995.223     -25981.53       8.7473347      78.590537      17.155344      17.768652      17.768751      17.76877       5610.0762    
        13   0             -2180.3783     -25490.371     -25590.426     -25446.212     -25434.474      8.0060216      78.573281      16.155985      17.766873      17.766982      17.767002      5608.3978    
        14   0             -2180.4048     -24942.04      -25042.023     -24896.942     -24887.153      7.2638358      78.552446      15.153862      17.765094      17.765213      17.765234      5606.7198    
        15   0             -2180.4306     -24393.409     -24493.308     -24347.382     -24339.538      6.5202849      78.529003      14.14779       17.763315      17.763444      17.763466      5605.0424    
        16   0             -2180.4559     -23844.438     -23944.241     -23797.491     -23791.583      5.7757684      78.503529      13.137656      17.761536      17.761676      17.761698      5603.3654    
        17   0             -2180.4805     -23295.109     -23394.806     -23247.251     -23243.271      5.0304716      78.475047      12.123765      17.759757      17.759908      17.75993       5601.6889    
        18   0             -2180.5046     -22745.411     -22844.995     -22696.65      -22694.589      4.2863753      78.441846      11.10823       17.757978      17.75814       17.758163      5600.0129    
        19   0             -2180.5281     -22195.426     -22294.893     -22145.764     -22145.621      3.5421876      78.403076      10.091193      17.756199      17.756373      17.756396      5598.3374    
        20   0             -2180.5511     -21645.17      -21744.513     -21594.612     -21596.385      2.7977154      78.358656      9.0728031      17.75442       17.754606      17.754628      5596.6624    
        21   0             -2180.5734     -21094.679     -21193.887     -21043.233     -21046.919      2.0524472      78.312191      8.0523994      17.752641      17.752839      17.752862      5594.9879    
        22   0             -2180.5952     -20543.886     -20642.942     -20491.564     -20497.153      1.3054695      78.266186      7.0285708      17.750862      17.751073      17.751095      5593.3139    
        23   0             -2180.6164     -19992.815     -20091.707     -19939.629     -19947.109      0.55828718     78.221441      6.0020284      17.749083      17.749307      17.749329      5591.6405    
        24   0             -2180.637      -19441.465     -19540.179     -19387.428     -19396.789     -0.18953219     78.177663      4.972779       17.747304      17.747541      17.747562      5589.9676    
        25   0             -2180.657      -18889.873     -18988.402     -18834.993     -18846.223     -0.9359004      78.128673      3.9428807      17.745525      17.745776      17.745796      5588.2953    
        26   0             -2180.6764     -18338.056     -18436.386     -18282.346     -18295.437     -1.6803637      78.074014      2.9133234      17.743746      17.744011      17.744031      5586.6235    
        27   0             -2180.6953     -17785.976     -17884.091     -17729.448     -17744.389     -2.4240397      78.012599      1.8829854      17.741967      17.742247      17.742265      5584.9523    
        28   0             -2180.7136     -17233.638     -17331.523     -17176.306     -17193.086     -3.1674256      77.94547       0.85103476     17.740188      17.740484      17.7405        5583.2817    
        29   0             -2180.7312     -16681.058     -16778.697     -16622.935     -16641.542     -3.9142633      77.878249     -0.18557955     17.738409      17.738721      17.738736      5581.6117    
        30   0             -2180.7484     -16128.258     -16225.634     -16069.359     -16089.782     -4.6653218      77.811454     -1.2272157      17.73663       17.736958      17.736971      5579.9423    
        31   0             -2180.7649     -15575.266     -15672.363     -15515.605     -15537.832     -5.4197275      77.746054     -2.2732544      17.734851      17.735196      17.735207      5578.2736    
        32   0             -2180.7808     -15022.058     -15118.851     -14961.652     -14985.67      -6.1754374      77.680207     -3.3216751      17.733072      17.733435      17.733443      5576.6055    
        33   0             -2180.7962     -14468.603     -14565.075     -14407.471     -14433.263     -6.9284791      77.607072     -4.3700537      17.731293      17.731675      17.73168       5574.9381    
        34   0             -2180.811      -13914.914     -14011.045     -13853.075     -13880.621     -7.6786981      77.526095     -5.4180718      17.729514      17.729915      17.729917      5573.2714    
        35   0             -2180.8252     -13361         -13456.772     -13298.474     -13327.754     -8.4265026      77.436663     -6.4658177      17.727735      17.728156      17.728155      5571.6055    
        36   0             -2180.8388     -12806.942     -12902.336     -12743.75      -12774.741     -9.1757453      77.343045     -7.5152752      17.725956      17.726398      17.726393      5569.9403    
        37   0             -2180.8518     -12252.784     -12347.772     -12188.949     -12221.631     -9.9278629      77.249768     -8.5683707      17.724177      17.724641      17.724632      5568.2759    
        38   0             -2180.8643     -11698.543     -11793.096     -11634.092     -11668.442     -10.682579      77.156944     -9.6252611      17.722398      17.722885      17.722871      5566.6123    
        39   0             -2180.8762     -11144.203     -11238.274     -11079.171     -11115.163     -11.439208      77.063913     -10.686242      17.720619      17.72113       17.721111      5564.9496    
        40   0             -2180.8874     -10589.717     -10683.268     -10524.138     -10561.744     -12.195294      76.966025     -11.74882       17.71884       17.719376      17.719351      5563.2879    
        41   0             -2180.8982     -10035.068     -10128.059     -9968.9783     -10008.166     -12.951878      76.861419     -12.813011      17.717061      17.717624      17.717592      5561.6271    
        42   0             -2180.9083     -9480.2985     -9572.6982     -9413.7323     -9454.4651     -13.708568      76.75028      -13.878802      17.715282      17.715873      17.715835      5559.9673    
        43   0             -2180.9178     -8925.5102     -9017.2847     -8858.5028     -8900.7431     -14.464933      76.633567     -14.94675       17.713503      17.714123      17.714078      5558.3087    
        44   0             -2180.9268     -8370.7581     -8461.8648     -8303.3514     -8347.058      -15.220783      76.513957     -16.017942      17.711724      17.712376      17.712322      5556.6513    
        45   0             -2180.9352     -7816.1254     -7906.5094     -7748.3687     -7793.498      -15.974774      76.393519     -17.091623      17.709945      17.71063       17.710567      5554.9952    
        46   0             -2180.943      -7261.6043     -7351.1924     -7193.56       -7240.0606     -16.727469      76.272153     -18.167018      17.708166      17.708887      17.708813      5553.3406    
        47   0             -2180.9503     -6707.2354     -6795.9538     -6638.9678     -6686.7847     -17.478926      76.149823     -19.243626      17.706387      17.707146      17.707061      5551.6875    
        48   0             -2180.9569     -6153.0903     -6240.855      -6084.6742     -6133.7418     -18.228727      76.02381      -20.321035      17.704608      17.705408      17.705311      5550.0362    
        49   0             -2180.963      -5599.2382     -5685.9589     -5530.7585     -5580.9974     -18.976807      75.89252      -21.399419      17.702829      17.703674      17.703563      5548.387     
        50   0             -2180.9685     -5045.7719     -5131.3316     -4977.3365     -5028.6475     -19.723571      75.754137     -22.478864      17.70105       17.701944      17.701816      5546.74      
        51   0             -2180.9735     -4492.8138     -4577.0806     -4424.5468     -4476.8138     -20.469325      75.60936      -23.558794      17.699271      17.700218      17.700073      5545.0958    
        52   0             -2180.9779     -3940.564      -4023.3758     -3872.6161     -3925.7001     -21.215604      75.459905     -24.638799      17.697492      17.698498      17.698333      5543.4548    
        53   0             -2180.9817     -3389.3013     -3470.4737     -3321.8483     -3375.582      -21.962062      75.305389     -25.718398      17.695713      17.696786      17.696597      5541.8178    
        54   0             -2180.9849     -2839.4484     -2918.7207     -2772.7271     -2826.8972     -22.707816      75.147321     -26.797505      17.693934      17.695083      17.694867      5540.1857    
        55   0             -2180.9876     -2291.5367     -2368.5554     -2225.8698     -2280.1849     -23.452211      74.986263     -27.875687      17.692155      17.693394      17.693144      5538.5603    
        56   0             -2180.9897     -1746.4003     -1820.6464     -1682.2569     -1736.2977     -24.194943      74.822843     -28.952156      17.690376      17.691722      17.691432      5536.9442    
        57   0             -2180.9913     -1205.58       -1276.2728     -1143.6767     -1196.7905     -24.936682      74.659789     -30.023847      17.688597      17.690078      17.689735      5535.3422    
        58   0             -2180.9924     -672.57807     -738.35859     -614.16301     -665.21262     -25.679363      74.497928     -31.085995      17.686818      17.688484      17.688067      5533.7648    
        59   0             -2180.9931     -157.96084     -215.71317     -105.89916     -152.27019     -26.429641      74.341834     -32.12635       17.685039      17.687004      17.686464      5532.2441    
        60   0             -2180.9942      257.96959      224.77241      288.51567      260.62069     -27.238909      74.241152     -33.055654      17.68326       17.686131      17.685209      5531.0218    
        61   0             -2180.9955     -179.88963     -190.77875     -170.31229     -178.57785     -27.009766      74.427498     -32.360568      17.684226      17.68791       17.686637      5532.3271    
        62   0             -2180.9975      291.38564      296.431        287.38741      290.33853     -28.160399      74.297739     -33.57229       17.682447      17.68672       17.6852        5530.9489    
        63   0             -2180.9993     -246.07273     -236.9064      -254.70408     -246.60772     -27.913417      74.491624     -32.781169      17.684082      17.688499      17.686912      5532.5521    
        64   0             -2181.0018      308.36084      314.38116      303.58659      307.11477     -29.335515      74.307043     -34.285282      17.682413      17.68672       17.685182      5530.9327    
        65   0             -2181.0039     -227.86928     -225.25453     -230.48814     -227.86518     -29.189223      74.490371     -33.569836      17.684192      17.688368      17.686878      5532.5351    
        66   0             -2181.0066      322.40526      320.97515      324.40135      321.83928     -30.650328      74.30699      -35.093634      17.682556      17.686589      17.68516       5530.9294    
        67   0             -2181.0088     -229.64285     -231.86618     -227.91958     -229.14279     -30.500647      74.499947     -34.354751      17.684335      17.688333      17.686911      5532.579     
        68   0             -2181.0117      338.17683      336.55731      340.33979      337.6334      -32.051716      74.319529     -35.944626      17.682556      17.686582      17.685148      5530.9235    
        69   0             -2181.0139     -213.73815     -214.14175     -213.66        -213.4127      -31.912209      74.515952     -35.210375      17.684296      17.688361      17.686902      5532.5729    
        70   0             -2181.017       353.50589      353.90802      353.87305      352.7366      -33.516658      74.33769      -36.831286      17.682517      17.686617      17.685144      5530.9208    
        71   0             -2181.0191     -202.5371      -201.63533     -203.60825     -202.36773     -33.359765      74.534468     -36.085124      17.684283      17.688396      17.68691       5532.582     
        72   0             -2181.0224      368.21595      368.44856      368.78117      367.41813     -35.035955      74.354798     -37.755922      17.682524      17.686617      17.68514       5530.9216    
        73   0             -2181.0245     -188.97209     -188.75592     -189.39198     -188.76837     -34.863462      74.551135     -37.002072      17.684303      17.68839       17.686907      5532.5857    
        74   0             -2181.028       383.37803      383.06794      384.46205      382.60409     -36.611264      74.373478     -38.717966      17.682538      17.686611      17.685134      5530.9228    
        75   0             -2181.03       -174.49391     -174.59106     -174.61357     -174.2771      -36.419387      74.570332     -37.95332       17.684314      17.68839       17.686904      5532.5882    
        76   0             -2181.0337      400.44638      400.31601      401.39868      399.62445     -38.252183      74.395289     -39.72333       17.682535      17.686614      17.685126      5530.9202    
        77   0             -2181.0357     -157.152       -156.98044     -157.48702     -156.98852     -38.039772      74.592087     -38.948464      17.684307      17.688393      17.686894      5532.584     
        78   0             -2181.0397      418.79281      418.74846      419.70852      417.92144     -39.974547      74.419719     -40.782708      17.682532      17.686614      17.685116      5530.9162    
        79   0             -2181.0416     -139.57087     -139.40716     -139.86484     -139.44059     -39.736457      74.616444     -39.993478      17.684308      17.688393      17.686885      5532.5815    
        80   0             -2181.046       437.30598      437.17166      438.34204      436.40425     -41.800865      74.447673     -41.90906       17.682536      17.686614      17.685108      5530.9148    
        81   0             -2181.0478     -121.35707     -121.29139     -121.53173     -121.24809     -41.535981      74.644323     -41.105113      17.684311      17.688393      17.686877      5532.5801    
        82   0             -2181.0527      457.49129      457.39998      458.53042      456.54345     -43.771525      74.480297     -43.128843      17.682537      17.686616      17.685098      5530.9127    
        83   0             -2181.0544     -101.4026      -101.28734     -101.58723     -101.33322     -43.479535      74.676945     -42.309998      17.684312      17.688395      17.686868      5532.5777    
        84   0             -2181.0601      479.59683      479.48416      480.70353      478.6028      -45.960066      74.519286     -44.488637      17.68254       17.686618      17.685089      5530.9114    
        85   0             -2181.0616     -79.703653     -79.631657     -79.808782     -79.670521     -45.63901       74.716102     -43.65355       17.684315      17.688397      17.686859      5532.5766    
        86   0             -2181.0685      504.84245      504.76377      505.97043      503.79314     -48.517462      74.568791     -46.084002      17.682545      17.686624      17.68508       5530.9116    
        87   0             -2181.07       -54.823497     -54.728488     -54.905628     -54.836376     -48.16579       74.765731     -45.231886      17.68432       17.688403      17.68685       5532.5769    
        88   0             -2181.0795      536.95468      536.79985      538.22528      535.83891     -51.8698        74.639472     -48.185707      17.682556      17.686632      17.685071      5530.915     
        89   0             -2181.0809     -23.110383     -23.10363      -23.048909     -23.178611     -51.484781      74.836439     -47.315095      17.684331      17.688411      17.686841      5532.5802    
        90   0             -2181.1013      600.11867      600.58555      600.92547      598.84499     -58.768133      74.801006     -52.540559      17.682575      17.686673      17.685062      5530.9309    
        91   0             -2181.1026      39.077474      39.602352      38.754682      38.875387     -58.345304      74.996816     -51.649912      17.684353      17.688452      17.686833      5532.5974    
        92   0             -2181.1063     -505.61159     -506.0861      -506.01656     -504.7321      -58.893632      75.213888     -51.396382      17.686132      17.690193      17.688579      5534.2448    
        93   0             -2181.1075      61.225767      60.587432      62.074659      61.015209     -59.95036       75.03962      -52.687981      17.684358      17.688414      17.686806      5532.5787    
        94   0             -2181.1147     -462.7932      -460.92994     -465.39864     -462.05102     -61.656428      75.295798     -53.187472      17.686042      17.690193      17.68852       5534.1984    
        95   0             -2181.1159      103.80164      105.41746      102.54075      103.44671     -62.736623      75.122346     -54.49287       17.684273      17.688414      17.686749      5532.534     
        96   0             -2181.1217     -414.46166     -416.98816     -412.69674     -413.70008     -64.016092      75.35484      -54.748405      17.686052      17.690035      17.688429      5534.1236    
        97   0             -2181.1231      154.18225      151.63482      157.0795       153.83244     -65.16115       75.183673     -56.096583      17.684273      17.688256      17.686653      5532.4552    
        98   0             -2181.1278     -365.71697     -363.70784     -368.29831     -365.14475     -66.101411      75.422152     -56.125252      17.685879      17.690035      17.688333      5534.0395    
        99   0             -2181.1294      202.39779      204.69207      200.65858      201.84273     -67.334807      75.25588      -57.528736      17.6841        17.688267      17.686562      5532.3756    
       100   0             -2181.1337     -333.68206     -333.47104     -334.43034     -333.14479     -68.115945      75.485422     -57.454965      17.685879      17.689967      17.688286      5534.0034    
Loop time of 0.116856 on 1 procs for 100 steps with 500 atoms

93.6% CPU use with 1 MPI tasks x 1 OpenMP threads

Minimization stats:
  Stopping criterion = max iterations
  Energy initial, next-to-last, final = 
     -2179.98200323391  -2181.12938798689  -2181.13370067501
  Force two-norm initial, final = 198.38493 2.9659875
  Force max component initial, final = 114.87441 1.1616724
  Final line search alpha, max atom move = 0.00038340156 0.000445387
  Iterations, force evaluations = 100 100

MPI task timing breakdown:
Section |  min time  |  avg time  |  max time  |%varavg| %total
---------------------------------------------------------------
Pair    | 0.10907    | 0.10907    | 0.10907    |   0.0 | 93.34
Neigh   | 0          | 0          | 0          |   0.0 |  0.00
Comm    | 0.000616   | 0.000616   | 0.000616   |   0.0 |  0.53
Output  | 0.001369   | 0.001369   | 0.001369   |   0.0 |  1.17
Modify  | 0          | 0          | 0          |   0.0 |  0.00
Other   |            | 0.005801   |            |       |  4.96

Nlocal:            500 ave         500 max         500 min
Histogram: 1 0 0 0 0 0 0 0 0 0
Nghost:           1956 ave        1956 max        1956 min
Histogram: 1 0 0 0 0 0 0 0 0 0
Neighs:          33500 ave       33500 max       33500 min
Histogram: 1 0 0 0 0 0 0 0 0 0

Total # of neighbors = 33500
Ave neighs/atom = 67
Neighbor list builds = 0
Dangerous builds = 0
Displacing atoms ...
System init for write_restart ...
OMP_NUM_THREADS environment is not set. Defaulting to 1 thread. (src/comm.cpp:98)
  using 1 OpenMP thread(s) per MPI task
Loaded 1 plugins from F:\Lammps\LAMMPS 64-bit 2Aug2023\plugins

The 'box' command has been removed and will be ignored

Reading restart file ...
  restart file = 2 Aug 2023, LAMMPS = 2 Aug 2023
  restoring atom style atomic from restart
  triclinic box = (0.052060682 0.050016416 0.050856895) to (17.737939 17.739984 17.739143) with tilt (0 0 0)
  1 by 1 by 1 MPI processor grid
  pair style eam/alloy stores no restart info
  500 atoms
  read_restart CPU = 0.000 seconds
Changing box ...
  triclinic box = (0.052060682 0.050016416 0.050856895) to (17.737922 17.739984 17.739143) with tilt (0 0 0)
  triclinic box = (0.052060682 0.050016416 0.050856895) to (17.737922 17.739984 17.739143) with tilt (0 0 0)
  triclinic box = (0.052060682 0.050016416 0.050856895) to (17.737922 17.739984 17.739143) with tilt (0 0 0)
Neighbor list info ...
  update: every = 1 steps, delay = 0 steps, check = yes
  max neighbors/atom: 2000, page size: 100000
  master list distance cutoff = 6.80375
  ghost atom cutoff = 6.80375
  1 neighbor lists, perpetual/occasional/extra = 1 0 0
  (1) pair eam/alloy, perpetual
      attributes: half, newton on
      pair build: half/nsq/newton
      stencil: none
      bin: none
Setting up cg style minimization ...
  Unit style    : metal
  Current step  : 100
Per MPI rank memory allocation (min/avg/max) = 4.483 | 4.483 | 4.483 Mbytes
   Step          Temp          PotEng         Press           Pxx            Pyy            Pzz            Pxy            Pxz            Pyz             Lx             Ly             Lz           Volume    
       100   0             -2181.1337     -331.756       -330.97134     -332.80018     -331.49649     -68.175837      75.478944     -57.423526      17.685861      17.689967      17.688286      5533.9979    
       101   0             -2181.3025      478.47195      485.38307      489.64816      460.38461     -148.09985      77.698718     -110.93401      17.685861      17.689967      17.688286      5533.9979    
       102   0             -2181.3741      1069.8515      1090.687       1090.3907      1028.4768     -207.99895      92.320773     -164.62647      17.685861      17.689967      17.688286      5533.9979    
       103   0             -2181.3968      1148.8049      1182.4405      1171.9465      1092.0277     -205.4716       105.84761     -178.66067      17.685861      17.689967      17.688286      5533.9979    
       104   0             -2181.4003      1270.1179      1303.6269      1291.0625      1215.6642     -227.48806      99.311089     -179.06376      17.685861      17.689967      17.688286      5533.9979    
       105   0             -2181.402       1195.909       1235.1904      1208.0051      1144.5314     -229.0849       100.34922     -177.26613      17.685861      17.689967      17.688286      5533.9979    
       106   0             -2181.4024      1194.641       1234.8993      1204.8658      1144.1578     -228.15626      98.444897     -175.00631      17.685861      17.689967      17.688286      5533.9979    
       107   0             -2181.4026      1214.4829      1256.4759      1222.6304      1164.3424     -227.95584      97.413399     -176.33988      17.685861      17.689967      17.688286      5533.9979    
       108   0             -2181.4027      1216.5947      1259.7901      1223.5107      1166.4834     -227.02899      97.619171     -177.81858      17.685861      17.689967      17.688286      5533.9979    
       109   0             -2181.4027      1213.8091      1257.2427      1220.1479      1164.0369     -226.58987      97.042242     -177.12432      17.685861      17.689967      17.688286      5533.9979    
       110   0             -2181.4027      1210.6964      1253.9853      1216.9658      1161.1381     -226.4222       96.713667     -176.91564      17.685861      17.689967      17.688286      5533.9979    
       111   0             -2181.4027      1213.6972      1256.7081      1220.3043      1164.0792     -226.74526      96.609597     -177.08841      17.685861      17.689967      17.688286      5533.9979    
       112   0             -2181.4027      1214.9129      1257.7012      1221.7067      1165.3307     -226.94026      96.735479     -177.06517      17.685861      17.689967      17.688286      5533.9979    
       113   0             -2181.4027      1214.0566      1256.659       1220.9038      1164.607      -226.94716      96.746569     -176.77624      17.685861      17.689967      17.688286      5533.9979    
       114   0             -2181.4027      1213.4715      1256.2557      1220.3775      1163.7814     -226.9836       96.702387     -176.71376      17.685861      17.689967      17.688286      5533.9979    
       115   0             -2181.4027      1213.653       1256.6543      1220.5356      1163.7691     -227.03989      96.704515     -176.76378      17.685861      17.689967      17.688286      5533.9979    
       116   0             -2181.4027      1213.6994      1256.7687      1220.5977      1163.7319     -226.96461      96.637905     -176.85617      17.685861      17.689967      17.688286      5533.9979    
       117   0             -2181.4027      1213.4846      1256.5662      1220.3799      1163.5077     -226.95095      96.591331     -176.85449      17.685861      17.689967      17.688286      5533.9979    
       118   0             -2181.4027      1213.4193      1256.51        1220.2729      1163.475      -226.97078      96.585347     -176.85213      17.685861      17.689967      17.688286      5533.9979    
       119   0             -2181.4027      1213.5284      1256.6044      1220.3826      1163.5983     -226.96247      96.60644      -176.86314      17.685861      17.689967      17.688286      5533.9979    
       120   0             -2181.4027      1213.5739      1256.6555      1220.4371      1163.6291     -226.9596       96.600856     -176.86366      17.685861      17.689967      17.688286      5533.9979    
       121   0             -2181.4027      1213.5675      1256.6473      1220.4394      1163.6158     -226.95825      96.609726     -176.86187      17.685861      17.689967      17.688286      5533.9979    
       122   0             -2181.4027      1213.5633      1256.6377      1220.437       1163.6153     -226.9618       96.624187     -176.86113      17.685861      17.689967      17.688286      5533.9979    
       123   0             -2181.4027      1213.5768      1256.6509      1220.4469      1163.6326     -226.96979      96.629194     -176.8624       17.685861      17.689967      17.688286      5533.9979    
       124   0             -2181.4027      1213.5755      1256.6492      1220.4445      1163.6328     -226.97374      96.629377     -176.86081      17.685861      17.689967      17.688286      5533.9979    
       125   0             -2181.4027      1213.5645      1256.6413      1220.4329      1163.6194     -226.97276      96.62742      -176.85943      17.685861      17.689967      17.688286      5533.9979    
       126   0             -2181.4027      1213.5654      1256.6431      1220.4351      1163.618      -226.97277      96.626432     -176.86037      17.685861      17.689967      17.688286      5533.9979    
       127   0             -2181.4027      1213.567       1256.644       1220.438       1163.6191     -226.9728       96.62687      -176.86112      17.685861      17.689967      17.688286      5533.9979    
       128   0             -2181.4027      1213.5685      1256.6449      1220.4399      1163.6207     -226.97213      96.627042     -176.86086      17.685861      17.689967      17.688286      5533.9979    
       129   0             -2181.4027      1213.5671      1256.6435      1220.4381      1163.6197     -226.97181      96.627113     -176.8611       17.685861      17.689967      17.688286      5533.9979    
       130   0             -2181.4027      1213.5669      1256.6437      1220.4374      1163.6196     -226.97185      96.627241     -176.86109      17.685861      17.689967      17.688286      5533.9979    
       131   0             -2181.4027      1213.5673      1256.6441      1220.4374      1163.6202     -226.97205      96.62734      -176.86101      17.685861      17.689967      17.688286      5533.9979    
       132   0             -2181.4027      1213.5673      1256.644       1220.4376      1163.6204     -226.97209      96.627287     -176.86097      17.685861      17.689967      17.688286      5533.9979    
       133   0             -2181.4027      1213.5672      1256.6437      1220.4375      1163.6202     -226.972        96.627091     -176.86104      17.685861      17.689967      17.688286      5533.9979    
       134   0             -2181.4027      1213.5671      1256.6437      1220.4376      1163.6201     -226.97211      96.627105     -176.86117      17.685861      17.689967      17.688286      5533.9979    
       135   0             -2181.4027      1213.5673      1256.6438      1220.4378      1163.6202     -226.97216      96.627147     -176.86117      17.685861      17.689967      17.688286      5533.9979    
       136   0             -2181.4027      1213.5673      1256.6439      1220.4378      1163.6203     -226.97214      96.627131     -176.86114      17.685861      17.689967      17.688286      5533.9979    
       137   0             -2181.4027      1213.5673      1256.6439      1220.4378      1163.6203     -226.97213      96.627114     -176.86112      17.685861      17.689967      17.688286      5533.9979    
       138   0             -2181.4027      1213.5673      1256.6439      1220.4379      1163.6203     -226.97212      96.627135     -176.86112      17.685861      17.689967      17.688286      5533.9979    
       139   0             -2181.4027      1213.5673      1256.6439      1220.4379      1163.6202     -226.97213      96.627139     -176.86112      17.685861      17.689967      17.688286      5533.9979    
       140   0             -2181.4027      1213.5673      1256.6439      1220.4379      1163.6202     -226.97213      96.627139     -176.86112      17.685861      17.689967      17.688286      5533.9979    
       141   0             -2181.4027      1213.5673      1256.6439      1220.4378      1163.6202     -226.97213      96.627141     -176.86112      17.685861      17.689967      17.688286      5533.9979    
       142   0             -2181.4027      1213.5673      1256.6439      1220.4378      1163.6202     -226.97213      96.627138     -176.86112      17.685861      17.689967      17.688286      5533.9979    
       143   0             -2181.4027      1213.5673      1256.6439      1220.4379      1163.6202     -226.97213      96.627136     -176.86112      17.685861      17.689967      17.688286      5533.9979    
       144   0             -2181.4027      1213.5673      1256.6439      1220.4379      1163.6202     -226.97213      96.627135     -176.86112      17.685861      17.689967      17.688286      5533.9979    
       145   0             -2181.4027      1213.5673      1256.6439      1220.4379      1163.6202     -226.97213      96.627136     -176.86112      17.685861      17.689967      17.688286      5533.9979    
       146   0             -2181.4027      1213.5673      1256.6439      1220.4379      1163.6202     -226.97213      96.627137     -176.86112      17.685861      17.689967      17.688286      5533.9979    
       147   0             -2181.4027      1213.5673      1256.6439      1220.4379      1163.6202     -226.97213      96.627137     -176.86112      17.685861      17.689967      17.688286      5533.9979    
       148   0             -2181.4027      1213.5673      1256.6439      1220.4379      1163.6202     -226.97213      96.627137     -176.86112      17.685861      17.689967      17.688286      5533.9979    
       149   0             -2181.4027      1213.5673      1256.6439      1220.4379      1163.6202     -226.97213      96.627137     -176.86112      17.685861      17.689967      17.688286      5533.9979    
       150   0             -2181.4027      1213.5673      1256.6439      1220.4379      1163.6202     -226.97213      96.627137     -176.86112      17.685861      17.689967      17.688286      5533.9979    
       151   0             -2181.4027      1213.5673      1256.6439      1220.4379      1163.6202     -226.97213      96.627137     -176.86112      17.685861      17.689967      17.688286      5533.9979    
       152   0             -2181.4027      1213.5673      1256.6439      1220.4379      1163.6202     -226.97213      96.627137     -176.86112      17.685861      17.689967      17.688286      5533.9979    
       153   0             -2181.4027      1213.5673      1256.6439      1220.4379      1163.6202     -226.97213      96.627137     -176.86112      17.685861      17.689967      17.688286      5533.9979    
       154   0             -2181.4027      1213.5673      1256.6439      1220.4379      1163.6202     -226.97213      96.627137     -176.86112      17.685861      17.689967      17.688286      5533.9979    
       155   0             -2181.4027      1213.5673      1256.6439      1220.4379      1163.6202     -226.97213      96.627137     -176.86112      17.685861      17.689967      17.688286      5533.9979    
       156   0             -2181.4027      1213.5673      1256.6439      1220.4379      1163.6202     -226.97213      96.627137     -176.86112      17.685861      17.689967      17.688286      5533.9979    
       157   0             -2181.4027      1213.5673      1256.6439      1220.4379      1163.6202     -226.97213      96.627137     -176.86112      17.685861      17.689967      17.688286      5533.9979    
       158   0             -2181.4027      1213.5673      1256.6439      1220.4379      1163.6202     -226.97213      96.627137     -176.86112      17.685861      17.689967      17.688286      5533.9979    
       159   0             -2181.4027      1213.5673      1256.6439      1220.4379      1163.6202     -226.97213      96.627137     -176.86112      17.685861      17.689967      17.688286      5533.9979    
       160   0             -2181.4027      1213.5673      1256.6439      1220.4379      1163.6202     -226.97213      96.627137     -176.86112      17.685861      17.689967      17.688286      5533.9979    
Loop time of 0.140749 on 1 procs for 60 steps with 500 atoms

99.9% CPU use with 1 MPI tasks x 1 OpenMP threads

Minimization stats:
  Stopping criterion = force tolerance
  Energy initial, next-to-last, final = 
     -2181.13369895441  -2181.40273768283  -2181.40273768283
  Force two-norm initial, final = 2.1830618 6.8887914e-11
  Force max component initial, final = 0.20817293 7.3329953e-12
  Final line search alpha, max atom move = 1 7.3329953e-12
  Iterations, force evaluations = 60 118

MPI task timing breakdown:
Section |  min time  |  avg time  |  max time  |%varavg| %total
---------------------------------------------------------------
Pair    | 0.13817    | 0.13817    | 0.13817    |   0.0 | 98.17
Neigh   | 0          | 0          | 0          |   0.0 |  0.00
Comm    | 0.000704   | 0.000704   | 0.000704   |   0.0 |  0.50
Output  | 0.000907   | 0.000907   | 0.000907   |   0.0 |  0.64
Modify  | 0          | 0          | 0          |   0.0 |  0.00
Other   |            | 0.000965   |            |       |  0.69

Nlocal:            500 ave         500 max         500 min
Histogram: 1 0 0 0 0 0 0 0 0 0
Nghost:           1956 ave        1956 max        1956 min
Histogram: 1 0 0 0 0 0 0 0 0 0
Neighs:          33500 ave       33500 max       33500 min
Histogram: 1 0 0 0 0 0 0 0 0 0

Total # of neighbors = 33500
Ave neighs/atom = 67
Neighbor list builds = 0
Dangerous builds = 0
OMP_NUM_THREADS environment is not set. Defaulting to 1 thread. (src/comm.cpp:98)
  using 1 OpenMP thread(s) per MPI task
Loaded 1 plugins from F:\Lammps\LAMMPS 64-bit 2Aug2023\plugins

The 'box' command has been removed and will be ignored

Reading restart file ...
  restart file = 2 Aug 2023, LAMMPS = 2 Aug 2023
  restoring atom style atomic from restart
  triclinic box = (0.052060682 0.050016416 0.050856895) to (17.737939 17.739984 17.739143) with tilt (0 0 0)
  1 by 1 by 1 MPI processor grid
  pair style eam/alloy stores no restart info
  500 atoms
  read_restart CPU = 0.000 seconds
Changing box ...
  triclinic box = (0.052060682 0.050016416 0.050856895) to (17.737957 17.739984 17.739143) with tilt (0 0 0)
  triclinic box = (0.052060682 0.050016416 0.050856895) to (17.737957 17.739984 17.739143) with tilt (0 0 0)
  triclinic box = (0.052060682 0.050016416 0.050856895) to (17.737957 17.739984 17.739143) with tilt (0 0 0)
Neighbor list info ...
  update: every = 1 steps, delay = 0 steps, check = yes
  max neighbors/atom: 2000, page size: 100000
  master list distance cutoff = 6.80375
  ghost atom cutoff = 6.80375
  1 neighbor lists, perpetual/occasional/extra = 1 0 0
  (1) pair eam/alloy, perpetual
      attributes: half, newton on
      pair build: half/nsq/newton
      stencil: none
      bin: none
Setting up cg style minimization ...
  Unit style    : metal
  Current step  : 100
Per MPI rank memory allocation (min/avg/max) = 4.483 | 4.483 | 4.483 Mbytes
   Step          Temp          PotEng         Press           Pxx            Pyy            Pzz            Pxy            Pxz            Pyz             Lx             Ly             Lz           Volume    
       100   0             -2181.1337     -335.50037     -335.9396      -335.9374      -334.62411     -68.171382      75.478402     -57.418427      17.685896      17.689967      17.688286      5534.009     
       101   0             -2181.3025      474.74285      480.43238      486.52464      457.27152     -148.09331      77.696149     -110.92881      17.685896      17.689967      17.688286      5534.009     
       102   0             -2181.3741      1066.1261      1085.7359      1087.2724      1025.3702     -207.9905       92.315072     -164.62138      17.685896      17.689967      17.688286      5534.009     
       103   0             -2181.3968      1145.1508      1177.5631      1168.9004      1088.9889     -205.47221      105.84386     -178.66342      17.685896      17.689967      17.688286      5534.009     
       104   0             -2181.4003      1266.4396      1298.7225      1287.9932      1212.6031     -227.48478      99.305308     -179.06308      17.685896      17.689967      17.688286      5534.009     
       105   0             -2181.402       1192.2068      1230.2636      1204.911       1141.446      -229.08006      100.34311     -177.26436      17.685896      17.689967      17.688286      5534.009     
       106   0             -2181.4024      1190.9513      1229.9855      1201.784       1141.0846     -228.15186      98.440002     -175.00555      17.685896      17.689967      17.688286      5534.009     
       107   0             -2181.4026      1210.797       1251.566       1219.5521      1161.273      -227.95243      97.408582     -176.34001      17.685896      17.689967      17.688286      5534.009     
       108   0             -2181.4027      1212.9058      1254.8771      1220.4292      1163.411      -227.02541      97.614105     -177.81837      17.685896      17.689967      17.688286      5534.009     
       109   0             -2181.4027      1210.1174      1252.3271      1217.0634      1160.9617     -226.58554      97.036939     -177.12376      17.685896      17.689967      17.688286      5534.009     
       110   0             -2181.4027      1207.0069      1249.0721      1213.8836      1158.065      -226.41834      96.708509     -176.91527      17.685896      17.689967      17.688286      5534.009     
       111   0             -2181.4027      1210.0092      1251.7966      1217.2235      1161.0075     -226.74167      96.604616     -177.08827      17.685896      17.689967      17.688286      5534.009     
       112   0             -2181.4027      1211.2233      1252.7881      1218.6244      1162.2575     -226.93646      96.730319     -177.06486      17.685896      17.689967      17.688286      5534.009     
       113   0             -2181.4027      1210.3669      1251.7458      1217.8213      1161.5335     -226.94323      96.741389     -176.77592      17.685896      17.689967      17.688286      5534.009     
       114   0             -2181.4027      1209.7825      1251.3432      1217.2956      1160.7085     -226.97983      96.697268     -176.7135       17.685896      17.689967      17.688286      5534.009     
       115   0             -2181.4027      1209.9641      1251.7419      1217.4539      1160.6965     -227.03616      96.699417     -176.76351      17.685896      17.689967      17.688286      5534.009     
       116   0             -2181.4027      1210.0102      1251.856       1217.5156      1160.6589     -226.9608       96.632759     -176.8559       17.685896      17.689967      17.688286      5534.009     
       117   0             -2181.4027      1209.7953      1251.6535      1217.2977      1160.4347     -226.94714      96.586186     -176.8542       17.685896      17.689967      17.688286      5534.009     
       118   0             -2181.4027      1209.7302      1251.5974      1217.1909      1160.4021     -226.967        96.580225     -176.85185      17.685896      17.689967      17.688286      5534.009     
       119   0             -2181.4027      1209.8393      1251.6918      1217.3006      1160.5254     -226.95869      96.601304     -176.86286      17.685896      17.689967      17.688286      5534.009     
       120   0             -2181.4027      1209.8847      1251.7429      1217.3551      1160.5561     -226.95581      96.595713     -176.86338      17.685896      17.689967      17.688286      5534.009     
       121   0             -2181.4027      1209.8783      1251.7346      1217.3573      1160.5428     -226.95446      96.604584     -176.86158      17.685896      17.689967      17.688286      5534.009     
       122   0             -2181.4027      1209.8741      1251.7251      1217.3549      1160.5424     -226.95803      96.619051     -176.86085      17.685896      17.689967      17.688286      5534.009     
       123   0             -2181.4027      1209.8876      1251.7383      1217.3649      1160.5597     -226.96601      96.624055     -176.86211      17.685896      17.689967      17.688286      5534.009     
       124   0             -2181.4027      1209.8863      1251.7366      1217.3624      1160.5598     -226.96995      96.624235     -176.86052      17.685896      17.689967      17.688286      5534.009     
       125   0             -2181.4027      1209.8753      1251.7286      1217.3509      1160.5465     -226.96898      96.62228      -176.85915      17.685896      17.689967      17.688286      5534.009     
       126   0             -2181.4027      1209.8762      1251.7305      1217.3531      1160.5451     -226.96898      96.621293     -176.86008      17.685896      17.689967      17.688286      5534.009     
       127   0             -2181.4027      1209.8778      1251.7314      1217.356       1160.5462     -226.96902      96.62173      -176.86084      17.685896      17.689967      17.688286      5534.009     
       128   0             -2181.4027      1209.8793      1251.7323      1217.3578      1160.5477     -226.96835      96.621902     -176.86058      17.685896      17.689967      17.688286      5534.009     
       129   0             -2181.4027      1209.8779      1251.7309      1217.3561      1160.5468     -226.96802      96.621973     -176.86081      17.685896      17.689967      17.688286      5534.009     
       130   0             -2181.4027      1209.8777      1251.7311      1217.3554      1160.5467     -226.96807      96.622101     -176.8608       17.685896      17.689967      17.688286      5534.009     
       131   0             -2181.4027      1209.8781      1251.7315      1217.3554      1160.5473     -226.96827      96.6222       -176.86073      17.685896      17.689967      17.688286      5534.009     
       132   0             -2181.4027      1209.8781      1251.7314      1217.3555      1160.5474     -226.96831      96.622147     -176.86068      17.685896      17.689967      17.688286      5534.009     
       133   0             -2181.4027      1209.878       1251.7311      1217.3555      1160.5472     -226.96822      96.621951     -176.86075      17.685896      17.689967      17.688286      5534.009     
       134   0             -2181.4027      1209.8779      1251.7311      1217.3555      1160.5472     -226.96833      96.621965     -176.86088      17.685896      17.689967      17.688286      5534.009     
       135   0             -2181.4027      1209.8781      1251.7312      1217.3557      1160.5473     -226.96838      96.622007     -176.86088      17.685896      17.689967      17.688286      5534.009     
       136   0             -2181.4027      1209.8782      1251.7313      1217.3558      1160.5474     -226.96836      96.621991     -176.86086      17.685896      17.689967      17.688286      5534.009     
       137   0             -2181.4027      1209.8781      1251.7313      1217.3558      1160.5473     -226.96834      96.621974     -176.86084      17.685896      17.689967      17.688286      5534.009     
       138   0             -2181.4027      1209.8781      1251.7313      1217.3558      1160.5473     -226.96834      96.621995     -176.86084      17.685896      17.689967      17.688286      5534.009     
       139   0             -2181.4027      1209.8781      1251.7313      1217.3558      1160.5473     -226.96834      96.621999     -176.86084      17.685896      17.689967      17.688286      5534.009     
       140   0             -2181.4027      1209.8781      1251.7313      1217.3558      1160.5473     -226.96835      96.621999     -176.86083      17.685896      17.689967      17.688286      5534.009     
       141   0             -2181.4027      1209.8781      1251.7313      1217.3558      1160.5473     -226.96834      96.622002     -176.86083      17.685896      17.689967      17.688286      5534.009     
       142   0             -2181.4027      1209.8781      1251.7313      1217.3558      1160.5473     -226.96834      96.621998     -176.86083      17.685896      17.689967      17.688286      5534.009     
       143   0             -2181.4027      1209.8781      1251.7313      1217.3558      1160.5473     -226.96834      96.621996     -176.86083      17.685896      17.689967      17.688286      5534.009     
       144   0             -2181.4027      1209.8781      1251.7313      1217.3558      1160.5473     -226.96834      96.621995     -176.86083      17.685896      17.689967      17.688286      5534.009     
       145   0             -2181.4027      1209.8781      1251.7313      1217.3558      1160.5473     -226.96834      96.621996     -176.86083      17.685896      17.689967      17.688286      5534.009     
       146   0             -2181.4027      1209.8781      1251.7313      1217.3558      1160.5473     -226.96834      96.621997     -176.86083      17.685896      17.689967      17.688286      5534.009     
       147   0             -2181.4027      1209.8781      1251.7313      1217.3558      1160.5473     -226.96834      96.621997     -176.86083      17.685896      17.689967      17.688286      5534.009     
       148   0             -2181.4027      1209.8781      1251.7313      1217.3558      1160.5473     -226.96834      96.621997     -176.86083      17.685896      17.689967      17.688286      5534.009     
       149   0             -2181.4027      1209.8781      1251.7313      1217.3558      1160.5473     -226.96834      96.621997     -176.86083      17.685896      17.689967      17.688286      5534.009     
       150   0             -2181.4027      1209.8781      1251.7313      1217.3558      1160.5473     -226.96834      96.621997     -176.86083      17.685896      17.689967      17.688286      5534.009     
       151   0             -2181.4027      1209.8781      1251.7313      1217.3558      1160.5473     -226.96834      96.621997     -176.86083      17.685896      17.689967      17.688286      5534.009     
       152   0             -2181.4027      1209.8781      1251.7313      1217.3558      1160.5473     -226.96834      96.621997     -176.86083      17.685896      17.689967      17.688286      5534.009     
       153   0             -2181.4027      1209.8781      1251.7313      1217.3558      1160.5473     -226.96834      96.621997     -176.86083      17.685896      17.689967      17.688286      5534.009     
       154   0             -2181.4027      1209.8781      1251.7313      1217.3558      1160.5473     -226.96834      96.621997     -176.86083      17.685896      17.689967      17.688286      5534.009     
       155   0             -2181.4027      1209.8781      1251.7313      1217.3558      1160.5473     -226.96834      96.621997     -176.86083      17.685896      17.689967      17.688286      5534.009     
       156   0             -2181.4027      1209.8781      1251.7313      1217.3558      1160.5473     -226.96834      96.621997     -176.86083      17.685896      17.689967      17.688286      5534.009     
       157   0             -2181.4027      1209.8781      1251.7313      1217.3558      1160.5473     -226.96834      96.621997     -176.86083      17.685896      17.689967      17.688286      5534.009     
       158   0             -2181.4027      1209.8781      1251.7313      1217.3558      1160.5473     -226.96834      96.621997     -176.86083      17.685896      17.689967      17.688286      5534.009     
       159   0             -2181.4027      1209.8781      1251.7313      1217.3558      1160.5473     -226.96834      96.621997     -176.86083      17.685896      17.689967      17.688286      5534.009     
       160   0             -2181.4027      1209.8781      1251.7313      1217.3558      1160.5473     -226.96834      96.621997     -176.86083      17.685896      17.689967      17.688286      5534.009     
Loop time of 0.144149 on 1 procs for 60 steps with 500 atoms

108.4% CPU use with 1 MPI tasks x 1 OpenMP threads

Minimization stats:
  Stopping criterion = force tolerance
  Energy initial, next-to-last, final = 
     -2181.13369665085   -2181.4027463469  -2181.40274634688
  Force two-norm initial, final = 2.1831121 6.8886275e-11
  Force max component initial, final = 0.20817832 7.3499332e-12
  Final line search alpha, max atom move = 1 7.3499332e-12
  Iterations, force evaluations = 60 118

MPI task timing breakdown:
Section |  min time  |  avg time  |  max time  |%varavg| %total
---------------------------------------------------------------
Pair    | 0.14149    | 0.14149    | 0.14149    |   0.0 | 98.15
Neigh   | 0          | 0          | 0          |   0.0 |  0.00
Comm    | 0.000722   | 0.000722   | 0.000722   |   0.0 |  0.50
Output  | 0.000948   | 0.000948   | 0.000948   |   0.0 |  0.66
Modify  | 0          | 0          | 0          |   0.0 |  0.00
Other   |            | 0.00099    |            |       |  0.69

Nlocal:            500 ave         500 max         500 min
Histogram: 1 0 0 0 0 0 0 0 0 0
Nghost:           1956 ave        1956 max        1956 min
Histogram: 1 0 0 0 0 0 0 0 0 0
Neighs:          33500 ave       33500 max       33500 min
Histogram: 1 0 0 0 0 0 0 0 0 0

Total # of neighbors = 33500
Ave neighs/atom = 67
Neighbor list builds = 0
Dangerous builds = 0
OMP_NUM_THREADS environment is not set. Defaulting to 1 thread. (src/comm.cpp:98)
  using 1 OpenMP thread(s) per MPI task
Loaded 1 plugins from F:\Lammps\LAMMPS 64-bit 2Aug2023\plugins

The 'box' command has been removed and will be ignored

Reading restart file ...
  restart file = 2 Aug 2023, LAMMPS = 2 Aug 2023
  restoring atom style atomic from restart
  triclinic box = (0.052060682 0.050016416 0.050856895) to (17.737939 17.739984 17.739143) with tilt (0 0 0)
  1 by 1 by 1 MPI processor grid
  pair style eam/alloy stores no restart info
  500 atoms
  read_restart CPU = 0.000 seconds
Changing box ...
  triclinic box = (0.052060682 0.050016416 0.050856895) to (17.737939 17.739966 17.739143) with tilt (0 0 0)
  triclinic box = (0.052060682 0.050016416 0.050856895) to (17.737939 17.739966 17.739143) with tilt (0 0 0)
Neighbor list info ...
  update: every = 1 steps, delay = 0 steps, check = yes
  max neighbors/atom: 2000, page size: 100000
  master list distance cutoff = 6.80375
  ghost atom cutoff = 6.80375
  1 neighbor lists, perpetual/occasional/extra = 1 0 0
  (1) pair eam/alloy, perpetual
      attributes: half, newton on
      pair build: half/nsq/newton
      stencil: none
      bin: none
Setting up cg style minimization ...
  Unit style    : metal
  Current step  : 100
Per MPI rank memory allocation (min/avg/max) = 4.483 | 4.483 | 4.483 Mbytes
   Step          Temp          PotEng         Press           Pxx            Pyy            Pzz            Pxy            Pxz            Pyz             Lx             Ly             Lz           Volume    
       100   0             -2181.1337     -331.75234     -331.88685     -331.87581     -331.49436     -68.176467      75.477405     -57.425563      17.685879      17.689949      17.688286      5533.9979    
       101   0             -2181.3025      478.47679      484.47301      490.5687       460.38864     -148.10056      77.696519     -110.93664      17.685879      17.689949      17.688286      5533.9979    
       102   0             -2181.3741      1069.8456      1089.7661      1091.2995      1028.4713     -207.99866      92.317887     -164.62918      17.685879      17.689949      17.688286      5533.9979    
       103   0             -2181.3968      1148.8101      1181.5321      1172.8645      1092.0337     -205.47258      105.84451     -178.66385      17.685879      17.689949      17.688286      5533.9979    
       104   0             -2181.4003      1270.1166      1302.7111      1291.9749      1215.6639     -227.48869      99.307798     -179.06702      17.685879      17.689949      17.688286      5533.9979    
       105   0             -2181.402       1195.9049      1234.2728      1208.9137      1144.5282     -229.08497      100.34606     -177.2695       17.685879      17.689949      17.688286      5533.9979    
       106   0             -2181.4024      1194.6383      1233.9832      1205.7757      1144.156      -228.1564       98.441877     -175.00984      17.685879      17.689949      17.688286      5533.9979    
       107   0             -2181.4026      1214.4811      1255.5608      1223.541       1164.3416     -227.95608      97.410533     -176.34363      17.685879      17.689949      17.688286      5533.9979    
       108   0             -2181.4027      1216.5922      1258.8743      1224.4204      1166.4818     -227.02916      97.616261     -177.82235      17.685879      17.689949      17.688286      5533.9979    
       109   0             -2181.4027      1213.8063      1256.3267      1221.0572      1164.035      -226.58998      97.039266     -177.12797      17.685879      17.689949      17.688286      5533.9979    
       110   0             -2181.4027      1210.694       1253.0699      1217.8754      1161.1366     -226.42239      96.71072      -176.91934      17.685879      17.689949      17.688286      5533.9979    
       111   0             -2181.4027      1213.695       1255.7929      1221.2141      1164.0779     -226.74551      96.606656     -177.09213      17.685879      17.689949      17.688286      5533.9979    
       112   0             -2181.4027      1214.9104      1256.7858      1222.6162      1165.3291     -226.94047      96.732525     -177.06887      17.685879      17.689949      17.688286      5533.9979    
       113   0             -2181.4027      1214.054       1255.7436      1221.8132      1164.6053     -226.94735      96.743588     -176.77995      17.685879      17.689949      17.688286      5533.9979    
       114   0             -2181.4027      1213.4691      1255.3405      1221.287       1163.7798     -226.9838       96.699428     -176.71747      17.685879      17.689949      17.688286      5533.9979    
       115   0             -2181.4027      1213.6506      1255.739       1221.4452      1163.7676     -227.0401       96.701553     -176.76749      17.685879      17.689949      17.688286      5533.9979    
       116   0             -2181.4027      1213.697       1255.8534      1221.5072      1163.7303     -226.9648       96.634933     -176.85988      17.685879      17.689949      17.688286      5533.9979    
       117   0             -2181.4027      1213.4822      1255.6509      1221.2894      1163.5062     -226.95115      96.588365     -176.85819      17.685879      17.689949      17.688286      5533.9979    
       118   0             -2181.4027      1213.4169      1255.5947      1221.1824      1163.4734     -226.97098      96.582384     -176.85583      17.685879      17.689949      17.688286      5533.9979    
       119   0             -2181.4027      1213.526       1255.6891      1221.2921      1163.5968     -226.96267      96.603473     -176.86684      17.685879      17.689949      17.688286      5533.9979    
       120   0             -2181.4027      1213.5714      1255.7402      1221.3466      1163.6275     -226.9598       96.597886     -176.86736      17.685879      17.689949      17.688286      5533.9979    
       121   0             -2181.4027      1213.565       1255.732       1221.3489      1163.6142     -226.95845      96.606758     -176.86557      17.685879      17.689949      17.688286      5533.9979    
       122   0             -2181.4027      1213.5609      1255.7225      1221.3465      1163.6138     -226.96201      96.621219     -176.86483      17.685879      17.689949      17.688286      5533.9979    
       123   0             -2181.4027      1213.5744      1255.7356      1221.3564      1163.6311     -226.96999      96.626226     -176.8661       17.685879      17.689949      17.688286      5533.9979    
       124   0             -2181.4027      1213.573       1255.7339      1221.354       1163.6312     -226.97394      96.626408     -176.86451      17.685879      17.689949      17.688286      5533.9979    
       125   0             -2181.4027      1213.5621      1255.726       1221.3424      1163.6179     -226.97296      96.624451     -176.86313      17.685879      17.689949      17.688286      5533.9979    
       126   0             -2181.4027      1213.563       1255.7279      1221.3446      1163.6165     -226.97297      96.623464     -176.86407      17.685879      17.689949      17.688286      5533.9979    
       127   0             -2181.4027      1213.5646      1255.7288      1221.3475      1163.6175     -226.973        96.623901     -176.86482      17.685879      17.689949      17.688286      5533.9979    
       128   0             -2181.4027      1213.566       1255.7297      1221.3493      1163.6191     -226.97233      96.624073     -176.86456      17.685879      17.689949      17.688286      5533.9979    
       129   0             -2181.4027      1213.5647      1255.7282      1221.3476      1163.6182     -226.97201      96.624145     -176.8648       17.685879      17.689949      17.688286      5533.9979    
       130   0             -2181.4027      1213.5645      1255.7284      1221.3469      1163.6181     -226.97205      96.624273     -176.86479      17.685879      17.689949      17.688286      5533.9979    
       131   0             -2181.4027      1213.5648      1255.7288      1221.3469      1163.6187     -226.97225      96.624371     -176.86471      17.685879      17.689949      17.688286      5533.9979    
       132   0             -2181.4027      1213.5649      1255.7288      1221.3471      1163.6188     -226.97229      96.624318     -176.86467      17.685879      17.689949      17.688286      5533.9979    
       133   0             -2181.4027      1213.5647      1255.7285      1221.347       1163.6186     -226.97221      96.624122     -176.86474      17.685879      17.689949      17.688286      5533.9979    
       134   0             -2181.4027      1213.5647      1255.7284      1221.3471      1163.6185     -226.97231      96.624137     -176.86487      17.685879      17.689949      17.688286      5533.9979    
       135   0             -2181.4027      1213.5648      1255.7286      1221.3473      1163.6187     -226.97237      96.624179     -176.86487      17.685879      17.689949      17.688286      5533.9979    
       136   0             -2181.4027      1213.5649      1255.7287      1221.3473      1163.6187     -226.97235      96.624162     -176.86484      17.685879      17.689949      17.688286      5533.9979    
       137   0             -2181.4027      1213.5649      1255.7287      1221.3473      1163.6187     -226.97233      96.624145     -176.86482      17.685879      17.689949      17.688286      5533.9979    
       138   0             -2181.4027      1213.5649      1255.7287      1221.3473      1163.6187     -226.97232      96.624166     -176.86482      17.685879      17.689949      17.688286      5533.9979    
       139   0             -2181.4027      1213.5649      1255.7286      1221.3474      1163.6187     -226.97233      96.62417      -176.86482      17.685879      17.689949      17.688286      5533.9979    
       140   0             -2181.4027      1213.5649      1255.7286      1221.3473      1163.6187     -226.97233      96.62417      -176.86482      17.685879      17.689949      17.688286      5533.9979    
       141   0             -2181.4027      1213.5649      1255.7286      1221.3473      1163.6187     -226.97233      96.624173     -176.86482      17.685879      17.689949      17.688286      5533.9979    
       142   0             -2181.4027      1213.5649      1255.7286      1221.3473      1163.6187     -226.97233      96.62417      -176.86482      17.685879      17.689949      17.688286      5533.9979    
       143   0             -2181.4027      1213.5649      1255.7286      1221.3473      1163.6187     -226.97233      96.624167     -176.86482      17.685879      17.689949      17.688286      5533.9979    
       144   0             -2181.4027      1213.5649      1255.7286      1221.3473      1163.6187     -226.97233      96.624167     -176.86482      17.685879      17.689949      17.688286      5533.9979    
       145   0             -2181.4027      1213.5649      1255.7286      1221.3473      1163.6187     -226.97233      96.624168     -176.86482      17.685879      17.689949      17.688286      5533.9979    
       146   0             -2181.4027      1213.5649      1255.7286      1221.3473      1163.6187     -226.97233      96.624168     -176.86482      17.685879      17.689949      17.688286      5533.9979    
       147   0             -2181.4027      1213.5649      1255.7286      1221.3473      1163.6187     -226.97233      96.624168     -176.86482      17.685879      17.689949      17.688286      5533.9979    
       148   0             -2181.4027      1213.5649      1255.7286      1221.3473      1163.6187     -226.97233      96.624168     -176.86482      17.685879      17.689949      17.688286      5533.9979    
       149   0             -2181.4027      1213.5649      1255.7286      1221.3473      1163.6187     -226.97233      96.624168     -176.86482      17.685879      17.689949      17.688286      5533.9979    
       150   0             -2181.4027      1213.5649      1255.7286      1221.3473      1163.6187     -226.97233      96.624168     -176.86482      17.685879      17.689949      17.688286      5533.9979    
       151   0             -2181.4027      1213.5649      1255.7286      1221.3473      1163.6187     -226.97233      96.624168     -176.86482      17.685879      17.689949      17.688286      5533.9979    
       152   0             -2181.4027      1213.5649      1255.7286      1221.3473      1163.6187     -226.97233      96.624168     -176.86482      17.685879      17.689949      17.688286      5533.9979    
       153   0             -2181.4027      1213.5649      1255.7286      1221.3473      1163.6187     -226.97233      96.624168     -176.86482      17.685879      17.689949      17.688286      5533.9979    
       154   0             -2181.4027      1213.5649      1255.7286      1221.3473      1163.6187     -226.97233      96.624168     -176.86482      17.685879      17.689949      17.688286      5533.9979    
       155   0             -2181.4027      1213.5649      1255.7286      1221.3473      1163.6187     -226.97233      96.624168     -176.86482      17.685879      17.689949      17.688286      5533.9979    
       156   0             -2181.4027      1213.5649      1255.7286      1221.3473      1163.6187     -226.97233      96.624168     -176.86482      17.685879      17.689949      17.688286      5533.9979    
       157   0             -2181.4027      1213.5649      1255.7286      1221.3473      1163.6187     -226.97233      96.624168     -176.86482      17.685879      17.689949      17.688286      5533.9979    
       158   0             -2181.4027      1213.5649      1255.7286      1221.3473      1163.6187     -226.97233      96.624168     -176.86482      17.685879      17.689949      17.688286      5533.9979    
       159   0             -2181.4027      1213.5649      1255.7286      1221.3473      1163.6187     -226.97233      96.624168     -176.86482      17.685879      17.689949      17.688286      5533.9979    
       160   0             -2181.4027      1213.5649      1255.7286      1221.3473      1163.6187     -226.97233      96.624168     -176.86482      17.685879      17.689949      17.688286      5533.9979    
Loop time of 0.140343 on 1 procs for 60 steps with 500 atoms

100.2% CPU use with 1 MPI tasks x 1 OpenMP threads

Minimization stats:
  Stopping criterion = force tolerance
  Energy initial, next-to-last, final = 
     -2181.13369895754  -2181.40273780473  -2181.40273780473
  Force two-norm initial, final = 2.1830617 6.8886193e-11
  Force max component initial, final = 0.2081721 7.3434835e-12
  Final line search alpha, max atom move = 1 7.3434835e-12
  Iterations, force evaluations = 60 118

MPI task timing breakdown:
Section |  min time  |  avg time  |  max time  |%varavg| %total
---------------------------------------------------------------
Pair    | 0.13772    | 0.13772    | 0.13772    |   0.0 | 98.13
Neigh   | 0          | 0          | 0          |   0.0 |  0.00
Comm    | 0.000708   | 0.000708   | 0.000708   |   0.0 |  0.50
Output  | 0.000936   | 0.000936   | 0.000936   |   0.0 |  0.67
Modify  | 0          | 0          | 0          |   0.0 |  0.00
Other   |            | 0.000974   |            |       |  0.69

Nlocal:            500 ave         500 max         500 min
Histogram: 1 0 0 0 0 0 0 0 0 0
Nghost:           1956 ave        1956 max        1956 min
Histogram: 1 0 0 0 0 0 0 0 0 0
Neighs:          33500 ave       33500 max       33500 min
Histogram: 1 0 0 0 0 0 0 0 0 0

Total # of neighbors = 33500
Ave neighs/atom = 67
Neighbor list builds = 0
Dangerous builds = 0
OMP_NUM_THREADS environment is not set. Defaulting to 1 thread. (src/comm.cpp:98)
  using 1 OpenMP thread(s) per MPI task
Loaded 1 plugins from F:\Lammps\LAMMPS 64-bit 2Aug2023\plugins

The 'box' command has been removed and will be ignored

Reading restart file ...
  restart file = 2 Aug 2023, LAMMPS = 2 Aug 2023
  restoring atom style atomic from restart
  triclinic box = (0.052060682 0.050016416 0.050856895) to (17.737939 17.739984 17.739143) with tilt (0 0 0)
  1 by 1 by 1 MPI processor grid
  pair style eam/alloy stores no restart info
  500 atoms
  read_restart CPU = 0.001 seconds
Changing box ...
  triclinic box = (0.052060682 0.050016416 0.050856895) to (17.737939 17.740001 17.739143) with tilt (0 0 0)
  triclinic box = (0.052060682 0.050016416 0.050856895) to (17.737939 17.740001 17.739143) with tilt (0 0 0)
Neighbor list info ...
  update: every = 1 steps, delay = 0 steps, check = yes
  max neighbors/atom: 2000, page size: 100000
  master list distance cutoff = 6.80375
  ghost atom cutoff = 6.80375
  1 neighbor lists, perpetual/occasional/extra = 1 0 0
  (1) pair eam/alloy, perpetual
      attributes: half, newton on
      pair build: half/nsq/newton
      stencil: none
      bin: none
Setting up cg style minimization ...
  Unit style    : metal
  Current step  : 100
Per MPI rank memory allocation (min/avg/max) = 4.483 | 4.483 | 4.483 Mbytes
   Step          Temp          PotEng         Press           Pxx            Pyy            Pzz            Pxy            Pxz            Pyz             Lx             Ly             Lz           Volume    
       100   0             -2181.1337     -335.50403     -335.02408     -336.86178     -334.62624     -68.170753      75.479941     -57.41639       17.685879      17.689985      17.688286      5534.009     
       101   0             -2181.3025      474.738        481.34243      485.6041       457.26749     -148.09259      77.698345     -110.92618      17.685879      17.689985      17.688286      5534.009     
       102   0             -2181.3741      1066.132       1086.6568      1086.3635      1025.3757     -207.9908       92.317957     -164.61868      17.685879      17.689985      17.688286      5534.009     
       103   0             -2181.3968      1145.1456      1178.4715      1167.9824      1088.9829     -205.47123      105.84696     -178.66024      17.685879      17.689985      17.688286      5534.009     
       104   0             -2181.4003      1266.4408      1299.6383      1287.0808      1212.6034     -227.48415      99.308599     -179.05982      17.685879      17.689985      17.688286      5534.009     
       105   0             -2181.402       1192.2109      1231.1812      1204.0023      1141.4492     -229.07999      100.34626     -177.26099      17.685879      17.689985      17.688286      5534.009     
       106   0             -2181.4024      1190.954       1230.9016      1200.874       1141.0864     -228.15173      98.443021     -175.00202      17.685879      17.689985      17.688286      5534.009     
       107   0             -2181.4026      1210.7988      1252.4812      1218.6415      1161.2738     -227.95219      97.411448     -176.33626      17.685879      17.689985      17.688286      5534.009     
       108   0             -2181.4027      1212.9083      1255.7929      1219.5195      1163.4126     -227.02524      97.617015     -177.8146       17.685879      17.689985      17.688286      5534.009     
       109   0             -2181.4027      1210.1202      1253.2431      1216.1541      1160.9636     -226.58542      97.039915     -177.12011      17.685879      17.689985      17.688286      5534.009     
       110   0             -2181.4027      1207.0093      1249.9875      1212.9739      1158.0665     -226.41814      96.711455     -176.91157      17.685879      17.689985      17.688286      5534.009     
       111   0             -2181.4027      1210.0115      1252.7118      1216.3137      1161.0089     -226.74143      96.607557     -177.08455      17.685879      17.689985      17.688286      5534.009     
       112   0             -2181.4027      1211.2258      1253.7035      1217.7149      1162.259      -226.93625      96.733275     -177.06116      17.685879      17.689985      17.688286      5534.009     
       113   0             -2181.4027      1210.3694      1252.6612      1216.9119      1161.5352     -226.94304      96.74437      -176.77221      17.685879      17.689985      17.688286      5534.009     
       114   0             -2181.4027      1209.7849      1252.2585      1216.3861      1160.7101     -226.97962      96.700227     -176.70979      17.685879      17.689985      17.688286      5534.009     
       115   0             -2181.4027      1209.9665      1252.6571      1216.5443      1160.698      -227.03594      96.70238      -176.75981      17.685879      17.689985      17.688286      5534.009     
       116   0             -2181.4027      1210.0126      1252.7713      1216.6061      1160.6605     -226.9606       96.635732     -176.85219      17.685879      17.689985      17.688286      5534.009     
       117   0             -2181.4027      1209.7978      1252.5688      1216.3883      1160.4363     -226.94694      96.589153     -176.8505       17.685879      17.689985      17.688286      5534.009     
       118   0             -2181.4027      1209.7326      1252.5127      1216.2814      1160.4036     -226.9668       96.583185     -176.84815      17.685879      17.689985      17.688286      5534.009     
       119   0             -2181.4027      1209.8417      1252.607       1216.3911      1160.527      -226.95849      96.604272     -176.85916      17.685879      17.689985      17.688286      5534.009     
       120   0             -2181.4027      1209.8871      1252.6581      1216.4456      1160.5577     -226.95561      96.598682     -176.85968      17.685879      17.689985      17.688286      5534.009     
       121   0             -2181.4027      1209.8807      1252.6499      1216.4479      1160.5444     -226.95426      96.607551     -176.85788      17.685879      17.689985      17.688286      5534.009     
       122   0             -2181.4027      1209.8766      1252.6404      1216.4454      1160.544      -226.95782      96.622019     -176.85715      17.685879      17.689985      17.688286      5534.009     
       123   0             -2181.4027      1209.8901      1252.6536      1216.4554      1160.5613     -226.9658       96.627024     -176.85841      17.685879      17.689985      17.688286      5534.009     
       124   0             -2181.4027      1209.8887      1252.6518      1216.4529      1160.5614     -226.96975      96.627204     -176.85682      17.685879      17.689985      17.688286      5534.009     
       125   0             -2181.4027      1209.8778      1252.6439      1216.4414      1160.548      -226.96877      96.625248     -176.85545      17.685879      17.689985      17.688286      5534.009     
       126   0             -2181.4027      1209.8787      1252.6458      1216.4436      1160.5467     -226.96878      96.624261     -176.85638      17.685879      17.689985      17.688286      5534.009     
       127   0             -2181.4027      1209.8803      1252.6467      1216.4465      1160.5477     -226.96881      96.624698     -176.85714      17.685879      17.689985      17.688286      5534.009     
       128   0             -2181.4027      1209.8817      1252.6476      1216.4483      1160.5493     -226.96814      96.62487      -176.85688      17.685879      17.689985      17.688286      5534.009     
       129   0             -2181.4027      1209.8804      1252.6461      1216.4466      1160.5484     -226.96782      96.624942     -176.85711      17.685879      17.689985      17.688286      5534.009     
       130   0             -2181.4027      1209.8802      1252.6463      1216.4459      1160.5483     -226.96786      96.62507      -176.8571       17.685879      17.689985      17.688286      5534.009     
       131   0             -2181.4027      1209.8805      1252.6467      1216.4459      1160.5489     -226.96806      96.625168     -176.85703      17.685879      17.689985      17.688286      5534.009     
       132   0             -2181.4027      1209.8806      1252.6467      1216.446       1160.549      -226.9681       96.625115     -176.85699      17.685879      17.689985      17.688286      5534.009     
       133   0             -2181.4027      1209.8804      1252.6464      1216.446       1160.5488     -226.96802      96.624919     -176.85705      17.685879      17.689985      17.688286      5534.009     
       134   0             -2181.4027      1209.8804      1252.6463      1216.446       1160.5487     -226.96812      96.624934     -176.85718      17.685879      17.689985      17.688286      5534.009     
       135   0             -2181.4027      1209.8805      1252.6465      1216.4463      1160.5489     -226.96818      96.624976     -176.85719      17.685879      17.689985      17.688286      5534.009     
       136   0             -2181.4027      1209.8806      1252.6466      1216.4463      1160.5489     -226.96816      96.624959     -176.85716      17.685879      17.689985      17.688286      5534.009     
[...]
       153   0             -2181.4027      1211.7217      1254.1861      1218.8947      1162.0844     -225.79307      96.626438     -176.86012      17.685879      17.689967      17.688286      5534.0034    
       154   0             -2181.4027      1211.7217      1254.1861      1218.8947      1162.0844     -225.79307      96.626438     -176.86012      17.685879      17.689967      17.688286      5534.0034    
       155   0             -2181.4027      1211.7217      1254.1861      1218.8947      1162.0844     -225.79307      96.626438     -176.86012      17.685879      17.689967      17.688286      5534.0034    
       156   0             -2181.4027      1211.7217      1254.1861      1218.8947      1162.0844     -225.79307      96.626438     -176.86012      17.685879      17.689967      17.688286      5534.0034    
       157   0             -2181.4027      1211.7217      1254.1861      1218.8947      1162.0844     -225.79307      96.626438     -176.86012      17.685879      17.689967      17.688286      5534.0034    
       158   0             -2181.4027      1211.7217      1254.1861      1218.8947      1162.0844     -225.79307      96.626438     -176.86012      17.685879      17.689967      17.688286      5534.0034    
       159   0             -2181.4027      1211.7217      1254.1861      1218.8947      1162.0844     -225.79307      96.626438     -176.86012      17.685879      17.689967      17.688286      5534.0034    
       160   0             -2181.4027      1211.7217      1254.1861      1218.8947      1162.0844     -225.79307      96.626438     -176.86012      17.685879      17.689967      17.688286      5534.0034    
Loop time of 0.142965 on 1 procs for 60 steps with 500 atoms

87.4% CPU use with 1 MPI tasks x 1 OpenMP threads

Minimization stats:
  Stopping criterion = force tolerance
  Energy initial, next-to-last, final = 
     -2181.13369804035  -2181.40274280106  -2181.40274280105
  Force two-norm initial, final = 2.1830895 6.890386e-11
  Force max component initial, final = 0.20817591 7.3423004e-12
  Final line search alpha, max atom move = 1 7.3423004e-12
  Iterations, force evaluations = 60 118

MPI task timing breakdown:
Section |  min time  |  avg time  |  max time  |%varavg| %total
---------------------------------------------------------------
Pair    | 0.14034    | 0.14034    | 0.14034    |   0.0 | 98.17
Neigh   | 0          | 0          | 0          |   0.0 |  0.00
Comm    | 0.000696   | 0.000696   | 0.000696   |   0.0 |  0.49
Output  | 0.000967   | 0.000967   | 0.000967   |   0.0 |  0.68
Modify  | 0          | 0          | 0          |   0.0 |  0.00
Other   |            | 0.000957   |            |       |  0.67

Nlocal:            500 ave         500 max         500 min
Histogram: 1 0 0 0 0 0 0 0 0 0
Nghost:           1956 ave        1956 max        1956 min
Histogram: 1 0 0 0 0 0 0 0 0 0
Neighs:          33500 ave       33500 max       33500 min
Histogram: 1 0 0 0 0 0 0 0 0 0

Total # of neighbors = 33500
Ave neighs/atom = 67
Neighbor list builds = 0
Dangerous builds = 0
OMP_NUM_THREADS environment is not set. Defaulting to 1 thread. (src/comm.cpp:98)
  using 1 OpenMP thread(s) per MPI task
Loaded 1 plugins from F:\Lammps\LAMMPS 64-bit 2Aug2023\plugins

The 'box' command has been removed and will be ignored

Reading restart file ...
  restart file = 2 Aug 2023, LAMMPS = 2 Aug 2023
  restoring atom style atomic from restart
  triclinic box = (0.052060682 0.050016416 0.050856895) to (17.737939 17.739984 17.739143) with tilt (0 0 0)
  1 by 1 by 1 MPI processor grid
  pair style eam/alloy stores no restart info
  500 atoms
  read_restart CPU = 0.000 seconds
Changing box ...
  triclinic box = (0.052060682 0.050016416 0.050856895) to (17.737939 17.739984 17.739143) with tilt (1.7689967e-05 0 0)
Neighbor list info ...
  update: every = 1 steps, delay = 0 steps, check = yes
  max neighbors/atom: 2000, page size: 100000
  master list distance cutoff = 6.80375
  ghost atom cutoff = 6.80375
  1 neighbor lists, perpetual/occasional/extra = 1 0 0
  (1) pair eam/alloy, perpetual
      attributes: half, newton on
      pair build: half/nsq/newton
      stencil: none
      bin: none
Setting up cg style minimization ...
  Unit style    : metal
  Current step  : 100
Per MPI rank memory allocation (min/avg/max) = 4.483 | 4.483 | 4.483 Mbytes
   Step          Temp          PotEng         Press           Pxx            Pyy            Pzz            Pxy            Pxz            Pyz             Lx             Ly             Lz           Volume    
       100   0             -2181.1337     -333.62582     -333.45338     -334.36594     -333.05815     -69.360988      75.478605     -57.421037      17.685879      17.689967      17.688286      5534.0034    
       101   0             -2181.3025      476.61046      482.91088      488.0903       458.8302      -149.2775       77.696848     -110.93181      17.685879      17.689967      17.688286      5534.0034    
       102   0             -2181.3741      1067.9941      1088.2174      1088.8382      1026.9265     -209.17396      92.316692     -164.62486      17.685879      17.689967      17.688286      5534.0034    
       103   0             -2181.3968      1146.9741      1179.9983      1170.4208      1090.5031     -206.64783      105.84371     -178.66246      17.685879      17.689967      17.688286      5534.0034    
       104   0             -2181.4003      1268.2788      1301.1754      1289.5292      1214.1318     -228.66417      99.306333     -179.06427      17.685879      17.689967      17.688286      5534.0034    
       105   0             -2181.402       1194.0604      1232.73        1206.4616      1142.9895     -230.25971      100.34439     -177.26632      17.685879      17.689967      17.688286      5534.0034    
       106   0             -2181.4024      1192.7972      1232.444       1203.3271      1142.6206     -229.33143      98.440588     -175.00681      17.685879      17.689967      17.688286      5534.0034    
       107   0             -2181.4026      1212.6406      1254.0221      1221.093       1162.8067     -229.13132      97.409103     -176.34075      17.685879      17.689967      17.688286      5534.0034    
       108   0             -2181.4027      1214.7512      1257.335       1221.972       1164.9466     -228.2044       97.61476      -177.81931      17.685879      17.689967      17.688286      5534.0034    
       109   0             -2181.4027      1211.9645      1254.7866      1218.608       1162.4989     -227.76497      97.037747     -177.1249       17.685879      17.689967      17.688286      5534.0034    
       110   0             -2181.4027      1208.8526      1251.5301      1215.4268      1159.601      -227.59748      96.709233     -176.91631      17.685879      17.689967      17.688286      5534.0034    
       111   0             -2181.4027      1211.8541      1254.2537      1218.7659      1162.5427     -227.92063      96.605229     -177.08917      17.685879      17.689967      17.688286      5534.0034    
       112   0             -2181.4027      1213.0691      1255.2461      1220.1677      1163.7935     -228.11553      96.731038     -177.06587      17.685879      17.689967      17.688286      5534.0034    
       113   0             -2181.4027      1212.2128      1254.2039      1219.3647      1163.0697     -228.12237      96.742116     -176.77695      17.685879      17.689967      17.688286      5534.0034    
       114   0             -2181.4027      1211.628       1253.8009      1218.8386      1162.2443     -228.15886      96.697947     -176.71448      17.685879      17.689967      17.688286      5534.0034    
       115   0             -2181.4027      1211.8095      1254.1995      1218.9968      1162.2322     -228.21517      96.70009      -176.7645       17.685879      17.689967      17.688286      5534.0034    
       116   0             -2181.4027      1211.8558      1254.3138      1219.0588      1162.1948     -228.13986      96.63346      -176.85689      17.685879      17.689967      17.688286      5534.0034    
       117   0             -2181.4027      1211.641       1254.1113      1218.8409      1161.9706     -228.12621      96.586888     -176.8552       17.685879      17.689967      17.688286      5534.0034    
       118   0             -2181.4027      1211.5757      1254.0551      1218.734       1161.9379     -228.14605      96.580913     -176.85285      17.685879      17.689967      17.688286      5534.0034    
       119   0             -2181.4027      1211.6848      1254.1495      1218.8437      1162.0613     -228.13774      96.602        -176.86386      17.685879      17.689967      17.688286      5534.0034    
       120   0             -2181.4027      1211.7303      1254.2006      1218.8982      1162.092      -228.13487      96.596413     -176.86438      17.685879      17.689967      17.688286      5534.0034    
       121   0             -2181.4027      1211.7239      1254.1924      1218.9005      1162.0787     -228.13352      96.605284     -176.86258      17.685879      17.689967      17.688286      5534.0034    
       122   0             -2181.4027      1211.7197      1254.1828      1218.898       1162.0783     -228.13708      96.619748     -176.86185      17.685879      17.689967      17.688286      5534.0034    
       123   0             -2181.4027      1211.7332      1254.196       1218.908       1162.0956     -228.14506      96.624754     -176.86311      17.685879      17.689967      17.688286      5534.0034    
       124   0             -2181.4027      1211.7319      1254.1943      1218.9055      1162.0957     -228.14901      96.624935     -176.86152      17.685879      17.689967      17.688286      5534.0034    
       125   0             -2181.4027      1211.7209      1254.1864      1218.894       1162.0823     -228.14803      96.622979     -176.86014      17.685879      17.689967      17.688286      5534.0034    
       126   0             -2181.4027      1211.7218      1254.1883      1218.8962      1162.081      -228.14804      96.621992     -176.86108      17.685879      17.689967      17.688286      5534.0034    
       127   0             -2181.4027      1211.7234      1254.1892      1218.8991      1162.082      -228.14807      96.622429     -176.86183      17.685879      17.689967      17.688286      5534.0034    
       128   0             -2181.4027      1211.7249      1254.1901      1218.9009      1162.0836     -228.1474       96.622601     -176.86158      17.685879      17.689967      17.688286      5534.0034    
       129   0             -2181.4027      1211.7235      1254.1886      1218.8992      1162.0827     -228.14708      96.622672     -176.86181      17.685879      17.689967      17.688286      5534.0034    
       130   0             -2181.4027      1211.7233      1254.1888      1218.8985      1162.0826     -228.14712      96.6228       -176.8618       17.685879      17.689967      17.688286      5534.0034    
       131   0             -2181.4027      1211.7236      1254.1892      1218.8985      1162.0832     -228.14732      96.622899     -176.86173      17.685879      17.689967      17.688286      5534.0034    
       132   0             -2181.4027      1211.7237      1254.1892      1218.8986      1162.0833     -228.14736      96.622846     -176.86168      17.685879      17.689967      17.688286      5534.0034    
       133   0             -2181.4027      1211.7235      1254.1889      1218.8986      1162.0831     -228.14727      96.62265      -176.86175      17.685879      17.689967      17.688286      5534.0034    
       134   0             -2181.4027      1211.7235      1254.1888      1218.8986      1162.083      -228.14738      96.622664     -176.86188      17.685879      17.689967      17.688286      5534.0034    
       135   0             -2181.4027      1211.7237      1254.189       1218.8989      1162.0832     -228.14743      96.622706     -176.86188      17.685879      17.689967      17.688286      5534.0034    
       136   0             -2181.4027      1211.7237      1254.189       1218.8989      1162.0832     -228.14741      96.62269      -176.86186      17.685879      17.689967      17.688286      5534.0034    
       137   0             -2181.4027      1211.7237      1254.189       1218.8989      1162.0832     -228.1474       96.622673     -176.86183      17.685879      17.689967      17.688286      5534.0034    
       138   0             -2181.4027      1211.7237      1254.189       1218.8989      1162.0832     -228.14739      96.622694     -176.86184      17.685879      17.689967      17.688286      5534.0034    
       139   0             -2181.4027      1211.7237      1254.189       1218.8989      1162.0832     -228.1474       96.622698     -176.86184      17.685879      17.689967      17.688286      5534.0034    
       140   0             -2181.4027      1211.7237      1254.189       1218.8989      1162.0832     -228.1474       96.622698     -176.86183      17.685879      17.689967      17.688286      5534.0034    
       141   0             -2181.4027      1211.7237      1254.189       1218.8989      1162.0831     -228.1474       96.622701     -176.86183      17.685879      17.689967      17.688286      5534.0034    
       142   0             -2181.4027      1211.7237      1254.189       1218.8989      1162.0832     -228.1474       96.622697     -176.86183      17.685879      17.689967      17.688286      5534.0034    
       143   0             -2181.4027      1211.7237      1254.189       1218.8989      1162.0832     -228.1474       96.622695     -176.86183      17.685879      17.689967      17.688286      5534.0034    
       144   0             -2181.4027      1211.7237      1254.189       1218.8989      1162.0832     -228.1474       96.622694     -176.86183      17.685879      17.689967      17.688286      5534.0034    
       145   0             -2181.4027      1211.7237      1254.189       1218.8989      1162.0832     -228.1474       96.622695     -176.86183      17.685879      17.689967      17.688286      5534.0034    
       146   0             -2181.4027      1211.7237      1254.189       1218.8989      1162.0832     -228.1474       96.622696     -176.86183      17.685879      17.689967      17.688286      5534.0034    
       147   0             -2181.4027      1211.7237      1254.189       1218.8989      1162.0832     -228.1474       96.622696     -176.86183      17.685879      17.689967      17.688286      5534.0034    
       148   0             -2181.4027      1211.7237      1254.189       1218.8989      1162.0832     -228.1474       96.622696     -176.86183      17.685879      17.689967      17.688286      5534.0034    
       149   0             -2181.4027      1211.7237      1254.189       1218.8989      1162.0832     -228.1474       96.622696     -176.86183      17.685879      17.689967      17.688286      5534.0034    
       150   0             -2181.4027      1211.7237      1254.189       1218.8989      1162.0832     -228.1474       96.622696     -176.86183      17.685879      17.689967      17.688286      5534.0034    
       151   0             -2181.4027      1211.7237      1254.189       1218.8989      1162.0832     -228.1474       96.622696     -176.86183      17.685879      17.689967      17.688286      5534.0034    
       152   0             -2181.4027      1211.7237      1254.189       1218.8989      1162.0832     -228.1474       96.622696     -176.86183      17.685879      17.689967      17.688286      5534.0034    
       153   0             -2181.4027      1211.7237      1254.189       1218.8989      1162.0832     -228.1474       96.622696     -176.86183      17.685879      17.689967      17.688286      5534.0034    
       154   0             -2181.4027      1211.7237      1254.189       1218.8989      1162.0832     -228.1474       96.622696     -176.86183      17.685879      17.689967      17.688286      5534.0034    
       155   0             -2181.4027      1211.7237      1254.189       1218.8989      1162.0832     -228.1474       96.622696     -176.86183      17.685879      17.689967      17.688286      5534.0034    
       156   0             -2181.4027      1211.7237      1254.189       1218.8989      1162.0832     -228.1474       96.622696     -176.86183      17.685879      17.689967      17.688286      5534.0034    
       157   0             -2181.4027      1211.7237      1254.189       1218.8989      1162.0832     -228.1474       96.622696     -176.86183      17.685879      17.689967      17.688286      5534.0034    
       158   0             -2181.4027      1211.7237      1254.189       1218.8989      1162.0832     -228.1474       96.622696     -176.86183      17.685879      17.689967      17.688286      5534.0034    
       159   0             -2181.4027      1211.7237      1254.189       1218.8989      1162.0832     -228.1474       96.622696     -176.86183      17.685879      17.689967      17.688286      5534.0034    
       160   0             -2181.4027      1211.7237      1254.189       1218.8989      1162.0832     -228.1474       96.622696     -176.86183      17.685879      17.689967      17.688286      5534.0034    
Loop time of 0.140852 on 1 procs for 60 steps with 500 atoms

99.8% CPU use with 1 MPI tasks x 1 OpenMP threads

Minimization stats:
  Stopping criterion = force tolerance
  Energy initial, next-to-last, final = 
     -2181.13369756939  -2181.40274123313  -2181.40274123312
  Force two-norm initial, final = 2.1830845 6.8879231e-11
  Force max component initial, final = 0.20817534 7.3307541e-12
  Final line search alpha, max atom move = 1 7.3307541e-12
  Iterations, force evaluations = 60 118

MPI task timing breakdown:
Section |  min time  |  avg time  |  max time  |%varavg| %total
---------------------------------------------------------------
Pair    | 0.13822    | 0.13822    | 0.13822    |   0.0 | 98.13
Neigh   | 0          | 0          | 0          |   0.0 |  0.00
Comm    | 0.000742   | 0.000742   | 0.000742   |   0.0 |  0.53
Output  | 0.000909   | 0.000909   | 0.000909   |   0.0 |  0.65
Modify  | 0          | 0          | 0          |   0.0 |  0.00
Other   |            | 0.000978   |            |       |  0.69

Nlocal:            500 ave         500 max         500 min
Histogram: 1 0 0 0 0 0 0 0 0 0
Nghost:           1956 ave        1956 max        1956 min
Histogram: 1 0 0 0 0 0 0 0 0 0
Neighs:          33500 ave       33500 max       33500 min
Histogram: 1 0 0 0 0 0 0 0 0 0

Total # of neighbors = 33500
Ave neighs/atom = 67
Neighbor list builds = 0
Dangerous builds = 0
=========================================
Components of the Elastic Constant Tensor
=========================================
Elastic Constant C11all = 245.630987659504 GPa
Elastic Constant C22all = 245.050499735502 GPa
Elastic Constant C33all = 243.898084112996 GPa
Elastic Constant C12all = 154.10329192775 GPa
Elastic Constant C13all = 153.651275549004 GPa
Elastic Constant C23all = 153.493720037244 GPa
Elastic Constant C44all = 117.6188143565 GPa
Elastic Constant C55all = 117.707342691765 GPa
Elastic Constant C66all = 117.716290617999 GPa
Elastic Constant C14all = -0.00541155852033623 GPa
Elastic Constant C15all = 0.247332191691612 GPa
Elastic Constant C16all = -0.166504961021928 GPa
Elastic Constant C24all = -0.366552039425642 GPa
Elastic Constant C25all = -0.0446814460786982 GPa
Elastic Constant C26all = -0.20950039387344 GPa
Elastic Constant C34all = -0.204400611171422 GPa
Elastic Constant C35all = 0.128834327518348 GPa
Elastic Constant C36all = 0.0486385641488596 GPa
Elastic Constant C45all = 0.230405575969826 GPa
Elastic Constant C46all = 0.0806803003247296 GPa
Elastic Constant C56all = 0.187098067622401 GPa
=========================================
Average properties for a cubic crystal
=========================================
Bulk Modulus = 184.119571837333 GPa
Shear Modulus 1 = 117.680815888755 GPa
Shear Modulus 2 = 45.5552139990005 GPa
Poisson Ratio = 0.385714619402852
Total wall time: 0:00:02
