LAMMPS (2 Aug 2023 - Update 3)
OMP_NUM_THREADS environment is not set. Defaulting to 1 thread. (src/comm.cpp:98)
  using 1 OpenMP thread(s) per MPI task
Loaded 1 plugins from F:\Lammps\LAMMPS 64-bit 2Aug2023\plugins
Reading data file ...
  orthogonal box = (0 0 0) to (17.79 17.79 17.79)
  1 by 1 by 1 MPI processor grid
  reading atoms ...
  500 atoms
  read_data CPU = 0.001 seconds
Changing box ...
  triclinic box = (0 0 0) to (17.79 17.79 17.79) with tilt (0 0 0)
Neighbor list info ...
  update: every = 1 steps, delay = 0 steps, check = yes
  max neighbors/atom: 2000, page size: 100000
  master list distance cutoff = 6.80375
  ghost atom cutoff = 6.80375
  1 neighbor lists, perpetual/occasional/extra = 1 0 0
  (1) pair eam/alloy, perpetual
      attributes: half, newton on
      pair build: half/nsq/newton
      stencil: none
      bin: none
Setting up cg style minimization ...
  Unit style    : metal
  Current step  : 0
WARNING: Energy due to 3 extra global DOFs will be included in minimizer energies
 (src/min.cpp:228)
Per MPI rank memory allocation (min/avg/max) = 4.492 | 4.492 | 4.492 Mbytes
   Step          Temp          PotEng         Press           Pxx            Pyy            Pzz            Pxy            Pxz            Pyz             Lx             Ly             Lz           Volume    
         0   0             -2179.9229     -33251.14      -33244.264     -33255.535     -33253.622      9.2933101      13.315419     -67.322844      17.79          17.79          17.79          5630.2521    
         1   0             -2179.9577     -32702.023     -32695.811     -32706.018     -32704.242      9.9967936      13.22869      -66.981993      17.788222      17.788221      17.788221      5628.5635    
         2   0             -2179.9919     -32152.448     -32146.894     -32156.046     -32154.403      10.701517      13.142958     -66.636979      17.786443      17.786442      17.786442      5626.8751    
         3   0             -2180.0254     -31602.408     -31597.51      -31605.615     -31604.099      11.407303      13.058194     -66.288051      17.784665      17.784663      17.784663      5625.1871    
         4   0             -2180.0585     -31051.92      -31047.673     -31054.74      -31053.347      12.114201      12.974639     -65.935026      17.782886      17.782884      17.782884      5623.4993    
         5   0             -2180.0909     -30501.052     -30497.457     -30503.489     -30502.21       12.820637      12.893902     -65.575737      17.781108      17.781105      17.781105      5621.8119    
         6   0             -2180.1227     -29949.85      -29946.909     -29951.906     -29950.736      13.526629      12.814996     -65.209006      17.779329      17.779326      17.779327      5620.1248    
         7   0             -2180.154      -29398.318     -29396.032     -29399.995     -29398.927      14.23195       12.737963     -64.834801      17.77755       17.777547      17.777548      5618.4381    
         8   0             -2180.1846     -28846.415     -28844.783     -28847.715     -28846.747      14.936928      12.661833     -64.455737      17.775771      17.775768      17.775769      5616.7516    
         9   0             -2180.2147     -28294.088     -28293.106     -28295.013     -28294.145      15.642597      12.58707      -64.073845      17.773993      17.773989      17.77399       5615.0655    
        10   0             -2180.2442     -27741.306     -27740.967     -27741.859     -27741.093      16.349643      12.516591     -63.689453      17.772214      17.77221       17.772211      5613.3797    
        11   0             -2180.2731     -27188.087     -27188.386     -27188.27      -27187.606      17.058101      12.450667     -63.301566      17.770435      17.770431      17.770432      5611.6942    
        12   0             -2180.3014     -26634.477     -26635.409     -26634.293     -26633.728      17.767552      12.388871     -62.908703      17.768656      17.768652      17.768653      5610.009     
        13   0             -2180.3292     -26080.521     -26082.084     -26079.975     -26079.504      18.477494      12.328886     -62.5105        17.766877      17.766873      17.766874      5608.3242    
        14   0             -2180.3563     -25526.267     -25528.457     -25525.362     -25524.981      19.1892        12.268259     -62.107318      17.765098      17.765094      17.765095      5606.6398    
        15   0             -2180.3828     -24971.675     -24974.491     -24970.414     -24970.121      19.903574      12.207696     -61.699743      17.763319      17.763315      17.763316      5604.9558    
        16   0             -2180.4088     -24416.711     -24420.15      -24415.097     -24414.886      20.621292      12.147653     -61.287287      17.76154       17.761537      17.761538      5603.2721    
        17   0             -2180.4342     -23861.347     -23865.405     -23859.384     -23859.252      21.340961      12.089802     -60.87006       17.759761      17.759758      17.759759      5601.5888    
        18   0             -2180.459      -23305.572     -23310.245     -23303.265     -23303.206      22.060266      12.035214     -60.44849       17.757982      17.75798       17.757981      5599.906     
        19   0             -2180.4832     -22749.465     -22754.747     -22746.819     -22746.828      22.777818      11.98238      -60.023554      17.756203      17.756201      17.756202      5598.2235    
        20   0             -2180.5068     -22193.038     -22198.922     -22190.06      -22190.132      23.493702      11.931661     -59.595048      17.754424      17.754423      17.754424      5596.5414    
        21   0             -2180.5298     -21636.326     -21642.806     -21633.02      -21633.151      24.209078      11.881685     -59.162614      17.752645      17.752644      17.752645      5594.8596    
        22   0             -2180.5522     -21079.256     -21086.329     -21075.628     -21075.812      24.926654      11.832059     -58.725323      17.750866      17.750866      17.750867      5593.1783    
        23   0             -2180.574      -20521.858     -20529.52      -20517.911     -20518.144      25.646179      11.783718     -58.283159      17.749087      17.749088      17.749089      5591.4974    
        24   0             -2180.5953     -19964.129     -19972.375     -19959.866     -19960.145      26.367373      11.736542     -57.83661       17.747308      17.74731       17.747311      5589.8169    
        25   0             -2180.6159     -19406.112     -19414.937     -19401.537     -19401.861      27.089664      11.693232     -57.385279      17.745529      17.745532      17.745533      5588.1368    
        26   0             -2180.636      -18847.811     -18857.209     -18842.927     -18843.297      27.812665      11.655343     -56.928236      17.74375       17.743754      17.743755      5586.4571    
        27   0             -2180.6555     -18289.191     -18299.154     -18284.002     -18284.418      28.537054      11.621453     -56.465655      17.741971      17.741977      17.741978      5584.7778    
        28   0             -2180.6744     -17730.255     -17740.775     -17724.763     -17725.225      29.263547      11.589963     -55.998018      17.740192      17.740199      17.7402        5583.0989    
        29   0             -2180.6927     -17171.023     -17182.096     -17165.238     -17165.736      29.991411      11.554608     -55.5269        17.738413      17.738422      17.738423      5581.4204    
        30   0             -2180.7104     -16611.515     -16623.135     -16605.443     -16605.968      30.720199      11.51479      -55.052275      17.736634      17.736645      17.736645      5579.7424    
        31   0             -2180.7275     -16051.758     -16063.918     -16045.408     -16045.949      31.449258      11.471875     -54.573594      17.734855      17.734868      17.734868      5578.0647    
        32   0             -2180.744      -15491.715     -15504.408     -15485.091     -15485.646      32.178592      11.430303     -54.089976      17.733076      17.733091      17.733091      5576.3876    
        33   0             -2180.76       -14931.354     -14944.569     -14924.46      -14925.034      32.909181      11.394954     -53.601481      17.731297      17.731314      17.731314      5574.7108    
        34   0             -2180.7753     -14370.681     -14384.409     -14363.518     -14364.116      33.641045      11.365977     -53.107943      17.729518      17.729537      17.729538      5573.0345    
        35   0             -2180.7901     -13809.701     -13823.931     -13802.275     -13802.898      34.374302      11.34322      -52.609688      17.727739      17.727761      17.727761      5571.3587    
        36   0             -2180.8042     -13248.5       -13263.222     -13240.816     -13241.462      35.108796      11.321986     -52.106404      17.72596       17.725985      17.725985      5569.6833    
        37   0             -2180.8178     -12687.105     -12702.311     -12679.17      -12679.835      35.844877      11.299013     -51.598278      17.724181      17.724209      17.724209      5568.0084    
        38   0             -2180.8308     -12125.525     -12141.204     -12117.346     -12118.024      36.582377      11.274064     -51.08538       17.722402      17.722433      17.722433      5566.334     
        39   0             -2180.8432     -11563.718     -11579.86      -11555.303     -11555.991      37.321009      11.246527     -50.568492      17.720623      17.720657      17.720657      5564.66      
        40   0             -2180.855      -11001.623     -11018.214     -10992.98      -10993.675      38.06035       11.22248      -50.046298      17.718844      17.718882      17.718882      5562.9866    
        41   0             -2180.8662     -10439.215     -10456.241     -10430.352     -10431.053      38.799837      11.202544     -49.519286      17.717065      17.717107      17.717107      5561.3137    
        42   0             -2180.8768     -9876.5336     -9893.9775     -9867.4592     -9868.1642      39.539882      11.186908     -48.987213      17.715286      17.715333      17.715332      5559.6413    
        43   0             -2180.8869     -9313.6618     -9331.5062     -9304.387      -9305.0921      40.280627      11.172991     -48.450784      17.713507      17.713558      17.713558      5557.9695    
        44   0             -2180.8963     -8750.6338     -8768.8609     -8741.17       -8741.8705      41.022424      11.157722     -47.910062      17.711728      17.711785      17.711784      5556.2983    
        45   0             -2180.9052     -8187.4943     -8206.0844     -8177.8534     -8178.5449      41.764689      11.142135     -47.36411       17.709949      17.710011      17.71001       5554.6277    
        46   0             -2180.9135     -7624.1933     -7643.1263     -7614.3858     -7615.0678      42.50721       11.128496     -46.811998      17.70817       17.708238      17.708237      5552.9578    
        47   0             -2180.9211     -7060.7422     -7079.9961     -7050.778      -7051.4524      43.249857      11.117882     -46.25432       17.706391      17.706466      17.706465      5551.2885    
        48   0             -2180.9282     -6497.158      -6516.7065     -6487.0493     -6487.7181      43.993266      11.111505     -45.691272      17.704612      17.704694      17.704693      5549.62      
        49   0             -2180.9347     -5933.4602     -5953.2736     -5923.2224     -5923.8845      44.73842       11.107306     -45.123427      17.702833      17.702923      17.702922      5547.9523    
        50   0             -2180.9407     -5369.654      -5389.6956     -5359.3077     -5359.9588      45.486026      11.104503     -44.549692      17.701054      17.701153      17.701152      5546.2854    
        51   0             -2180.946      -4805.7747     -4826.003      -4795.3429     -4795.9783      46.236554      11.102518     -43.969802      17.699275      17.699384      17.699383      5544.6196    
        52   0             -2180.9508     -4241.8877     -4262.2542     -4231.3972     -4232.0119      46.990115      11.100738     -43.384271      17.697496      17.697617      17.697615      5542.9549    
        53   0             -2180.9549     -3678.1203     -3698.5701     -3667.6007     -3668.19        47.746144      11.099403     -42.794856      17.695717      17.695851      17.695848      5541.2915    
        54   0             -2180.9585     -3114.6091     -3135.0723     -3104.0988     -3104.6564      48.503834      11.098439     -42.201712      17.693938      17.694087      17.694084      5539.6296    
        55   0             -2180.9615     -2551.4696     -2571.8521     -2541.0192     -2541.5377      49.262953      11.097168     -41.605146      17.692159      17.692325      17.692322      5537.9698    
        56   0             -2180.964      -1988.8499     -2009.0131     -1978.5323     -1979.0042      50.024434      11.09426      -41.004524      17.69038       17.690568      17.690564      5536.3127    
        57   0             -2180.9659     -1427.0606     -1446.8004     -1416.9813     -1417.4002      50.79029       11.087072     -40.400902      17.688601      17.688816      17.688812      5534.6594    
        58   0             -2180.9672     -866.8781      -885.84907     -857.215       -857.57023      51.563292      11.069743     -39.796844      17.686822      17.687073      17.687069      5533.0124    
        59   0             -2180.9681     -310.5386      -328.01188     -301.67016     -301.93377      52.348142      11.02646      -39.198867      17.685043      17.685352      17.685347      5531.3788    
        60   0             -2180.9688      229.08629      216.08635      235.61344      235.55909      53.169137      10.862842     -38.638893      17.683264      17.683716      17.683709      5529.7986    
        61   0             -2180.9715     -285.81006     -283.29493     -287.32259     -286.81267      52.79821       10.127347     -39.35109       17.68461       17.685495      17.685486      5531.3318    
        62   0             -2180.9732      267.81433      272.98197      264.90403      265.55699      53.76142       9.7032647     -38.829429      17.682831      17.683803      17.683798      5529.7183    
        63   0             -2180.9759     -288.28571     -283.32193     -291.06789     -290.46731      53.328647      8.9848058     -39.586409      17.68461       17.685553      17.685558      5531.3726    
        64   0             -2180.9781      276.32322      278.29408      275.07308      275.6025       54.372193      8.4248575     -39.081919      17.682911      17.683774      17.683788      5529.7311    
        65   0             -2180.9807     -269.51779     -269.46153     -269.74892     -269.34292      53.945468      7.7239414     -39.824294      17.68469       17.685475      17.685499      5531.3547    
        66   0             -2180.9831      299.92389      298.33924      300.52032      300.91212      55.026758      7.0979241     -39.328002      17.682951      17.683696      17.683729      5529.7009    
        67   0             -2180.9857     -259.97698     -260.87696     -259.70838     -259.34561      54.575773      6.4053988     -40.08345       17.684723      17.685467      17.685508      5531.3654    
        68   0             -2180.9883      312.09971      311.33239      312.2721       312.69466      55.693521      5.7090364     -39.598725      17.682944      17.683699      17.683749      5529.7059    
        69   0             -2180.9908     -246.48677     -246.03602     -246.91721     -246.50709      55.234833      5.0363219     -40.348497      17.684702      17.68547       17.685528      5531.3658    
        70   0             -2180.9936      328.21502      328.36597      327.91013      328.36897      56.381433      4.2866113     -39.872282      17.682925      17.683691      17.683758      5529.7003    
        71   0             -2180.996      -232.48431     -231.7445      -233.06294     -232.64549      55.910528      3.6338254     -40.620355      17.6847        17.685462      17.685537      5531.3657    
        72   0             -2180.999       340.80195      340.6643       340.64663      341.09491      57.080647      2.8299163     -40.157278      17.682941      17.683683      17.683769      5529.706     
        73   0             -2181.0013     -220.37456     -220.07259     -220.72366     -220.32743      56.59795       2.2011592     -40.900946      17.68472       17.685453      17.685547      5531.3721    
        74   0             -2181.0044      353.90025      353.496        353.8834       354.32136      57.795775      1.3407442     -40.448677      17.682956      17.683674      17.683779      5529.7111    
        75   0             -2181.0066     -207.28843     -207.07907     -207.58726     -207.19896      57.30341       0.73273456    -41.188096      17.68473       17.685446      17.685558      5531.3765    
        76   0             -2181.0099      368.04629      367.73244      367.98238      368.42406      58.531196     -0.18873118    -40.747552      17.682961      17.683667      17.683791      5529.7142    
        77   0             -2181.012      -193.30914     -192.97575     -193.6705      -193.28117      58.028656     -0.77559238    -41.482841      17.684735      17.685438      17.68557       5531.3794    
        78   0             -2181.0155      382.28347      382.00877      382.19905      382.64258      59.288973     -1.7654382     -41.056653      17.68297       17.683659      17.683803      5529.7183    
        79   0             -2181.0176     -179.50101     -179.17838     -179.85506     -179.46959      58.775068     -2.3295947     -41.78757       17.684745      17.685431      17.685582      5531.3841    
        80   0             -2181.0212      396.52845      396.19252      396.4757       396.91713      60.072596     -3.3973118     -41.37758       17.682982      17.683652      17.683816      5529.724     
        81   0             -2181.0232     -165.54115     -165.28034     -165.86136     -165.48174      59.547466     -3.9386621     -42.10393       17.684757      17.685424      17.685595      5531.3898    
        82   0             -2181.0272      411.3044       410.94801      411.26205      411.70313      60.888152     -5.0957535     -41.712192      17.682993      17.683645      17.683831      5529.7299    
        83   0             -2181.0291     -151.00379     -150.74779     -151.31987     -150.94372      60.351826     -5.6144301     -42.433803      17.684768      17.685418      17.68561       5531.3957    
        84   0             -2181.0333      426.64073      426.2784       426.60105      427.04274      61.743236     -6.8768202     -42.063771      17.683005      17.683639      17.683846      5529.7365    
        85   0             -2181.0351     -135.96724     -135.71891     -136.27751     -135.9053       61.195177     -7.3720182     -42.780522      17.68478       17.685412      17.685625      5531.4025    
        86   0             -2181.0397      442.58894      442.1995       442.56249      443.00484      62.648349     -8.7625595     -42.437035      17.683019      17.683633      17.683863      5529.7442    
        87   0             -2181.0414     -120.32472     -120.10347     -120.61903     -120.25167      62.088025     -9.2334888     -43.148526      17.684795      17.685406      17.685642      5531.4103    
        88   0             -2181.0464      459.48196      459.07291      459.46418      459.90878      63.619446     -10.786096     -42.838541      17.683035      17.683627      17.683882      5529.7531    
        89   0             -2181.0481     -103.73664     -103.53072     -104.0212      -103.65799      63.046341     -11.231915     -43.54452       17.68481       17.6854        17.685661      5531.4192    
        90   0             -2181.0538      477.67691      477.24391      477.66975      478.11706      64.682448     -13.001796     -43.279361      17.683052      17.683621      17.683903      5529.7635    
        91   0             -2181.0554     -85.87211      -85.688182     -86.143513     -85.784633      64.095641     -13.421112     -43.979502      17.684828      17.685394      17.685682      5531.4297    
        92   0             -2181.0619      497.9084       497.44915      497.91273      498.36332      65.884757     -15.509157     -43.779653      17.683073      17.683615      17.683928      5529.7761    
        93   0             -2181.0634     -65.992345     -65.830834     -66.250351     -65.895849      65.283292     -15.900175     -44.473525      17.684849      17.685389      17.685707      5531.4425    
        94   0             -2181.0715      521.77468      521.28138      521.79385      522.24881      67.331628     -18.528847     -44.38378       17.6831        17.68361       17.68396       5529.7926    
        95   0             -2181.0729     -42.515527     -42.382982     -42.756647     -42.406954      66.714209     -18.888853     -45.071181      17.684875      17.685385      17.685739      5531.459     
        96   0             -2181.0847      554.50696      553.97206      554.5427       555.00611      69.362754     -22.772521     -45.235672      17.683138      17.683606      17.684006      5529.8177    
        97   0             -2181.086      -10.244793     -10.147284     -10.466051     -10.121043      68.726967     -23.096975     -45.916442      17.684914      17.68538       17.685785      5531.4842    
        98   0             -2181.1281      665.8943       665.10855      666.06915      666.50519      76.532356     -37.769461     -48.269958      17.683289      17.683601      17.684179      5529.9176    
        99   0             -2181.1294      100.40154      100.28174      100.32248      100.60039      75.870246     -38.043946     -48.942926      17.685064      17.685376      17.685958      5531.5842    
       100   0             -2181.1305     -463.16241     -462.55388     -463.54723     -463.38611      75.287901     -38.481978     -49.643884      17.686837      17.68715       17.687737      5533.2504    
Loop time of 0.116568 on 1 procs for 100 steps with 500 atoms

93.8% CPU use with 1 MPI tasks x 1 OpenMP threads

Minimization stats:
  Stopping criterion = max iterations
  Energy initial, next-to-last, final = 
     -2179.92290510003  -2181.12937415129  -2181.13048327181
  Force two-norm initial, final = 202.4154 3.5074491
  Force max component initial, final = 116.86418 1.6102082
  Final line search alpha, max atom move = 0.00028622912 0.00046088849
  Iterations, force evaluations = 100 100

MPI task timing breakdown:
Section |  min time  |  avg time  |  max time  |%varavg| %total
---------------------------------------------------------------
Pair    | 0.10874    | 0.10874    | 0.10874    |   0.0 | 93.28
Neigh   | 0          | 0          | 0          |   0.0 |  0.00
Comm    | 0.000608   | 0.000608   | 0.000608   |   0.0 |  0.52
Output  | 0.001376   | 0.001376   | 0.001376   |   0.0 |  1.18
Modify  | 0          | 0          | 0          |   0.0 |  0.00
Other   |            | 0.005844   |            |       |  5.01

Nlocal:            500 ave         500 max         500 min
Histogram: 1 0 0 0 0 0 0 0 0 0
Nghost:           1956 ave        1956 max        1956 min
Histogram: 1 0 0 0 0 0 0 0 0 0
Neighs:          33500 ave       33500 max       33500 min
Histogram: 1 0 0 0 0 0 0 0 0 0

Total # of neighbors = 33500
Ave neighs/atom = 67
Neighbor list builds = 0
Dangerous builds = 0
Displacing atoms ...
System init for write_restart ...
OMP_NUM_THREADS environment is not set. Defaulting to 1 thread. (src/comm.cpp:98)
  using 1 OpenMP thread(s) per MPI task
Loaded 1 plugins from F:\Lammps\LAMMPS 64-bit 2Aug2023\plugins

The 'box' command has been removed and will be ignored

Reading restart file ...
  restart file = 2 Aug 2023, LAMMPS = 2 Aug 2023
  restoring atom style atomic from restart
  triclinic box = (0.051581377 0.051424855 0.051131404) to (17.738419 17.738575 17.738869) with tilt (0 0 0)
  1 by 1 by 1 MPI processor grid
  pair style eam/alloy stores no restart info
  500 atoms
  read_restart CPU = 0.000 seconds
Changing box ...
  triclinic box = (0.051581377 0.051424855 0.051131404) to (17.738401 17.738575 17.738869) with tilt (0 0 0)
  triclinic box = (0.051581377 0.051424855 0.051131404) to (17.738401 17.738575 17.738869) with tilt (0 0 0)
  triclinic box = (0.051581377 0.051424855 0.051131404) to (17.738401 17.738575 17.738869) with tilt (0 0 0)
Neighbor list info ...
  update: every = 1 steps, delay = 0 steps, check = yes
  max neighbors/atom: 2000, page size: 100000
  master list distance cutoff = 6.80375
  ghost atom cutoff = 6.80375
  1 neighbor lists, perpetual/occasional/extra = 1 0 0
  (1) pair eam/alloy, perpetual
      attributes: half, newton on
      pair build: half/nsq/newton
      stencil: none
      bin: none
Setting up cg style minimization ...
  Unit style    : metal
  Current step  : 100
Per MPI rank memory allocation (min/avg/max) = 4.482 | 4.482 | 4.482 Mbytes
   Step          Temp          PotEng         Press           Pxx            Pyy            Pzz            Pxy            Pxz            Pyz             Lx             Ly             Lz           Volume    
       100   0             -2181.1305     -461.43364     -460.21614     -462.17674     -461.90804      75.352097     -38.378656     -49.579072      17.68682       17.68715       17.687737      5533.2448    
       101   0             -2181.3074      471.40399      485.15755      439.03431      490.02011      124.38066     -136.83612     -69.89765       17.68682       17.68715       17.687737      5533.2448    
       102   0             -2181.374       1034.9114      1061.8687      976.60706      1066.2585      173.51732     -242.16393     -99.374283      17.68682       17.68715       17.687737      5533.2448    
       103   0             -2181.3867      884.53763      908.24037      824.63805      920.73448      179.082       -230.79534     -89.667359      17.68682       17.68715       17.687737      5533.2448    
       104   0             -2181.3913      867.44081      892.52281      800.2384       909.56123      179.74752     -243.19014     -96.719003      17.68682       17.68715       17.687737      5533.2448    
       105   0             -2181.3928      970.15053      992.45251      903.28227      1014.7168      186.34991     -247.10988     -107.814        17.68682       17.68715       17.687737      5533.2448    
       106   0             -2181.3933      948.69117      966.94789      884.10389      995.02174      182.84388     -241.7079      -110.2767       17.68682       17.68715       17.687737      5533.2448    
       107   0             -2181.3934      933.78799      950.23831      870.59042      980.53524      181.72023     -240.95732     -110.10533      17.68682       17.68715       17.687737      5533.2448    
       108   0             -2181.3934      937.35455      953.6376       874.12267      984.30339      181.16021     -241.24896     -108.55638      17.68682       17.68715       17.687737      5533.2448    
       109   0             -2181.3935      938.1098       954.36183      874.59101      985.37656      181.21121     -241.4379      -107.76917      17.68682       17.68715       17.687737      5533.2448    
       110   0             -2181.3935      938.00376      954.53584      874.22388      985.25154      181.5852      -241.81114     -107.99965      17.68682       17.68715       17.687737      5533.2448    
       111   0             -2181.3935      938.66987      955.37282      874.57026      986.06654      181.74442     -241.97666     -108.23014      17.68682       17.68715       17.687737      5533.2448    
       112   0             -2181.3935      937.1637       954.14282      872.70995      984.63832      181.59975     -241.60581     -108.15819      17.68682       17.68715       17.687737      5533.2448    
       113   0             -2181.3935      937.334        954.2192       872.74703      985.03577      181.47799     -241.74554     -108.34723      17.68682       17.68715       17.687737      5533.2448    
       114   0             -2181.3935      938.05178      954.85898      873.47085      985.82551      181.57203     -242.07867     -108.5266       17.68682       17.68715       17.687737      5533.2448    
       115   0             -2181.3935      937.92671      954.70763      873.48288      985.58964      181.49229     -242.03236     -108.56885      17.68682       17.68715       17.687737      5533.2448    
       116   0             -2181.3935      937.8572       954.60812      873.54893      985.41455      181.40863     -241.97059     -108.55406      17.68682       17.68715       17.687737      5533.2448    
       117   0             -2181.3935      937.80339      954.58301      873.497        985.33015      181.40561     -241.93399     -108.51275      17.68682       17.68715       17.687737      5533.2448    
       118   0             -2181.3935      937.791        954.5947       873.50253      985.27578      181.44215     -241.93078     -108.49945      17.68682       17.68715       17.687737      5533.2448    
       119   0             -2181.3935      937.86739      954.70459      873.57735      985.32023      181.45109     -241.94569     -108.49272      17.68682       17.68715       17.687737      5533.2448    
       120   0             -2181.3935      937.90845      954.75938      873.60736      985.35861      181.45189     -241.95138     -108.48104      17.68682       17.68715       17.687737      5533.2448    
       121   0             -2181.3935      937.89071      954.73869      873.5815       985.35195      181.4493      -241.94463     -108.48503      17.68682       17.68715       17.687737      5533.2448    
       122   0             -2181.3935      937.89021      954.72973      873.58654      985.35437      181.45558     -241.94633     -108.49283      17.68682       17.68715       17.687737      5533.2448    
       123   0             -2181.3935      937.8841       954.71825      873.58677      985.34728      181.4635      -241.94103     -108.49464      17.68682       17.68715       17.687737      5533.2448    
       124   0             -2181.3935      937.87687      954.71016      873.57851      985.34194      181.46258     -241.94078     -108.49405      17.68682       17.68715       17.687737      5533.2448    
       125   0             -2181.3935      937.8774       954.71105      873.57674      985.34442      181.46022     -241.94224     -108.49302      17.68682       17.68715       17.687737      5533.2448    
       126   0             -2181.3935      937.87805      954.71377      873.57505      985.34533      181.46177     -241.94354     -108.49394      17.68682       17.68715       17.687737      5533.2448    
       127   0             -2181.3935      937.87689      954.71335      873.57329      985.34403      181.46209     -241.94353     -108.49266      17.68682       17.68715       17.687737      5533.2448    
       128   0             -2181.3935      937.87927      954.71585      873.5753       985.34665      181.46174     -241.9441      -108.49153      17.68682       17.68715       17.687737      5533.2448    
       129   0             -2181.3935      937.87943      954.71653      873.57534      985.34643      181.46157     -241.94352     -108.49149      17.68682       17.68715       17.687737      5533.2448    
       130   0             -2181.3935      937.87972      954.71671      873.57577      985.34666      181.46157     -241.94353     -108.49152      17.68682       17.68715       17.687737      5533.2448    
       131   0             -2181.3935      937.87989      954.71677      873.57612      985.34678      181.46164     -241.94341     -108.4915       17.68682       17.68715       17.687737      5533.2448    
       132   0             -2181.3935      937.87967      954.7165       873.5759       985.34661      181.46162     -241.94339     -108.49149      17.68682       17.68715       17.687737      5533.2448    
       133   0             -2181.3935      937.87962      954.71643      873.57583      985.34659      181.46154     -241.94344     -108.49158      17.68682       17.68715       17.687737      5533.2448    
       134   0             -2181.3935      937.87978      954.7166       873.57598      985.34676      181.4615      -241.94347     -108.49167      17.68682       17.68715       17.687737      5533.2448    
       135   0             -2181.3935      937.87977      954.71661      873.57595      985.34675      181.46151     -241.94349     -108.49156      17.68682       17.68715       17.687737      5533.2448    
       136   0             -2181.3935      937.87976      954.71663      873.57594      985.34671      181.46156     -241.9435      -108.49157      17.68682       17.68715       17.687737      5533.2448    
       137   0             -2181.3935      937.87977      954.71666      873.57597      985.3467       181.46155     -241.9435      -108.49159      17.68682       17.68715       17.687737      5533.2448    
       138   0             -2181.3935      937.87976      954.71666      873.57595      985.34668      181.46154     -241.94348     -108.49158      17.68682       17.68715       17.687737      5533.2448    
       139   0             -2181.3935      937.87978      954.71667      873.57596      985.3467       181.46154     -241.94349     -108.49158      17.68682       17.68715       17.687737      5533.2448    
       140   0             -2181.3935      937.87977      954.71667      873.57596      985.3467       181.46154     -241.94349     -108.49158      17.68682       17.68715       17.687737      5533.2448    
       141   0             -2181.3935      937.87977      954.71667      873.57596      985.3467       181.46154     -241.94349     -108.49158      17.68682       17.68715       17.687737      5533.2448    
       142   0             -2181.3935      937.87978      954.71667      873.57596      985.3467       181.46154     -241.94349     -108.49158      17.68682       17.68715       17.687737      5533.2448    
       143   0             -2181.3935      937.87978      954.71667      873.57597      985.34671      181.46154     -241.94349     -108.49158      17.68682       17.68715       17.687737      5533.2448    
       144   0             -2181.3935      937.87978      954.71667      873.57597      985.3467       181.46154     -241.94349     -108.49158      17.68682       17.68715       17.687737      5533.2448    
       145   0             -2181.3935      937.87978      954.71667      873.57597      985.3467       181.46154     -241.94349     -108.49158      17.68682       17.68715       17.687737      5533.2448    
       146   0             -2181.3935      937.87978      954.71667      873.57596      985.3467       181.46154     -241.94349     -108.49158      17.68682       17.68715       17.687737      5533.2448    
       147   0             -2181.3935      937.87978      954.71667      873.57596      985.3467       181.46154     -241.94349     -108.49158      17.68682       17.68715       17.687737      5533.2448    
       148   0             -2181.3935      937.87978      954.71667      873.57596      985.3467       181.46154     -241.94349     -108.49158      17.68682       17.68715       17.687737      5533.2448    
       149   0             -2181.3935      937.87978      954.71667      873.57596      985.3467       181.46154     -241.94349     -108.49158      17.68682       17.68715       17.687737      5533.2448    
       150   0             -2181.3935      937.87978      954.71667      873.57596      985.3467       181.46154     -241.94349     -108.49158      17.68682       17.68715       17.687737      5533.2448    
       151   0             -2181.3935      937.87978      954.71667      873.57596      985.3467       181.46154     -241.94349     -108.49158      17.68682       17.68715       17.687737      5533.2448    
       152   0             -2181.3935      937.87978      954.71667      873.57596      985.3467       181.46154     -241.94349     -108.49158      17.68682       17.68715       17.687737      5533.2448    
       153   0             -2181.3935      937.87978      954.71667      873.57596      985.3467       181.46154     -241.94349     -108.49158      17.68682       17.68715       17.687737      5533.2448    
       154   0             -2181.3935      937.87978      954.71667      873.57596      985.3467       181.46154     -241.94349     -108.49158      17.68682       17.68715       17.687737      5533.2448    
       155   0             -2181.3935      937.87978      954.71667      873.57596      985.3467       181.46154     -241.94349     -108.49158      17.68682       17.68715       17.687737      5533.2448    
       156   0             -2181.3935      937.87978      954.71667      873.57596      985.3467       181.46154     -241.94349     -108.49158      17.68682       17.68715       17.687737      5533.2448    
       157   0             -2181.3935      937.87978      954.71667      873.57596      985.3467       181.46154     -241.94349     -108.49158      17.68682       17.68715       17.687737      5533.2448    
       158   0             -2181.3935      937.87978      954.71667      873.57596      985.3467       181.46154     -241.94349     -108.49158      17.68682       17.68715       17.687737      5533.2448    
       159   0             -2181.3935      937.87978      954.71667      873.57596      985.3467       181.46154     -241.94349     -108.49158      17.68682       17.68715       17.687737      5533.2448    
       160   0             -2181.3935      937.87978      954.71667      873.57596      985.3467       181.46154     -241.94349     -108.49158      17.68682       17.68715       17.687737      5533.2448    
Loop time of 0.140002 on 1 procs for 60 steps with 500 atoms

89.3% CPU use with 1 MPI tasks x 1 OpenMP threads

Minimization stats:
  Stopping criterion = force tolerance
  Energy initial, next-to-last, final = 
      -2181.1304567917  -2181.39349561876  -2181.39349561876
  Force two-norm initial, final = 2.1300931 8.1763315e-11
  Force max component initial, final = 0.17778721 1.0358442e-11
  Final line search alpha, max atom move = 1 1.0358442e-11
  Iterations, force evaluations = 60 118

MPI task timing breakdown:
Section |  min time  |  avg time  |  max time  |%varavg| %total
---------------------------------------------------------------
Pair    | 0.13742    | 0.13742    | 0.13742    |   0.0 | 98.15
Neigh   | 0          | 0          | 0          |   0.0 |  0.00
Comm    | 0.000685   | 0.000685   | 0.000685   |   0.0 |  0.49
Output  | 0.000921   | 0.000921   | 0.000921   |   0.0 |  0.66
Modify  | 0          | 0          | 0          |   0.0 |  0.00
Other   |            | 0.000978   |            |       |  0.70

Nlocal:            500 ave         500 max         500 min
Histogram: 1 0 0 0 0 0 0 0 0 0
Nghost:           1956 ave        1956 max        1956 min
Histogram: 1 0 0 0 0 0 0 0 0 0
Neighs:          33500 ave       33500 max       33500 min
Histogram: 1 0 0 0 0 0 0 0 0 0

Total # of neighbors = 33500
Ave neighs/atom = 67
Neighbor list builds = 0
Dangerous builds = 0
OMP_NUM_THREADS environment is not set. Defaulting to 1 thread. (src/comm.cpp:98)
  using 1 OpenMP thread(s) per MPI task
Loaded 1 plugins from F:\Lammps\LAMMPS 64-bit 2Aug2023\plugins

The 'box' command has been removed and will be ignored

Reading restart file ...
  restart file = 2 Aug 2023, LAMMPS = 2 Aug 2023
  restoring atom style atomic from restart
  triclinic box = (0.051581377 0.051424855 0.051131404) to (17.738419 17.738575 17.738869) with tilt (0 0 0)
  1 by 1 by 1 MPI processor grid
  pair style eam/alloy stores no restart info
  500 atoms
  read_restart CPU = 0.000 seconds
Changing box ...
  triclinic box = (0.051581377 0.051424855 0.051131404) to (17.738436 17.738575 17.738869) with tilt (0 0 0)
  triclinic box = (0.051581377 0.051424855 0.051131404) to (17.738436 17.738575 17.738869) with tilt (0 0 0)
  triclinic box = (0.051581377 0.051424855 0.051131404) to (17.738436 17.738575 17.738869) with tilt (0 0 0)
Neighbor list info ...
  update: every = 1 steps, delay = 0 steps, check = yes
  max neighbors/atom: 2000, page size: 100000
  master list distance cutoff = 6.80375
  ghost atom cutoff = 6.80375
  1 neighbor lists, perpetual/occasional/extra = 1 0 0
  (1) pair eam/alloy, perpetual
      attributes: half, newton on
      pair build: half/nsq/newton
      stencil: none
      bin: none
Setting up cg style minimization ...
  Unit style    : metal
  Current step  : 100
Per MPI rank memory allocation (min/avg/max) = 4.482 | 4.482 | 4.482 Mbytes
   Step          Temp          PotEng         Press           Pxx            Pyy            Pzz            Pxy            Pxz            Pyz             Lx             Ly             Lz           Volume    
       100   0             -2181.1305     -465.20156     -465.20769     -465.33291     -465.06407      75.346231     -38.376805     -49.583005      17.686855      17.68715       17.687737      5533.2559    
       101   0             -2181.3074      467.66162      480.19497      435.90177      486.88813      124.36912     -136.83053     -69.901473      17.686855      17.68715       17.687737      5533.2559    
       102   0             -2181.374       1031.2197      1056.955       973.52578      1063.1785      173.50505     -242.15907     -99.380464      17.686855      17.68715       17.687737      5533.2559    
       103   0             -2181.3867      880.81224      903.29412      821.52189      917.6207       179.06881     -230.79106     -89.672557      17.686855      17.68715       17.687737      5533.2559    
       104   0             -2181.3913      863.7334       887.5942       797.14064      906.46536      179.73602     -243.18635     -96.724747      17.686855      17.68715       17.687737      5533.2559    
       105   0             -2181.3928      966.43683      987.51616      900.17906      1011.6153      186.33741     -247.10426     -107.81914      17.686855      17.68715       17.687737      5533.2559    
       106   0             -2181.3933      944.97291      962.00783      880.99567      991.91524      182.83148     -241.70229     -110.28214      17.686855      17.68715       17.687737      5533.2559    
       107   0             -2181.3934      930.0734       945.30215      867.4857       977.43235      181.70793     -240.95206     -110.11083      17.686855      17.68715       17.687737      5533.2559    
       108   0             -2181.3934      933.63971      948.70113      871.01775      981.20026      181.1478      -241.24352     -108.56175      17.686855      17.68715       17.687737      5533.2559    
       109   0             -2181.3935      934.39444      949.42511      871.48546      982.27275      181.19875     -241.43242     -107.77462      17.686855      17.68715       17.687737      5533.2559    
       110   0             -2181.3935      934.28929      949.60014      871.11909      982.14863      181.57278     -241.80579     -108.00515      17.686855      17.68715       17.687737      5533.2559    
       111   0             -2181.3935      934.95484      950.43666      871.46484      982.96302      181.73196     -241.97119     -108.23559      17.686855      17.68715       17.687737      5533.2559    
       112   0             -2181.3935      933.44866      949.20679      869.60446      981.53474      181.58731     -241.6004      -108.16366      17.686855      17.68715       17.687737      5533.2559    
       113   0             -2181.3935      933.61947      949.28371      869.64201      981.9327       181.46558     -241.74019     -108.35274      17.686855      17.68715       17.687737      5533.2559    
       114   0             -2181.3935      934.33699      949.92326      870.36555      982.72218      181.55959     -242.07325     -108.53208      17.686855      17.68715       17.687737      5533.2559    
       115   0             -2181.3935      934.21188      949.77186      870.37753      982.48626      181.47986     -242.02694     -108.57435      17.686855      17.68715       17.687737      5533.2559    
       116   0             -2181.3935      934.14244      949.67241      870.44365      982.31126      181.3962      -241.96518     -108.55955      17.686855      17.68715       17.687737      5533.2559    
       117   0             -2181.3935      934.08855      949.64722      870.39165      982.22679      181.39318     -241.92857     -108.51823      17.686855      17.68715       17.687737      5533.2559    
       118   0             -2181.3935      934.07622      949.65896      870.39722      982.17247      181.42972     -241.92537     -108.50493      17.686855      17.68715       17.687737      5533.2559    
       119   0             -2181.3935      934.15262      949.76886      870.47206      982.21693      181.43866     -241.94029     -108.49819      17.686855      17.68715       17.687737      5533.2559    
       120   0             -2181.3935      934.19365      949.82363      870.50204      982.25528      181.43946     -241.94596     -108.48651      17.686855      17.68715       17.687737      5533.2559    
       121   0             -2181.3935      934.17592      949.80295      870.47619      982.24863      181.43688     -241.93922     -108.4905       17.686855      17.68715       17.687737      5533.2559    
       122   0             -2181.3935      934.17543      949.79399      870.48123      982.25106      181.44316     -241.94092     -108.4983       17.686855      17.68715       17.687737      5533.2559    
       123   0             -2181.3935      934.16931      949.78251      870.48146      982.24397      181.45108     -241.93562     -108.50011      17.686855      17.68715       17.687737      5533.2559    
       124   0             -2181.3935      934.16208      949.77442      870.4732       982.23863      181.45016     -241.93537     -108.49952      17.686855      17.68715       17.687737      5533.2559    
       125   0             -2181.3935      934.16262      949.77531      870.47143      982.2411       181.44779     -241.93682     -108.49849      17.686855      17.68715       17.687737      5533.2559    
       126   0             -2181.3935      934.16326      949.77803      870.46974      982.24202      181.44934     -241.93813     -108.49941      17.686855      17.68715       17.687737      5533.2559    
       127   0             -2181.3935      934.1621       949.77761      870.46799      982.24071      181.44966     -241.93811     -108.49813      17.686855      17.68715       17.687737      5533.2559    
       128   0             -2181.3935      934.16448      949.78012      870.46999      982.24334      181.44932     -241.93869     -108.49701      17.686855      17.68715       17.687737      5533.2559    
       129   0             -2181.3935      934.16465      949.7808       870.47003      982.24312      181.44914     -241.93811     -108.49696      17.686855      17.68715       17.687737      5533.2559    
       130   0             -2181.3935      934.16493      949.78098      870.47046      982.24335      181.44915     -241.93812     -108.497        17.686855      17.68715       17.687737      5533.2559    
       131   0             -2181.3935      934.1651       949.78103      870.47081      982.24347      181.44922     -241.938       -108.49697      17.686855      17.68715       17.687737      5533.2559    
       132   0             -2181.3935      934.16488      949.78077      870.47059      982.24329      181.44919     -241.93798     -108.49696      17.686855      17.68715       17.687737      5533.2559    
       133   0             -2181.3935      934.16483      949.7807       870.47053      982.24327      181.44912     -241.93803     -108.49706      17.686855      17.68715       17.687737      5533.2559    
       134   0             -2181.3935      934.16499      949.78086      870.47067      982.24345      181.44907     -241.93805     -108.49714      17.686855      17.68715       17.687737      5533.2559    
       135   0             -2181.3935      934.16498      949.78088      870.47064      982.24344      181.44909     -241.93808     -108.49703      17.686855      17.68715       17.687737      5533.2559    
       136   0             -2181.3935      934.16497      949.7809       870.47063      982.24339      181.44913     -241.93809     -108.49704      17.686855      17.68715       17.687737      5533.2559    
       137   0             -2181.3935      934.16499      949.78092      870.47066      982.24338      181.44913     -241.93808     -108.49706      17.686855      17.68715       17.687737      5533.2559    
       138   0             -2181.3935      934.16498      949.78092      870.47064      982.24337      181.44912     -241.93807     -108.49705      17.686855      17.68715       17.687737      5533.2559    
       139   0             -2181.3935      934.16499      949.78094      870.47065      982.24338      181.44911     -241.93808     -108.49705      17.686855      17.68715       17.687737      5533.2559    
       140   0             -2181.3935      934.16499      949.78093      870.47065      982.24338      181.44911     -241.93807     -108.49705      17.686855      17.68715       17.687737      5533.2559    
       141   0             -2181.3935      934.16499      949.78093      870.47065      982.24339      181.44911     -241.93807     -108.49705      17.686855      17.68715       17.687737      5533.2559    
       142   0             -2181.3935      934.16499      949.78093      870.47065      982.24339      181.44911     -241.93808     -108.49706      17.686855      17.68715       17.687737      5533.2559    
       143   0             -2181.3935      934.16499      949.78093      870.47066      982.24339      181.44911     -241.93807     -108.49706      17.686855      17.68715       17.687737      5533.2559    
       144   0             -2181.3935      934.16499      949.78093      870.47066      982.24339      181.44911     -241.93807     -108.49706      17.686855      17.68715       17.687737      5533.2559    
       145   0             -2181.3935      934.16499      949.78093      870.47066      982.24338      181.44911     -241.93807     -108.49706      17.686855      17.68715       17.687737      5533.2559    
       146   0             -2181.3935      934.16499      949.78093      870.47066      982.24338      181.44912     -241.93807     -108.49706      17.686855      17.68715       17.687737      5533.2559    
       147   0             -2181.3935      934.16499      949.78093      870.47066      982.24338      181.44911     -241.93807     -108.49706      17.686855      17.68715       17.687737      5533.2559    
       148   0             -2181.3935      934.16499      949.78093      870.47066      982.24338      181.44911     -241.93807     -108.49706      17.686855      17.68715       17.687737      5533.2559    
       149   0             -2181.3935      934.16499      949.78093      870.47066      982.24338      181.44911     -241.93807     -108.49706      17.686855      17.68715       17.687737      5533.2559    
       150   0             -2181.3935      934.16499      949.78093      870.47066      982.24338      181.44911     -241.93807     -108.49706      17.686855      17.68715       17.687737      5533.2559    
       151   0             -2181.3935      934.16499      949.78093      870.47066      982.24338      181.44911     -241.93807     -108.49706      17.686855      17.68715       17.687737      5533.2559    
       152   0             -2181.3935      934.16499      949.78093      870.47066      982.24338      181.44911     -241.93807     -108.49706      17.686855      17.68715       17.687737      5533.2559    
       153   0             -2181.3935      934.16499      949.78093      870.47066      982.24338      181.44911     -241.93807     -108.49706      17.686855      17.68715       17.687737      5533.2559    
       154   0             -2181.3935      934.16499      949.78093      870.47066      982.24338      181.44911     -241.93807     -108.49706      17.686855      17.68715       17.687737      5533.2559    
       155   0             -2181.3935      934.16499      949.78093      870.47066      982.24338      181.44911     -241.93807     -108.49706      17.686855      17.68715       17.687737      5533.2559    
       156   0             -2181.3935      934.16499      949.78093      870.47066      982.24338      181.44911     -241.93807     -108.49706      17.686855      17.68715       17.687737      5533.2559    
       157   0             -2181.3935      934.16499      949.78093      870.47066      982.24338      181.44911     -241.93807     -108.49706      17.686855      17.68715       17.687737      5533.2559    
       158   0             -2181.3935      934.16499      949.78093      870.47066      982.24338      181.44911     -241.93807     -108.49706      17.686855      17.68715       17.687737      5533.2559    
       159   0             -2181.3935      934.16499      949.78093      870.47066      982.24338      181.44911     -241.93807     -108.49706      17.686855      17.68715       17.687737      5533.2559    
       160   0             -2181.3935      934.16499      949.78093      870.47066      982.24338      181.44911     -241.93807     -108.49706      17.686855      17.68715       17.687737      5533.2559    
Loop time of 0.140226 on 1 procs for 60 steps with 500 atoms

100.3% CPU use with 1 MPI tasks x 1 OpenMP threads

Minimization stats:
  Stopping criterion = force tolerance
  Energy initial, next-to-last, final = 
     -2181.13045359569   -2181.3935021961   -2181.3935021961
  Force two-norm initial, final = 2.1301433 8.174625e-11
  Force max component initial, final = 0.17779019 1.0329734e-11
  Final line search alpha, max atom move = 1 1.0329734e-11
  Iterations, force evaluations = 60 118

MPI task timing breakdown:
Section |  min time  |  avg time  |  max time  |%varavg| %total
---------------------------------------------------------------
Pair    | 0.13758    | 0.13758    | 0.13758    |   0.0 | 98.11
Neigh   | 0          | 0          | 0          |   0.0 |  0.00
Comm    | 0.000736   | 0.000736   | 0.000736   |   0.0 |  0.52
Output  | 0.000949   | 0.000949   | 0.000949   |   0.0 |  0.68
Modify  | 0          | 0          | 0          |   0.0 |  0.00
Other   |            | 0.000963   |            |       |  0.69

Nlocal:            500 ave         500 max         500 min
Histogram: 1 0 0 0 0 0 0 0 0 0
Nghost:           1956 ave        1956 max        1956 min
Histogram: 1 0 0 0 0 0 0 0 0 0
Neighs:          33500 ave       33500 max       33500 min
Histogram: 1 0 0 0 0 0 0 0 0 0

Total # of neighbors = 33500
Ave neighs/atom = 67
Neighbor list builds = 0
Dangerous builds = 0
OMP_NUM_THREADS environment is not set. Defaulting to 1 thread. (src/comm.cpp:98)
  using 1 OpenMP thread(s) per MPI task
Loaded 1 plugins from F:\Lammps\LAMMPS 64-bit 2Aug2023\plugins

The 'box' command has been removed and will be ignored

Reading restart file ...
  restart file = 2 Aug 2023, LAMMPS = 2 Aug 2023
  restoring atom style atomic from restart
  triclinic box = (0.051581377 0.051424855 0.051131404) to (17.738419 17.738575 17.738869) with tilt (0 0 0)
  1 by 1 by 1 MPI processor grid
  pair style eam/alloy stores no restart info
  500 atoms
  read_restart CPU = 0.001 seconds
Changing box ...
  triclinic box = (0.051581377 0.051424855 0.051131404) to (17.738419 17.738557 17.738869) with tilt (0 0 0)
  triclinic box = (0.051581377 0.051424855 0.051131404) to (17.738419 17.738557 17.738869) with tilt (0 0 0)
Neighbor list info ...
  update: every = 1 steps, delay = 0 steps, check = yes
  max neighbors/atom: 2000, page size: 100000
  master list distance cutoff = 6.80375
  ghost atom cutoff = 6.80375
  1 neighbor lists, perpetual/occasional/extra = 1 0 0
  (1) pair eam/alloy, perpetual
      attributes: half, newton on
      pair build: half/nsq/newton
      stencil: none
      bin: none
Setting up cg style minimization ...
  Unit style    : metal
  Current step  : 100
Per MPI rank memory allocation (min/avg/max) = 4.482 | 4.482 | 4.482 Mbytes
   Step          Temp          PotEng         Press           Pxx            Pyy            Pzz            Pxy            Pxz            Pyz             Lx             Ly             Lz           Volume    
       100   0             -2181.1305     -461.43111     -461.13383     -461.25472     -461.90478      75.351965     -38.376415     -49.579503      17.686837      17.687133      17.687737      5533.2448    
       101   0             -2181.3074      471.4141       484.25033      439.96071      490.03127      124.38104     -136.83266     -69.899062      17.686837      17.687133      17.687737      5533.2448    
       102   0             -2181.374       1034.9089      1060.9472      977.52234      1066.2571      173.51716     -242.15684     -99.376324      17.686837      17.687133      17.687737      5533.2448    
       103   0             -2181.3867      884.54615      907.33156      825.56273      920.74417      179.08216     -230.79031     -89.668979      17.686837      17.687133      17.687737      5533.2448    
       104   0             -2181.3913      867.44052      891.60497      801.15419      909.5624       179.74728     -243.18418     -96.720197      17.686837      17.687133      17.687737      5533.2448    
       105   0             -2181.3928      970.15177      991.53536      904.20015      1014.7198      186.34969     -247.1042      -107.81589      17.686837      17.687133      17.687737      5533.2448    
       106   0             -2181.3933      948.69423      966.03314      885.02307      995.0265       182.84366     -241.70252     -110.27839      17.686837      17.687133      17.687737      5533.2448    
       107   0             -2181.3934      933.78973      949.32237      871.50815      980.53867      181.71994     -240.9518      -110.10716      17.686837      17.687133      17.687737      5533.2448    
       108   0             -2181.3934      937.3564       952.72184      875.04046      984.3069       181.15995     -241.24344     -108.5582       17.686837      17.687133      17.687737      5533.2448    
       109   0             -2181.3935      938.11191      953.44655      875.50884      985.38034      181.21096     -241.43241     -107.77101      17.686837      17.687133      17.687737      5533.2448    
       110   0             -2181.3935      938.00549      953.62033      875.1412       985.25494      181.5849      -241.80563     -108.00149      17.686837      17.687133      17.687737      5533.2448    
       111   0             -2181.3935      938.67175      954.45756      875.4876       986.0701       181.74414     -241.97119     -108.23202      17.686837      17.687133      17.687737      5533.2448    
       112   0             -2181.3935      937.16562      953.22769      873.62722      984.64195      181.59945     -241.60035     -108.16007      17.686837      17.687133      17.687737      5533.2448    
       113   0             -2181.3935      937.33579      953.30396      873.66415      985.03927      181.4777      -241.74008     -108.34911      17.686837      17.687133      17.687737      5533.2448    
       114   0             -2181.3935      938.05367      953.94386      874.38805      985.82911      181.57174     -242.07321     -108.52848      17.686837      17.687133      17.687737      5533.2448    
       115   0             -2181.3935      937.92861      953.79251      874.4001       985.59324      181.49201     -242.02689     -108.57074      17.686837      17.687133      17.687737      5533.2448    
       116   0             -2181.3935      937.85909      953.69298      874.46614      985.41813      181.40835     -241.96512     -108.55594      17.686837      17.687133      17.687737      5533.2448    
       117   0             -2181.3935      937.8053       953.66788      874.41425      985.33376      181.40533     -241.92852     -108.51463      17.686837      17.687133      17.687737      5533.2448    
       118   0             -2181.3935      937.79291      953.67957      874.41978      985.27939      181.44187     -241.92531     -108.50133      17.686837      17.687133      17.687737      5533.2448    
       119   0             -2181.3935      937.8693       953.78945      874.4946       985.32383      181.45081     -241.94023     -108.4946       17.686837      17.687133      17.687737      5533.2448    
       120   0             -2181.3935      937.91036      953.84424      874.52461      985.36221      181.45161     -241.94591     -108.48291      17.686837      17.687133      17.687737      5533.2448    
       121   0             -2181.3935      937.89262      953.82356      874.49875      985.35555      181.44902     -241.93916     -108.48691      17.686837      17.687133      17.687737      5533.2448    
       122   0             -2181.3935      937.89212      953.81459      874.50379      985.35797      181.4553      -241.94086     -108.4947       17.686837      17.687133      17.687737      5533.2448    
       123   0             -2181.3935      937.88601      953.80312      874.50403      985.35089      181.46322     -241.93556     -108.49652      17.686837      17.687133      17.687737      5533.2448    
       124   0             -2181.3935      937.87878      953.79503      874.49576      985.34555      181.4623      -241.93531     -108.49593      17.686837      17.687133      17.687737      5533.2448    
       125   0             -2181.3935      937.87931      953.79592      874.49399      985.34802      181.45994     -241.93677     -108.49489      17.686837      17.687133      17.687737      5533.2448    
       126   0             -2181.3935      937.87996      953.79864      874.4923       985.34894      181.46149     -241.93807     -108.49581      17.686837      17.687133      17.687737      5533.2448    
       127   0             -2181.3935      937.8788       953.79822      874.49054      985.34763      181.46181     -241.93806     -108.49453      17.686837      17.687133      17.687737      5533.2448    
       128   0             -2181.3935      937.88118      953.80072      874.49255      985.35026      181.46146     -241.93863     -108.49341      17.686837      17.687133      17.687737      5533.2448    
       129   0             -2181.3935      937.88134      953.8014       874.49259      985.35004      181.46129     -241.93805     -108.49336      17.686837      17.687133      17.687737      5533.2448    
       130   0             -2181.3935      937.88162      953.80158      874.49302      985.35027      181.46129     -241.93806     -108.4934       17.686837      17.687133      17.687737      5533.2448    
       131   0             -2181.3935      937.8818       953.80164      874.49337      985.35039      181.46137     -241.93794     -108.49338      17.686837      17.687133      17.687737      5533.2448    
       132   0             -2181.3935      937.88158      953.80137      874.49315      985.35021      181.46134     -241.93792     -108.49337      17.686837      17.687133      17.687737      5533.2448    
       133   0             -2181.3935      937.88153      953.8013       874.49309      985.35019      181.46127     -241.93797     -108.49346      17.686837      17.687133      17.687737      5533.2448    
       134   0             -2181.3935      937.88169      953.80147      874.49323      985.35037      181.46122     -241.938       -108.49354      17.686837      17.687133      17.687737      5533.2448    
       135   0             -2181.3935      937.88168      953.80148      874.4932       985.35036      181.46123     -241.93803     -108.49343      17.686837      17.687133      17.687737      5533.2448    
       136   0             -2181.3935      937.88167      953.8015       874.49319      985.35031      181.46128     -241.93803     -108.49344      17.686837      17.687133      17.687737      5533.2448    
       137   0             -2181.3935      937.88168      953.80153      874.49322      985.3503       181.46128     -241.93803     -108.49347      17.686837      17.687133      17.687737      5533.2448    
       138   0             -2181.3935      937.88167      953.80153      874.49321      985.35029      181.46127     -241.93801     -108.49345      17.686837      17.687133      17.687737      5533.2448    
       139   0             -2181.3935      937.88169      953.80154      874.49322      985.3503       181.46126     -241.93802     -108.49345      17.686837      17.687133      17.687737      5533.2448    
       140   0             -2181.3935      937.88168      953.80153      874.49321      985.3503       181.46126     -241.93802     -108.49345      17.686837      17.687133      17.687737      5533.2448    
       141   0             -2181.3935      937.88168      953.80153      874.49321      985.3503       181.46126     -241.93802     -108.49346      17.686837      17.687133      17.687737      5533.2448    
       142   0             -2181.3935      937.88168      953.80153      874.49321      985.35031      181.46126     -241.93802     -108.49346      17.686837      17.687133      17.687737      5533.2448    
       143   0             -2181.3935      937.88169      953.80154      874.49322      985.35031      181.46126     -241.93802     -108.49346      17.686837      17.687133      17.687737      5533.2448    
       144   0             -2181.3935      937.88169      953.80153      874.49322      985.35031      181.46126     -241.93802     -108.49346      17.686837      17.687133      17.687737      5533.2448    
       145   0             -2181.3935      937.88168      953.80153      874.49322      985.3503       181.46126     -241.93802     -108.49346      17.686837      17.687133      17.687737      5533.2448    
       146   0             -2181.3935      937.88168      953.80153      874.49322      985.3503       181.46126     -241.93802     -108.49346      17.686837      17.687133      17.687737      5533.2448    
       147   0             -2181.3935      937.88168      953.80153      874.49322      985.3503       181.46126     -241.93802     -108.49346      17.686837      17.687133      17.687737      5533.2448    
       148   0             -2181.3935      937.88168      953.80153      874.49322      985.3503       181.46126     -241.93802     -108.49346      17.686837      17.687133      17.687737      5533.2448    
       149   0             -2181.3935      937.88168      953.80153      874.49322      985.3503       181.46126     -241.93802     -108.49346      17.686837      17.687133      17.687737      5533.2448    
       150   0             -2181.3935      937.88168      953.80153      874.49322      985.3503       181.46126     -241.93802     -108.49346      17.686837      17.687133      17.687737      5533.2448    
       151   0             -2181.3935      937.88168      953.80153      874.49322      985.3503       181.46126     -241.93802     -108.49346      17.686837      17.687133      17.687737      5533.2448    
       152   0             -2181.3935      937.88168      953.80153      874.49322      985.3503       181.46126     -241.93802     -108.49346      17.686837      17.687133      17.687737      5533.2448    
       153   0             -2181.3935      937.88168      953.80153      874.49322      985.3503       181.46126     -241.93802     -108.49346      17.686837      17.687133      17.687737      5533.2448    
       154   0             -2181.3935      937.88168      953.80153      874.49322      985.3503       181.46126     -241.93802     -108.49346      17.686837      17.687133      17.687737      5533.2448    
       155   0             -2181.3935      937.88168      953.80153      874.49322      985.3503       181.46126     -241.93802     -108.49346      17.686837      17.687133      17.687737      5533.2448    
       156   0             -2181.3935      937.88168      953.80153      874.49322      985.3503       181.46126     -241.93802     -108.49346      17.686837      17.687133      17.687737      5533.2448    
       157   0             -2181.3935      937.88168      953.80153      874.49322      985.3503       181.46126     -241.93802     -108.49346      17.686837      17.687133      17.687737      5533.2448    
       158   0             -2181.3935      937.88168      953.80153      874.49322      985.3503       181.46126     -241.93802     -108.49346      17.686837      17.687133      17.687737      5533.2448    
       159   0             -2181.3935      937.88168      953.80153      874.49322      985.3503       181.46126     -241.93802     -108.49346      17.686837      17.687133      17.687737      5533.2448    
       160   0             -2181.3935      937.88168      953.80153      874.49322      985.3503       181.46126     -241.93802     -108.49346      17.686837      17.687133      17.687737      5533.2448    
Loop time of 0.138596 on 1 procs for 60 steps with 500 atoms

101.5% CPU use with 1 MPI tasks x 1 OpenMP threads

Minimization stats:
  Stopping criterion = force tolerance
  Energy initial, next-to-last, final = 
     -2181.13045679531  -2181.39349589581  -2181.39349589581
  Force two-norm initial, final = 2.1300944 8.1768729e-11
  Force max component initial, final = 0.17778595 1.0292318e-11
  Final line search alpha, max atom move = 1 1.0292318e-11
  Iterations, force evaluations = 60 118

MPI task timing breakdown:
Section |  min time  |  avg time  |  max time  |%varavg| %total
---------------------------------------------------------------
Pair    | 0.1361     | 0.1361     | 0.1361     |   0.0 | 98.20
Neigh   | 0          | 0          | 0          |   0.0 |  0.00
Comm    | 0.000684   | 0.000684   | 0.000684   |   0.0 |  0.49
Output  | 0.000895   | 0.000895   | 0.000895   |   0.0 |  0.65
Modify  | 0          | 0          | 0          |   0.0 |  0.00
Other   |            | 0.00092    |            |       |  0.66

Nlocal:            500 ave         500 max         500 min
Histogram: 1 0 0 0 0 0 0 0 0 0
Nghost:           1956 ave        1956 max        1956 min
Histogram: 1 0 0 0 0 0 0 0 0 0
Neighs:          33500 ave       33500 max       33500 min
Histogram: 1 0 0 0 0 0 0 0 0 0

Total # of neighbors = 33500
Ave neighs/atom = 67
Neighbor list builds = 0
Dangerous builds = 0
OMP_NUM_THREADS environment is not set. Defaulting to 1 thread. (src/comm.cpp:98)
  using 1 OpenMP thread(s) per MPI task
Loaded 1 plugins from F:\Lammps\LAMMPS 64-bit 2Aug2023\plugins

The 'box' command has been removed and will be ignored

Reading restart file ...
  restart file = 2 Aug 2023, LAMMPS = 2 Aug 2023
  restoring atom style atomic from restart
  triclinic box = (0.051581377 0.051424855 0.051131404) to (17.738419 17.738575 17.738869) with tilt (0 0 0)
  1 by 1 by 1 MPI processor grid
  pair style eam/alloy stores no restart info
  500 atoms
  read_restart CPU = 0.000 seconds
Changing box ...
  triclinic box = (0.051581377 0.051424855 0.051131404) to (17.738419 17.738593 17.738869) with tilt (0 0 0)
  triclinic box = (0.051581377 0.051424855 0.051131404) to (17.738419 17.738593 17.738869) with tilt (0 0 0)
Neighbor list info ...
  update: every = 1 steps, delay = 0 steps, check = yes
  max neighbors/atom: 2000, page size: 100000
  master list distance cutoff = 6.80375
  ghost atom cutoff = 6.80375
  1 neighbor lists, perpetual/occasional/extra = 1 0 0
  (1) pair eam/alloy, perpetual
      attributes: half, newton on
      pair build: half/nsq/newton
      stencil: none
      bin: none
Setting up cg style minimization ...
  Unit style    : metal
  Current step  : 100
Per MPI rank memory allocation (min/avg/max) = 4.482 | 4.482 | 4.482 Mbytes
   Step          Temp          PotEng         Press           Pxx            Pyy            Pzz            Pxy            Pxz            Pyz             Lx             Ly             Lz           Volume    
       100   0             -2181.1305     -465.20409     -464.29        -466.25494     -465.06733      75.346364     -38.379047     -49.582574      17.686837      17.687168      17.687737      5533.2559    
       101   0             -2181.3074      467.65151      481.10219      434.97536      486.87697      124.36874     -136.83399     -69.900065      17.686837      17.687168      17.687737      5533.2559    
       102   0             -2181.374       1031.2223      1057.8764      972.6105       1063.1798      173.50521     -242.16616     -99.378422      17.686837      17.687168      17.687737      5533.2559    
       103   0             -2181.3867      880.80372      904.20294      820.59721      917.611        179.06864     -230.79609     -89.670937      17.686837      17.687168      17.687737      5533.2559    
       104   0             -2181.3913      863.73369      888.51204      796.22485      906.46418      179.73626     -243.19231     -96.723553      17.686837      17.687168      17.687737      5533.2559    
       105   0             -2181.3928      966.43558      988.4333       899.26118      1011.6123      186.33763     -247.10994     -107.81725      17.686837      17.687168      17.687737      5533.2559    
       106   0             -2181.3933      944.96985      962.92257      880.07649      991.91048      182.83169     -241.70767     -110.28045      17.686837      17.687168      17.687737      5533.2559    
       107   0             -2181.3934      930.07166      946.21809      866.56796      977.42893      181.70823     -240.95757     -110.10901      17.686837      17.687168      17.687737      5533.2559    
       108   0             -2181.3934      933.63787      949.61689      870.09996      981.19675      181.14806     -241.24903     -108.55993      17.686837      17.687168      17.687737      5533.2559    
       109   0             -2181.3935      934.39233      950.34039      870.56763      982.26897      181.19901     -241.43791     -107.77278      17.686837      17.687168      17.687737      5533.2559    
       110   0             -2181.3935      934.28756      950.51566      870.20177      982.14523      181.57308     -241.8113      -108.00332      17.686837      17.687168      17.687737      5533.2559    
       111   0             -2181.3935      934.95296      951.35192      870.5475       982.95947      181.73224     -241.97666     -108.23371      17.686837      17.687168      17.687737      5533.2559    
       112   0             -2181.3935      933.44674      950.12192      868.68718      981.53112      181.5876      -241.60586     -108.16178      17.686837      17.687168      17.687737      5533.2559    
       113   0             -2181.3935      933.61768      950.19895      868.72489      981.9292       181.46587     -241.74565     -108.35086      17.686837      17.687168      17.687737      5533.2559    
       114   0             -2181.3935      934.3351       950.83838      869.44834      982.71858      181.55988     -242.07871     -108.53019      17.686837      17.687168      17.687737      5533.2559    
       115   0             -2181.3935      934.20998      950.68698      869.46031      982.48266      181.48014     -242.0324      -108.57247      17.686837      17.687168      17.687737      5533.2559    
       116   0             -2181.3935      934.14056      950.58756      869.52643      982.30768      181.39648     -241.97064     -108.55767      17.686837      17.687168      17.687737      5533.2559    
       117   0             -2181.3935      934.08664      950.56235      869.4744       982.22318      181.39346     -241.93403     -108.51635      17.686837      17.687168      17.687737      5533.2559    
       118   0             -2181.3935      934.07431      950.57409      869.47996      982.16886      181.43        -241.93084     -108.50305      17.686837      17.687168      17.687737      5533.2559    
       119   0             -2181.3935      934.15071      950.684        869.55481      982.21333      181.43894     -241.94575     -108.49632      17.686837      17.687168      17.687737      5533.2559    
       120   0             -2181.3935      934.19174      950.73876      869.58478      982.25168      181.43974     -241.95143     -108.48463      17.686837      17.687168      17.687737      5533.2559    
       121   0             -2181.3935      934.17401      950.71808      869.55893      982.24502      181.43715     -241.94469     -108.48863      17.686837      17.687168      17.687737      5533.2559    
       122   0             -2181.3935      934.17352      950.70913      869.56398      982.24746      181.44343     -241.94639     -108.49643      17.686837      17.687168      17.687737      5533.2559    
       123   0             -2181.3935      934.1674       950.69764      869.5642       982.24036      181.45136     -241.94108     -108.49824      17.686837      17.687168      17.687737      5533.2559    
       124   0             -2181.3935      934.16018      950.68956      869.55594      982.23503      181.45044     -241.94084     -108.49765      17.686837      17.687168      17.687737      5533.2559    
       125   0             -2181.3935      934.16071      950.69045      869.55418      982.2375       181.44807     -241.94229     -108.49661      17.686837      17.687168      17.687737      5533.2559    
       126   0             -2181.3935      934.16136      950.69317      869.55249      982.23841      181.44962     -241.9436      -108.49753      17.686837      17.687168      17.687737      5533.2559    
       127   0             -2181.3935      934.1602       950.69275      869.55073      982.23711      181.44994     -241.94358     -108.49625      17.686837      17.687168      17.687737      5533.2559    
       128   0             -2181.3935      934.16257      950.69525      869.55274      982.23974      181.4496      -241.94415     -108.49513      17.686837      17.687168      17.687737      5533.2559    
       129   0             -2181.3935      934.16274      950.69593      869.55277      982.23951      181.44942     -241.94358     -108.49509      17.686837      17.687168      17.687737      5533.2559    
       130   0             -2181.3935      934.16302      950.69611      869.55321      982.23974      181.44942     -241.94359     -108.49512      17.686837      17.687168      17.687737      5533.2559    
       131   0             -2181.3935      934.1632       950.69617      869.55355      982.23986      181.4495      -241.94347     -108.4951       17.686837      17.687168      17.687737      5533.2559    
       132   0             -2181.3935      934.16297      950.6959       869.55333      982.23968      181.44947     -241.94345     -108.49509      17.686837      17.687168      17.687737      5533.2559    
       133   0             -2181.3935      934.16292      950.69583      869.55327      982.23967      181.4494      -241.94349     -108.49518      17.686837      17.687168      17.687737      5533.2559    
       134   0             -2181.3935      934.16309      950.696        869.55341      982.23984      181.44935     -241.94352     -108.49526      17.686837      17.687168      17.687737      5533.2559    
       135   0             -2181.3935      934.16308      950.69601      869.55338      982.23983      181.44937     -241.94355     -108.49515      17.686837      17.687168      17.687737      5533.2559    
       136   0             -2181.3935      934.16307      950.69603      869.55338      982.23979      181.44941     -241.94355     -108.49516      17.686837      17.687168      17.687737      5533.2559    
[...]
       153   0             -2181.3935      936.0271       952.25465      872.02924      983.79742      182.63664     -241.94027     -108.49353      17.686837      17.68715       17.687737      5533.2504    
       154   0             -2181.3935      936.0271       952.25465      872.02924      983.79742      182.63664     -241.94027     -108.49353      17.686837      17.68715       17.687737      5533.2504    
       155   0             -2181.3935      936.0271       952.25465      872.02924      983.79742      182.63664     -241.94027     -108.49353      17.686837      17.68715       17.687737      5533.2504    
       156   0             -2181.3935      936.0271       952.25465      872.02924      983.79742      182.63664     -241.94027     -108.49353      17.686837      17.68715       17.687737      5533.2504    
       157   0             -2181.3935      936.0271       952.25465      872.02924      983.79742      182.63664     -241.94027     -108.49353      17.686837      17.68715       17.687737      5533.2504    
       158   0             -2181.3935      936.0271       952.25465      872.02924      983.79742      182.63664     -241.94027     -108.49353      17.686837      17.68715       17.687737      5533.2504    
       159   0             -2181.3935      936.0271       952.25465      872.02924      983.79742      182.63664     -241.94027     -108.49353      17.686837      17.68715       17.687737      5533.2504    
       160   0             -2181.3935      936.0271       952.25465      872.02924      983.79742      182.63664     -241.94027     -108.49353      17.686837      17.68715       17.687737      5533.2504    
Loop time of 0.139911 on 1 procs for 60 steps with 500 atoms

100.5% CPU use with 1 MPI tasks x 1 OpenMP threads

Minimization stats:
  Stopping criterion = force tolerance
  Energy initial, next-to-last, final = 
     -2181.13045493572  -2181.39349828298  -2181.39349828298
  Force two-norm initial, final = 2.1301169 8.1755781e-11
  Force max component initial, final = 0.17778759 1.0332877e-11
  Final line search alpha, max atom move = 1 1.0332877e-11
  Iterations, force evaluations = 60 118

MPI task timing breakdown:
Section |  min time  |  avg time  |  max time  |%varavg| %total
---------------------------------------------------------------
Pair    | 0.13735    | 0.13735    | 0.13735    |   0.0 | 98.17
Neigh   | 0          | 0          | 0          |   0.0 |  0.00
Comm    | 0.000687   | 0.000687   | 0.000687   |   0.0 |  0.49
Output  | 0.000917   | 0.000917   | 0.000917   |   0.0 |  0.66
Modify  | 0          | 0          | 0          |   0.0 |  0.00
Other   |            | 0.000958   |            |       |  0.68

Nlocal:            500 ave         500 max         500 min
Histogram: 1 0 0 0 0 0 0 0 0 0
Nghost:           1956 ave        1956 max        1956 min
Histogram: 1 0 0 0 0 0 0 0 0 0
Neighs:          33500 ave       33500 max       33500 min
Histogram: 1 0 0 0 0 0 0 0 0 0

Total # of neighbors = 33500
Ave neighs/atom = 67
Neighbor list builds = 0
Dangerous builds = 0
OMP_NUM_THREADS environment is not set. Defaulting to 1 thread. (src/comm.cpp:98)
  using 1 OpenMP thread(s) per MPI task
Loaded 1 plugins from F:\Lammps\LAMMPS 64-bit 2Aug2023\plugins

The 'box' command has been removed and will be ignored

Reading restart file ...
  restart file = 2 Aug 2023, LAMMPS = 2 Aug 2023
  restoring atom style atomic from restart
  triclinic box = (0.051581377 0.051424855 0.051131404) to (17.738419 17.738575 17.738869) with tilt (0 0 0)
  1 by 1 by 1 MPI processor grid
  pair style eam/alloy stores no restart info
  500 atoms
  read_restart CPU = 0.000 seconds
Changing box ...
  triclinic box = (0.051581377 0.051424855 0.051131404) to (17.738419 17.738575 17.738869) with tilt (1.768715e-05 0 0)
Neighbor list info ...
  update: every = 1 steps, delay = 0 steps, check = yes
  max neighbors/atom: 2000, page size: 100000
  master list distance cutoff = 6.80375
  ghost atom cutoff = 6.80375
  1 neighbor lists, perpetual/occasional/extra = 1 0 0
  (1) pair eam/alloy, perpetual
      attributes: half, newton on
      pair build: half/nsq/newton
      stencil: none
      bin: none
Setting up cg style minimization ...
  Unit style    : metal
  Current step  : 100
Per MPI rank memory allocation (min/avg/max) = 4.482 | 4.482 | 4.482 Mbytes
   Step          Temp          PotEng         Press           Pxx            Pyy            Pzz            Pxy            Pxz            Pyz             Lx             Ly             Lz           Volume    
       100   0             -2181.1305     -463.32021     -462.7147      -463.75763     -463.48831      74.160608     -38.377819     -49.580981      17.686837      17.68715       17.687737      5533.2504    
       101   0             -2181.3074      469.52217      482.6648       437.45663      488.44508      123.19159     -136.83295     -69.89991       17.686837      17.68715       17.687737      5533.2504    
       102   0             -2181.374       1033.0631      1059.4082      975.06239      1064.7187      172.32943     -242.16223     -99.378568      17.686837      17.68715       17.687737      5533.2504    
       103   0             -2181.3867      882.66247      905.75364      823.06614      919.16763      177.89411     -230.79332     -89.67062       17.686837      17.68715       17.687737      5533.2504    
       104   0             -2181.3913      865.58433      890.05478      798.68552      908.01269      178.56079     -243.18909     -96.722805      17.686837      17.68715       17.687737      5533.2504    
       105   0             -2181.3928      968.28969      989.97926      901.72539      1013.1644      185.16194     -247.10752     -107.81729      17.686837      17.68715       17.687737      5533.2504    
       106   0             -2181.3933      946.82634      964.47107      882.54291      993.46504      181.65636     -241.7055      -110.28023      17.686837      17.68715       17.687737      5533.2504    
       107   0             -2181.3934      931.92624      947.76467      869.0324       978.98165      180.53279     -240.95525     -110.10889      17.686837      17.68715       17.687737      5533.2504    
       108   0             -2181.3934      935.49241      951.16353      872.56428      982.74942      179.9726      -241.24675     -108.55984      17.686837      17.68715       17.687737      5533.2504    
       109   0             -2181.3935      936.24718      951.88741      873.03208      983.82204      180.02361     -241.43566     -107.77272      17.686837      17.68715       17.687737      5533.2504    
       110   0             -2181.3935      936.14195      952.06229      872.6657       983.69785      180.39763     -241.809       -108.00321      17.686837      17.68715       17.687737      5533.2504    
       111   0             -2181.3935      936.80764      952.89889      873.01163      984.51241      180.55685     -241.97444     -108.23366      17.686837      17.68715       17.687737      5533.2504    
       112   0             -2181.3935      935.3014       951.66889      871.15123      983.08408      180.41221     -241.60361     -108.16172      17.686837      17.68715       17.687737      5533.2504    
       113   0             -2181.3935      935.47207      951.74566      871.18864      983.48189      180.29048     -241.74338     -108.35077      17.686837      17.68715       17.687737      5533.2504    
       114   0             -2181.3935      936.18964      952.38525      871.91224      984.27144      180.38451     -242.07646     -108.53012      17.686837      17.68715       17.687737      5533.2504    
       115   0             -2181.3935      936.06457      952.23389      871.92427      984.03556      180.30478     -242.03016     -108.57239      17.686837      17.68715       17.687737      5533.2504    
       116   0             -2181.3935      935.99511      952.13443      871.99037      983.86054      180.22111     -241.9684      -108.5576       17.686837      17.68715       17.687737      5533.2504    
       117   0             -2181.3935      935.94123      952.10925      871.93838      983.77607      180.21808     -241.93178     -108.51628      17.686837      17.68715       17.687737      5533.2504    
       118   0             -2181.3935      935.92888      952.12098      871.94393      983.72174      180.25462     -241.92858     -108.50298      17.686837      17.68715       17.687737      5533.2504    
       119   0             -2181.3935      936.00529      952.23088      872.01877      983.7662       180.26356     -241.9435      -108.49625      17.686837      17.68715       17.687737      5533.2504    
       120   0             -2181.3935      936.04632      952.28565      872.04876      983.80455      180.26436     -241.94918     -108.48457      17.686837      17.68715       17.687737      5533.2504    
       121   0             -2181.3935      936.02859      952.26497      872.02291      983.7979       180.26178     -241.94244     -108.48856      17.686837      17.68715       17.687737      5533.2504    
       122   0             -2181.3935      936.0281       952.25601      872.02795      983.80033      180.26805     -241.94413     -108.49636      17.686837      17.68715       17.687737      5533.2504    
       123   0             -2181.3935      936.02198      952.24453      872.02818      983.79324      180.27598     -241.93883     -108.49817      17.686837      17.68715       17.687737      5533.2504    
       124   0             -2181.3935      936.01475      952.23644      872.01992      983.7879       180.27506     -241.93859     -108.49758      17.686837      17.68715       17.687737      5533.2504    
       125   0             -2181.3935      936.01529      952.23733      872.01815      983.79037      180.27269     -241.94004     -108.49655      17.686837      17.68715       17.687737      5533.2504    
       126   0             -2181.3935      936.01593      952.24005      872.01646      983.79129      180.27424     -241.94134     -108.49747      17.686837      17.68715       17.687737      5533.2504    
       127   0             -2181.3935      936.01477      952.23963      872.0147       983.78998      180.27456     -241.94133     -108.49619      17.686837      17.68715       17.687737      5533.2504    
       128   0             -2181.3935      936.01715      952.24214      872.01671      983.79261      180.27422     -241.9419      -108.49506      17.686837      17.68715       17.687737      5533.2504    
       129   0             -2181.3935      936.01732      952.24282      872.01675      983.79238      180.27404     -241.94132     -108.49502      17.686837      17.68715       17.687737      5533.2504    
       130   0             -2181.3935      936.0176       952.243        872.01718      983.79262      180.27404     -241.94133     -108.49505      17.686837      17.68715       17.687737      5533.2504    
       131   0             -2181.3935      936.01777      952.24305      872.01753      983.79274      180.27412     -241.94121     -108.49503      17.686837      17.68715       17.687737      5533.2504    
       132   0             -2181.3935      936.01755      952.24279      872.01731      983.79256      180.27409     -241.94119     -108.49502      17.686837      17.68715       17.687737      5533.2504    
       133   0             -2181.3935      936.0175       952.24271      872.01725      983.79254      180.27402     -241.94124     -108.49511      17.686837      17.68715       17.687737      5533.2504    
       134   0             -2181.3935      936.01766      952.24288      872.01739      983.79272      180.27397     -241.94127     -108.4952       17.686837      17.68715       17.687737      5533.2504    
       135   0             -2181.3935      936.01765      952.24289      872.01736      983.79271      180.27399     -241.9413      -108.49509      17.686837      17.68715       17.687737      5533.2504    
       136   0             -2181.3935      936.01764      952.24292      872.01735      983.79266      180.27403     -241.9413      -108.4951       17.686837      17.68715       17.687737      5533.2504    
       137   0             -2181.3935      936.01766      952.24294      872.01738      983.79265      180.27403     -241.9413      -108.49512      17.686837      17.68715       17.687737      5533.2504    
       138   0             -2181.3935      936.01765      952.24294      872.01736      983.79263      180.27402     -241.94128     -108.49511      17.686837      17.68715       17.687737      5533.2504    
       139   0             -2181.3935      936.01766      952.24296      872.01737      983.79265      180.27401     -241.94129     -108.49511      17.686837      17.68715       17.687737      5533.2504    
       140   0             -2181.3935      936.01766      952.24295      872.01737      983.79265      180.27401     -241.94129     -108.49511      17.686837      17.68715       17.687737      5533.2504    
       141   0             -2181.3935      936.01766      952.24295      872.01737      983.79265      180.27401     -241.94129     -108.49511      17.686837      17.68715       17.687737      5533.2504    
       142   0             -2181.3935      936.01766      952.24295      872.01737      983.79265      180.27401     -241.94129     -108.49511      17.686837      17.68715       17.687737      5533.2504    
       143   0             -2181.3935      936.01766      952.24295      872.01738      983.79266      180.27401     -241.94129     -108.49511      17.686837      17.68715       17.687737      5533.2504    
       144   0             -2181.3935      936.01766      952.24295      872.01738      983.79265      180.27401     -241.94129     -108.49511      17.686837      17.68715       17.687737      5533.2504    
       145   0             -2181.3935      936.01766      952.24295      872.01738      983.79265      180.27401     -241.94129     -108.49511      17.686837      17.68715       17.687737      5533.2504    
       146   0             -2181.3935      936.01766      952.24295      872.01738      983.79265      180.27401     -241.94129     -108.49511      17.686837      17.68715       17.687737      5533.2504    
       147   0             -2181.3935      936.01766      952.24295      872.01737      983.79265      180.27401     -241.94129     -108.49511      17.686837      17.68715       17.687737      5533.2504    
       148   0             -2181.3935      936.01766      952.24295      872.01738      983.79265      180.27401     -241.94129     -108.49511      17.686837      17.68715       17.687737      5533.2504    
       149   0             -2181.3935      936.01766      952.24295      872.01737      983.79265      180.27401     -241.94129     -108.49511      17.686837      17.68715       17.687737      5533.2504    
       150   0             -2181.3935      936.01766      952.24295      872.01737      983.79265      180.27401     -241.94129     -108.49511      17.686837      17.68715       17.687737      5533.2504    
       151   0             -2181.3935      936.01766      952.24295      872.01737      983.79265      180.27401     -241.94129     -108.49511      17.686837      17.68715       17.687737      5533.2504    
       152   0             -2181.3935      936.01766      952.24295      872.01737      983.79265      180.27401     -241.94129     -108.49511      17.686837      17.68715       17.687737      5533.2504    
       153   0             -2181.3935      936.01766      952.24295      872.01737      983.79265      180.27401     -241.94129     -108.49511      17.686837      17.68715       17.687737      5533.2504    
       154   0             -2181.3935      936.01766      952.24295      872.01737      983.79265      180.27401     -241.94129     -108.49511      17.686837      17.68715       17.687737      5533.2504    
       155   0             -2181.3935      936.01766      952.24295      872.01737      983.79265      180.27401     -241.94129     -108.49511      17.686837      17.68715       17.687737      5533.2504    
       156   0             -2181.3935      936.01766      952.24295      872.01737      983.79265      180.27401     -241.94129     -108.49511      17.686837      17.68715       17.687737      5533.2504    
       157   0             -2181.3935      936.01766      952.24295      872.01737      983.79265      180.27401     -241.94129     -108.49511      17.686837      17.68715       17.687737      5533.2504    
       158   0             -2181.3935      936.01766      952.24295      872.01737      983.79265      180.27401     -241.94129     -108.49511      17.686837      17.68715       17.687737      5533.2504    
       159   0             -2181.3935      936.01766      952.24295      872.01737      983.79265      180.27401     -241.94129     -108.49511      17.686837      17.68715       17.687737      5533.2504    
       160   0             -2181.3935      936.01766      952.24295      872.01737      983.79265      180.27401     -241.94129     -108.49511      17.686837      17.68715       17.687737      5533.2504    
Loop time of 0.139545 on 1 procs for 60 steps with 500 atoms

89.6% CPU use with 1 MPI tasks x 1 OpenMP threads

Minimization stats:
  Stopping criterion = force tolerance
  Energy initial, next-to-last, final = 
      -2181.1304554562  -2181.39349953633  -2181.39349953634
  Force two-norm initial, final = 2.1301194 8.1760284e-11
  Force max component initial, final = 0.17778981 1.0354942e-11
  Final line search alpha, max atom move = 1 1.0354942e-11
  Iterations, force evaluations = 60 118

MPI task timing breakdown:
Section |  min time  |  avg time  |  max time  |%varavg| %total
---------------------------------------------------------------
Pair    | 0.13698    | 0.13698    | 0.13698    |   0.0 | 98.16
Neigh   | 0          | 0          | 0          |   0.0 |  0.00
Comm    | 0.000713   | 0.000713   | 0.000713   |   0.0 |  0.51
Output  | 0.000892   | 0.000892   | 0.000892   |   0.0 |  0.64
Modify  | 0          | 0          | 0          |   0.0 |  0.00
Other   |            | 0.000959   |            |       |  0.69

Nlocal:            500 ave         500 max         500 min
Histogram: 1 0 0 0 0 0 0 0 0 0
Nghost:           1956 ave        1956 max        1956 min
Histogram: 1 0 0 0 0 0 0 0 0 0
Neighs:          33500 ave       33500 max       33500 min
Histogram: 1 0 0 0 0 0 0 0 0 0

Total # of neighbors = 33500
Ave neighs/atom = 67
Neighbor list builds = 0
Dangerous builds = 0
=========================================
Components of the Elastic Constant Tensor
=========================================
Elastic Constant C11all = 246.786903301501 GPa
Elastic Constant C22all = 246.990795834499 GPa
Elastic Constant C33all = 247.828375955491 GPa
Elastic Constant C12all = 155.269383813502 GPa
Elastic Constant C13all = 155.164145089002 GPa
Elastic Constant C23all = 155.520657280496 GPa
Elastic Constant C44all = 117.94912052195 GPa
Elastic Constant C55all = 117.904081944049 GPa
Elastic Constant C66all = 118.1313269471 GPa
Elastic Constant C14all = 0.279087006752433 GPa
Elastic Constant C15all = -0.246433113672538 GPa
Elastic Constant C16all = 0.603028036503475 GPa
Elastic Constant C24all = 0.0968971092281665 GPa
Elastic Constant C25all = 0.288326364848217 GPa
Elastic Constant C26all = 0.593416486753995 GPa
Elastic Constant C34all = 0.241975601122249 GPa
Elastic Constant C35all = -0.144269170425105 GPa
Elastic Constant C36all = 0.247671736679422 GPa
Elastic Constant C45all = -0.149982298175019 GPa
Elastic Constant C46all = 0.0914492846497977 GPa
Elastic Constant C56all = 0.0508657587247399 GPa
=========================================
Average properties for a cubic crystal
=========================================
Bulk Modulus = 185.946049717499 GPa
Shear Modulus 1 = 117.9948431377 GPa
Shear Modulus 2 = 45.9419814847485 GPa
Poisson Ratio = 0.385864127137821
Total wall time: 0:00:02
