LAMMPS (2 Aug 2023 - Update 3)
OMP_NUM_THREADS environment is not set. Defaulting to 1 thread. (src/comm.cpp:98)
  using 1 OpenMP thread(s) per MPI task
Loaded 1 plugins from F:\Lammps\LAMMPS 64-bit 2Aug2023\plugins
Reading data file ...
  orthogonal box = (0 0 0) to (17.79 17.79 17.79)
  1 by 1 by 1 MPI processor grid
  reading atoms ...
  500 atoms
  read_data CPU = 0.001 seconds
Changing box ...
  triclinic box = (0 0 0) to (17.79 17.79 17.79) with tilt (0 0 0)
Neighbor list info ...
  update: every = 1 steps, delay = 0 steps, check = yes
  max neighbors/atom: 2000, page size: 100000
  master list distance cutoff = 6.80375
  ghost atom cutoff = 6.80375
  1 neighbor lists, perpetual/occasional/extra = 1 0 0
  (1) pair eam/alloy, perpetual
      attributes: half, newton on
      pair build: half/nsq/newton
      stencil: none
      bin: none
Setting up cg style minimization ...
  Unit style    : metal
  Current step  : 0
WARNING: Energy due to 3 extra global DOFs will be included in minimizer energies
 (src/min.cpp:228)
Per MPI rank memory allocation (min/avg/max) = 4.492 | 4.492 | 4.492 Mbytes
   Step          Temp          PotEng         Press           Pxx            Pyy            Pzz            Pxy            Pxz            Pyz             Lx             Ly             Lz           Volume    
         0   0             -2179.6542     -33880.603     -33995.193     -33928.449     -33718.168      106.21609     -82.547161     -110.16087      17.79          17.79          17.79          5630.2521    
         1   0             -2179.6895     -33342.534     -33456.169     -33391.118     -33180.314      105.42283     -82.526502     -109.91019      17.788221      17.788224      17.788235      5628.5689    
         2   0             -2179.7243     -32804.065     -32916.742     -32853.38      -32642.073      104.62614     -82.50595      -109.65552      17.786442      17.786449      17.786471      5626.8861    
         3   0             -2179.7585     -32265.193     -32376.907     -32315.232     -32103.439      103.82588     -82.48513      -109.39642      17.784663      17.784673      17.784707      5625.2036    
         4   0             -2179.7921     -31725.932     -31836.681     -31776.688     -31564.427      103.02191     -82.464053     -109.13376      17.782884      17.782898      17.782943      5623.5216    
         5   0             -2179.8251     -31186.362     -31296.141     -31237.827     -31025.118      102.21307     -82.444474     -108.86845      17.781105      17.781122      17.781179      5621.8399    
         6   0             -2179.8575     -30646.533     -30755.337     -30698.699     -30485.565      101.39813     -82.427492     -108.60081      17.779326      17.779346      17.779416      5620.1586    
         7   0             -2179.8894     -30106.455     -30214.278     -30159.311     -29945.777      100.57706     -82.413016     -108.331        17.777547      17.777571      17.777652      5618.4777    
         8   0             -2179.9207     -29566.079     -29672.912     -29619.617     -29405.707      99.748395     -82.400038     -108.05777      17.775768      17.775795      17.775889      5616.7971    
         9   0             -2179.9515     -29025.336     -29131.174     -29079.55      -28865.284      98.914941     -82.386615     -107.78133      17.773989      17.774019      17.774126      5615.117     
        10   0             -2179.9816     -28484.195     -28589.031     -28539.079     -28324.475      98.079643     -82.37356      -107.50425      17.77221       17.772243      17.772363      5613.4372    
        11   0             -2180.0112     -27942.677     -28046.509     -27998.224     -27783.299      97.243716     -82.361512     -107.22697      17.770431      17.770467      17.770601      5611.7579    
        12   0             -2180.0402     -27400.832     -27503.654     -27457.032     -27241.81       96.408647     -82.351489     -106.94975      17.768652      17.768691      17.768839      5610.0789    
        13   0             -2180.0686     -26858.693     -26960.5       -26915.537     -26700.043      95.570592     -82.343331     -106.67093      17.766873      17.766916      17.767077      5608.4004    
        14   0             -2180.0965     -26316.309     -26417.093     -26373.787     -26158.048      94.728002     -82.33504      -106.38813      17.765094      17.765139      17.765315      5606.7222    
        15   0             -2180.1238     -25773.636     -25873.387     -25831.736     -25615.785      93.880622     -82.325404     -106.1016       17.763315      17.763363      17.763553      5605.0444    
        16   0             -2180.1505     -25230.625     -25329.337     -25289.338     -25073.2        93.028972     -82.314366     -105.81198      17.761536      17.761587      17.761792      5603.3671    
        17   0             -2180.1766     -24687.254     -24784.922     -24746.569     -24530.272      92.174317     -82.302092     -105.51991      17.759757      17.759811      17.760031      5601.6901    
        18   0             -2180.2022     -24143.504     -24240.124     -24203.411     -23986.976      91.316345     -82.291146     -105.22622      17.757978      17.758035      17.75827       5600.0136    
        19   0             -2180.2272     -23599.459     -23695.027     -23659.949     -23443.4        90.453384     -82.283096     -104.92962      17.756199      17.756259      17.75651       5598.3374    
        20   0             -2180.2516     -23055.135     -23149.646     -23116.197     -22899.562      89.585377     -82.278034     -104.63018      17.75442       17.754482      17.75475       5596.6617    
        21   0             -2180.2754     -22510.568     -22604.011     -22572.189     -22355.502      88.712664     -82.275334     -104.32773      17.752641      17.752706      17.75299       5594.9864    
        22   0             -2180.2987     -21965.68      -22058.047     -22027.846     -21811.147      87.837017     -82.272145     -104.02257      17.750862      17.750929      17.751231      5593.3115    
        23   0             -2180.3214     -21420.503     -21511.788     -21483.2       -21266.521      86.958985     -82.26774      -103.71497      17.749083      17.749153      17.749472      5591.6371    
        24   0             -2180.3435     -20875.029     -20965.226     -20938.243     -20721.62       86.078549     -82.262004     -103.40516      17.747304      17.747376      17.747713      5589.963     
        25   0             -2180.365      -20329.297     -20418.404     -20393.017     -20176.47       85.195699     -82.257765     -103.09439      17.745525      17.745599      17.745955      5588.2894    
        26   0             -2180.386      -19783.321     -19871.323     -19847.535     -19631.103      84.310705     -82.255238     -102.78369      17.743746      17.743823      17.744197      5586.6163    
        27   0             -2180.4064     -19237.046     -19323.934     -19301.743     -19085.461      83.423626     -82.254452     -102.47299      17.741967      17.742046      17.742439      5584.9436    
        28   0             -2180.4262     -18690.479     -18776.239     -18755.645     -18539.553      82.534609     -82.254573     -102.16186      17.740188      17.740269      17.740682      5583.2713    
        29   0             -2180.4454     -18143.636     -18228.264     -18209.256     -17993.388      81.642011     -82.253516     -101.84689      17.738409      17.738492      17.738926      5581.5995    
        30   0             -2180.4641     -17596.538     -17680.028     -17662.594     -17446.992      80.745445     -82.251444     -101.52742      17.73663       17.736715      17.73717       5579.9281    
        31   0             -2180.4822     -17049.214     -17131.562     -17115.688     -16900.394      79.844492     -82.248447     -101.20362      17.734851      17.734937      17.735414      5578.2573    
        32   0             -2180.4997     -16501.632     -16582.824     -16568.503     -16353.57       78.940441     -82.24579      -100.87755      17.733072      17.73316       17.733659      5576.5869    
        33   0             -2180.5166     -15953.757     -16033.78      -16021.005     -15806.486      78.035474     -82.247011     -100.55255      17.731293      17.731383      17.731905      5574.9169    
        34   0             -2180.533      -15405.595     -15484.437     -15473.2       -15259.147      77.129818     -82.252411     -100.22905      17.729514      17.729605      17.730151      5573.2475    
        35   0             -2180.5487     -14857.153     -14934.802     -14925.097     -14711.561      76.223424     -82.262467     -99.906683      17.727735      17.727827      17.728398      5571.5786    
        36   0             -2180.5639     -14308.509     -14384.958     -14376.775     -14163.794      75.314041     -82.273764     -99.583049      17.725956      17.726049      17.726646      5569.9102    
        37   0             -2180.5786     -13759.696     -13834.936     -13828.264     -13615.887      74.399987     -82.283525     -99.2555        17.724177      17.724271      17.724894      5568.2423    
        38   0             -2180.5926     -13210.721     -13284.741     -13279.571     -13067.85       73.48133      -82.291991     -98.923773      17.722398      17.722493      17.723144      5566.575     
        39   0             -2180.6061     -12661.561     -12734.341     -12730.664     -12519.679      72.558323     -82.299697     -98.58775       17.720619      17.720715      17.721394      5564.9082    
        40   0             -2180.619      -12112.16      -12183.68      -12181.485     -11971.315      71.633204     -82.309766     -98.249973      17.71884       17.718937      17.719645      5563.242     
        41   0             -2180.6313     -11562.49      -11632.734     -11632.009     -11422.727      70.706874     -82.32219      -97.911658      17.717061      17.717158      17.717897      5561.5763    
        42   0             -2180.6431     -11012.573     -11081.529     -11082.259     -10873.93       69.779687     -82.33632      -97.572772      17.715282      17.715379      17.71615       5559.9113    
        43   0             -2180.6543     -10462.52      -10530.176     -10532.346     -10325.039      68.852157     -82.352884     -97.233377      17.713503      17.7136        17.714404      5558.2471    
        44   0             -2180.6649     -9912.412      -9978.7498     -9982.3424     -9776.1437      67.924051     -82.371847     -96.892773      17.711724      17.711821      17.712661      5556.5837    
        45   0             -2180.6749     -9362.3083     -9427.306      -9432.3026     -9227.3165      66.994152     -82.393611     -96.550605      17.709946      17.710042      17.710918      5554.9213    
        46   0             -2180.6843     -8812.1819     -8875.806      -8882.1905     -8678.5492      66.061282     -82.417567     -96.207307      17.708168      17.708263      17.709178      5553.26      
        47   0             -2180.6932     -8262.0463     -8324.2704     -8332.0255     -8129.8431      65.124623     -82.441886     -95.862032      17.70639       17.706484      17.70744       5551.5997    
        48   0             -2180.7015     -7711.9302     -7772.7239     -7781.8313     -7581.2353      64.184195     -82.466555     -95.515609      17.704613      17.704705      17.705704      5549.9407    
        49   0             -2180.7093     -7161.863      -7221.1973     -7231.6319     -7032.7599      63.242664     -82.49213      -95.168049      17.702836      17.702926      17.703971      5548.2829    
        50   0             -2180.7164     -6611.8657     -6669.6971     -6681.4297     -6484.4703      62.302073     -82.52036      -94.821228      17.70106       17.701147      17.702241      5546.6266    
        51   0             -2180.723      -6061.9837     -6118.2711     -6131.2674     -5936.4124      61.36268      -82.550913     -94.475401      17.699284      17.699368      17.700515      5544.9719    
        52   0             -2180.729      -5512.3182     -5567.0143     -5581.2343     -5388.706       60.424135     -82.58342      -94.130448      17.697508      17.697589      17.698792      5543.319     
        53   0             -2180.7345     -4963.0175     -5016.0828     -5031.4781     -4841.4915      59.48478      -82.616656     -93.785512      17.695734      17.69581       17.697075      5541.6682    
        54   0             -2180.7393     -4414.2651     -4465.6359     -4482.1524     -4295.007       58.543083     -82.650049     -93.439032      17.69396       17.694031      17.695363      5540.0198    
        55   0             -2180.7436     -3866.2134     -3915.8055     -3933.3784     -3749.4562      57.599052     -82.68327      -93.090694      17.692188      17.692252      17.693659      5538.3743    
        56   0             -2180.7474     -3319.008      -3366.7005     -3385.254      -3205.0696      56.653791     -82.715658     -92.741421      17.690417      17.690473      17.691963      5536.7324    
        57   0             -2180.7506     -2772.868      -2818.5084     -2837.946      -2662.1496      55.707926     -82.745626     -92.392111      17.688648      17.688694      17.690279      5535.095     
        58   0             -2180.7532     -2228.2452     -2271.6465     -2291.8363     -2121.2528      54.763884     -82.773345     -92.044327      17.686881      17.686915      17.68861       5533.4635    
        59   0             -2180.7553     -1685.9297     -1726.839      -1747.5896     -1583.3605      53.822625     -82.797095     -91.698724      17.685117      17.685136      17.686964      5531.8404    
        60   0             -2180.7569     -1147.4949     -1185.5347     -1206.5464     -1050.4036      52.884418     -82.814452     -91.355391      17.68336       17.683357      17.685352      5530.2301    
        61   0             -2180.758      -616.32488     -650.76427     -671.50272     -526.70765      51.952119     -82.817594     -91.015439      17.681612      17.681578      17.683803      5528.643     
        62   0             -2180.7587     -103.11061     -132.16167     -151.33639     -25.833764      51.033884     -82.779587     -90.683411      17.679888      17.679799      17.682408      5527.1116    
        63   0             -2180.7602      281.39585      270.50393      262.04445      311.63918      50.221951     -82.409404     -90.409342      17.678334      17.67802       17.682105      5525.9749    
        64   0             -2180.7614     -156.09216     -160.38078     -162.6426      -145.2531       50.892704     -82.069202     -90.671774      17.679599      17.679186      17.683884      5527.2909    
        65   0             -2180.764       337.39654      341.0049       342.05623      329.12851      49.906695     -81.457515     -90.335072      17.677908      17.677407      17.682702      5525.8368    
        66   0             -2180.7657     -201.60236     -197.87002     -194.59291     -212.34414      50.765913     -80.999538     -90.666309      17.679623      17.679104      17.684481      5527.4594    
        67   0             -2180.7686      327.36879      329.60761      329.75158      322.74717      49.751778     -80.297504     -90.316674      17.678005      17.67752       17.682702      5525.9024    
        68   0             -2180.7705     -213.77824     -213.69157     -212.82674     -214.81641      50.615611     -79.77759      -90.649498      17.679772      17.679299      17.684372      5527.5334    
        69   0             -2180.7735      333.53785      333.27957      331.7227       335.6113       49.563792     -79.065892     -90.28719       17.678075      17.677621      17.682593      5525.922     
        70   0             -2180.7756     -217.99977     -219.24072     -219.23888     -215.5197       50.432142     -78.500699     -90.622986      17.679854      17.679396      17.68436       5527.5852    
        71   0             -2180.7787      343.57038      343.76781      342.48158      344.46177      49.343736     -77.758351     -90.249276      17.678077      17.677617      17.682628      5525.9323    
        72   0             -2180.7808     -204.37128     -204.70239     -204.14011     -204.27134      50.200539     -77.177149     -90.580744      17.679837      17.679366      17.684407      5527.5852    
        73   0             -2180.784       360.49506      361.29426      360.33875      359.85216      49.103648     -76.396738     -90.204763      17.678058      17.677589      17.682649      5525.9238    
        74   0             -2180.7861     -191.81233     -191.87061     -191.17941     -192.38698      49.969586     -75.82019      -90.538304      17.679837      17.679362      17.684425      5527.5894    
        75   0             -2180.7894      373.30082      373.94539      372.82864      373.12844      48.867076     -74.981691     -90.161608      17.678067      17.677599      17.682646      5525.9292    
        76   0             -2180.7915     -178.69721     -178.99766     -178.52272     -178.57124      49.734523     -74.42054      -90.494197      17.679846      17.679373      17.684416      5527.5932    
        77   0             -2180.7951      389.24475      389.81         388.57359      389.35066      48.617852     -73.515598     -90.11414       17.678067      17.677599      17.682638      5525.9268    
        78   0             -2180.797      -163.46914     -163.76951     -163.35438     -163.28354      49.487842     -72.969846     -90.446179      17.679846      17.679372      17.684414      5527.5923    
        79   0             -2180.8009      404.79064      405.45556      404.2205       404.69586      48.359414     -71.983807     -90.064026      17.678067      17.677596      17.682644      5525.9276    
        80   0             -2180.8027     -148.19661     -148.39713     -147.97681     -148.21588      49.232254     -71.457618     -90.395229      17.679846      17.679369      17.68442       5527.5932    
        81   0             -2180.8069      421.62504      422.31835      421.03027      421.52649      48.088065     -70.372197     -90.010075      17.678067      17.677594      17.682644      5525.927     
        82   0             -2180.8087     -131.49271     -131.68907     -131.33433     -131.45474      48.963665     -69.866013     -90.340051      17.679846      17.679368      17.684418      5527.5923    
        83   0             -2180.8133      439.67703      440.38807      439.03539      439.60764      47.799591     -68.652455     -89.951302      17.678067      17.677593      17.682643      5525.9261    
        84   0             -2180.815      -113.74388     -113.92167     -113.62662     -113.68336      48.678364     -68.167778     -90.27973       17.679846      17.679366      17.684418      5527.5915    
        85   0             -2180.8202      459.17571      459.93333      458.52978      459.064        47.487065     -66.780091     -89.886076      17.678067      17.67759       17.682644      5525.9257    
        86   0             -2180.8218     -94.535863     -94.670936     -94.426105     -94.510548      48.369105     -66.318197     -90.212501      17.679846      17.679363      17.684419      5527.5911    
        87   0             -2180.8279      481.2645       482.05292      480.57743      481.16314      47.136953     -64.673129     -89.811002      17.678067      17.677588      17.682643      5525.9247    
        88   0             -2180.8294     -72.742378     -72.853215     -72.681874     -72.692045      48.02237      -64.235339     -90.135186      17.679846      17.679361      17.684418      5527.5901    
        89   0             -2180.8369      507.62859      508.47904      506.93592      507.47081      46.71949      -62.14552      -89.718598      17.678067      17.677584      17.682645      5525.924     
        90   0             -2180.8384     -46.717946     -46.772117     -46.670196     -46.711525      47.608526     -61.734258     -90.040335      17.679846      17.679357      17.68442       5527.5894    
        91   0             -2180.8494      545.21773      546.09251      544.411        545.14969      46.135254     -58.582853     -89.584006      17.678067      17.67758       17.682642      5525.9218    
        92   0             -2180.8508     -9.5535302     -9.5865065     -9.6234379     -9.4506461      47.027662     -58.201306     -89.902691      17.679846      17.679353      17.684417      5527.5872    
        93   0             -2180.899       690.39115      692.30552      690.7464       688.12153      43.706682     -43.516804     -89.015673      17.678094      17.677574      17.682726      5525.9548    
        94   0             -2180.9003      135.46138      136.348        136.37409      133.66205      44.599126     -43.162777     -89.324359      17.679873      17.679348      17.684495      5527.6185    
        95   0             -2180.9012     -416.3874      -416.87114     -415.52552     -416.76553      45.482614     -42.75025      -89.623249      17.681652      17.681127      17.686238      5529.2758    
        96   0             -2180.903       140.9345       140.94535      140.28417      141.57398      44.479513     -42.311968     -89.283165      17.679902      17.679388      17.684459      5527.6284    
        97   0             -2180.9056     -408.00589     -408.95982     -408.00168     -407.05616      45.285791     -41.375568     -89.554999      17.681681      17.68116       17.686231      5529.2931    
        98   0             -2180.9073      155.30695      155.39013      154.72209      155.80864      44.268493     -40.922325     -89.210153      17.679902      17.679384      17.684462      5527.6284    
        99   0             -2180.9109     -386.28004     -386.79518     -385.59585     -386.44908      45.01758      -39.663871     -89.460813      17.681661      17.681131      17.686241      5529.2809    
       100   0             -2180.9127      177.42343      177.94016      177.50312      176.82703      43.997592     -39.185209     -89.114638      17.679882      17.679355      17.684471      5527.6161    
Loop time of 0.116048 on 1 procs for 100 steps with 500 atoms

107.7% CPU use with 1 MPI tasks x 1 OpenMP threads

Minimization stats:
  Stopping criterion = max iterations
  Energy initial, next-to-last, final = 
     -2179.65421315237  -2180.91088490631  -2180.91268182159
  Force two-norm initial, final = 206.24835 2.4596998
  Force max component initial, final = 119.46344 0.61772912
  Final line search alpha, max atom move = 9.850292e-05 6.0848122e-05
  Iterations, force evaluations = 100 100

MPI task timing breakdown:
Section |  min time  |  avg time  |  max time  |%varavg| %total
---------------------------------------------------------------
Pair    | 0.10855    | 0.10855    | 0.10855    |   0.0 | 93.53
Neigh   | 0          | 0          | 0          |   0.0 |  0.00
Comm    | 0.0006     | 0.0006     | 0.0006     |   0.0 |  0.52
Output  | 0.001346   | 0.001346   | 0.001346   |   0.0 |  1.16
Modify  | 0          | 0          | 0          |   0.0 |  0.00
Other   |            | 0.005557   |            |       |  4.79

Nlocal:            500 ave         500 max         500 min
Histogram: 1 0 0 0 0 0 0 0 0 0
Nghost:           1956 ave        1956 max        1956 min
Histogram: 1 0 0 0 0 0 0 0 0 0
Neighs:          33500 ave       33500 max       33500 min
Histogram: 1 0 0 0 0 0 0 0 0 0

Total # of neighbors = 33500
Ave neighs/atom = 67
Neighbor list builds = 0
Dangerous builds = 0
Displacing atoms ...
System init for write_restart ...
OMP_NUM_THREADS environment is not set. Defaulting to 1 thread. (src/comm.cpp:98)
  using 1 OpenMP thread(s) per MPI task
Loaded 1 plugins from F:\Lammps\LAMMPS 64-bit 2Aug2023\plugins

The 'box' command has been removed and will be ignored

Reading restart file ...
  restart file = 2 Aug 2023, LAMMPS = 2 Aug 2023
  restoring atom style atomic from restart
  triclinic box = (0.055058975 0.055322256 0.052764339) to (17.734941 17.734678 17.737236) with tilt (0 0 0)
  1 by 1 by 1 MPI processor grid
  pair style eam/alloy stores no restart info
  500 atoms
  read_restart CPU = 0.000 seconds
Changing box ...
  triclinic box = (0.055058975 0.055322256 0.052764339) to (17.734923 17.734678 17.737236) with tilt (0 0 0)
  triclinic box = (0.055058975 0.055322256 0.052764339) to (17.734923 17.734678 17.737236) with tilt (0 0 0)
  triclinic box = (0.055058975 0.055322256 0.052764339) to (17.734923 17.734678 17.737236) with tilt (0 0 0)
Neighbor list info ...
  update: every = 1 steps, delay = 0 steps, check = yes
  max neighbors/atom: 2000, page size: 100000
  master list distance cutoff = 6.80375
  ghost atom cutoff = 6.80375
  1 neighbor lists, perpetual/occasional/extra = 1 0 0
  (1) pair eam/alloy, perpetual
      attributes: half, newton on
      pair build: half/nsq/newton
      stencil: none
      bin: none
Setting up cg style minimization ...
  Unit style    : metal
  Current step  : 100
Per MPI rank memory allocation (min/avg/max) = 4.483 | 4.483 | 4.483 Mbytes
   Step          Temp          PotEng         Press           Pxx            Pyy            Pzz            Pxy            Pxz            Pyz             Lx             Ly             Lz           Volume    
       100   0             -2180.9127      179.28586      180.39973      179.04394      178.41391      43.980205     -39.139668     -89.102536      17.679864      17.679355      17.684471      5527.6106    
       101   0             -2181.0989      1126.6981      1134.521       1119.6154      1125.9579      27.500457      54.935339     -87.730052      17.679864      17.679355      17.684471      5527.6106    
       102   0             -2181.1672      1780.7621      1809.2895      1752.7596      1780.2372      29.516905      121.76616     -69.059699      17.679864      17.679355      17.684471      5527.6106    
       103   0             -2181.1796      1609.9606      1649.0201      1568.9102      1611.9516      45.012554      102.93215     -73.771408      17.679864      17.679355      17.684471      5527.6106    
       104   0             -2181.1839      1667.4622      1718.0301      1620.8541      1663.5026      45.767468      112.41561     -68.756258      17.679864      17.679355      17.684471      5527.6106    
       105   0             -2181.1851      1748.7062      1804.74        1702.7815      1738.597       44.486235      121.93219     -69.996541      17.679864      17.679355      17.684471      5527.6106    
       106   0             -2181.1857      1706.8847      1765.2146      1662.6109      1692.8287      47.932241      119.81509     -64.78482       17.679864      17.679355      17.684471      5527.6106    
       107   0             -2181.1859      1699.6237      1757.4083      1656.7512      1684.7117      47.267328      119.69331     -64.110694      17.679864      17.679355      17.684471      5527.6106    
       108   0             -2181.186       1703.1945      1760.4456      1660.5452      1688.5925      48.89277       119.44563     -64.172253      17.679864      17.679355      17.684471      5527.6106    
       109   0             -2181.186       1703.7008      1759.2         1661.1543      1690.7481      48.052767      119.19199     -65.228905      17.679864      17.679355      17.684471      5527.6106    
       110   0             -2181.1861      1704.1206      1758.8963      1661.5461      1691.9193      48.2216        119.43259     -64.982701      17.679864      17.679355      17.684471      5527.6106    
       111   0             -2181.1861      1703.0015      1757.6259      1660.0489      1691.3299      48.085192      117.89141     -65.592444      17.679864      17.679355      17.684471      5527.6106    
       112   0             -2181.1861      1701.7428      1756.7743      1658.6858      1689.7681      47.782349      117.46941     -65.430339      17.679864      17.679355      17.684471      5527.6106    
       113   0             -2181.1861      1703.218       1758.5274      1660.1412      1690.9855      47.695043      117.90016     -65.363331      17.679864      17.679355      17.684471      5527.6106    
       114   0             -2181.1861      1703.5829      1759.0736      1660.5193      1691.1557      47.742951      117.98988     -65.300438      17.679864      17.679355      17.684471      5527.6106    
       115   0             -2181.1861      1703.699       1759.3125      1660.5663      1691.2182      47.673012      118.03655     -65.453723      17.679864      17.679355      17.684471      5527.6106    
       116   0             -2181.1861      1703.402       1759.0661      1660.2327      1690.9071      47.725768      117.98338     -65.524825      17.679864      17.679355      17.684471      5527.6106    
       117   0             -2181.1861      1703.2187      1758.9132      1660.0172      1690.7258      47.781812      117.99332     -65.530341      17.679864      17.679355      17.684471      5527.6106    
       118   0             -2181.1861      1703.404       1759.1311      1660.1732      1690.9077      47.82599       118.03627     -65.504653      17.679864      17.679355      17.684471      5527.6106    
       119   0             -2181.1861      1703.5193      1759.2386      1660.3077      1691.0115      47.817069      118.01836     -65.478592      17.679864      17.679355      17.684471      5527.6106    
       120   0             -2181.1861      1703.4411      1759.1395      1660.2579      1690.9258      47.817427      118.02757     -65.465405      17.679864      17.679355      17.684471      5527.6106    
       121   0             -2181.1861      1703.4184      1759.1104      1660.244       1690.9007      47.803826      118.03833     -65.46431       17.679864      17.679355      17.684471      5527.6106    
       122   0             -2181.1861      1703.4275      1759.1252      1660.2492      1690.908       47.791062      118.04393     -65.467205      17.679864      17.679355      17.684471      5527.6106    
       123   0             -2181.1861      1703.4317      1759.1311      1660.2493      1690.9146      47.79289       118.04526     -65.460041      17.679864      17.679355      17.684471      5527.6106    
       124   0             -2181.1861      1703.4246      1759.1257      1660.2377      1690.9103      47.793358      118.04881     -65.456467      17.679864      17.679355      17.684471      5527.6106    
       125   0             -2181.1861      1703.414       1759.1132      1660.225       1690.9038      47.79436       118.04828     -65.457418      17.679864      17.679355      17.684471      5527.6106    
       126   0             -2181.1861      1703.4144      1759.1124      1660.2268      1690.904       47.793832      118.04796     -65.458471      17.679864      17.679355      17.684471      5527.6106    
       127   0             -2181.1861      1703.4183      1759.1149      1660.2319      1690.908       47.795204      118.04946     -65.457483      17.679864      17.679355      17.684471      5527.6106    
       128   0             -2181.1861      1703.4222      1759.1181      1660.2361      1690.9124      47.794884      118.04944     -65.457278      17.679864      17.679355      17.684471      5527.6106    
       129   0             -2181.1861      1703.4219      1759.1179      1660.2353      1690.9124      47.794732      118.04944     -65.45687       17.679864      17.679355      17.684471      5527.6106    
       130   0             -2181.1861      1703.4216      1759.1177      1660.235       1690.9122      47.793945      118.04941     -65.457073      17.679864      17.679355      17.684471      5527.6106    
       131   0             -2181.1861      1703.4209      1759.1169      1660.234       1690.9117      47.79459       118.04931     -65.457044      17.679864      17.679355      17.684471      5527.6106    
       132   0             -2181.1861      1703.4215      1759.1175      1660.2348      1690.9123      47.794557      118.0496      -65.457312      17.679864      17.679355      17.684471      5527.6106    
       133   0             -2181.1861      1703.4216      1759.1176      1660.2351      1690.9123      47.794644      118.04944     -65.457391      17.679864      17.679355      17.684471      5527.6106    
       134   0             -2181.1861      1703.4212      1759.1173      1660.2347      1690.9118      47.794414      118.04936     -65.457308      17.679864      17.679355      17.684471      5527.6106    
       135   0             -2181.1861      1703.4212      1759.1173      1660.2346      1690.9116      47.794348      118.04934     -65.457289      17.679864      17.679355      17.684471      5527.6106    
       136   0             -2181.1861      1703.4212      1759.1173      1660.2346      1690.9117      47.794367      118.04932     -65.457299      17.679864      17.679355      17.684471      5527.6106    
       137   0             -2181.1861      1703.4213      1759.1174      1660.2347      1690.9117      47.794403      118.0493      -65.45732       17.679864      17.679355      17.684471      5527.6106    
       138   0             -2181.1861      1703.4212      1759.1173      1660.2347      1690.9117      47.794409      118.04931     -65.457309      17.679864      17.679355      17.684471      5527.6106    
       139   0             -2181.1861      1703.4212      1759.1173      1660.2347      1690.9117      47.79442       118.04931     -65.457309      17.679864      17.679355      17.684471      5527.6106    
       140   0             -2181.1861      1703.4212      1759.1173      1660.2347      1690.9117      47.794416      118.0493      -65.457321      17.679864      17.679355      17.684471      5527.6106    
       141   0             -2181.1861      1703.4212      1759.1173      1660.2347      1690.9117      47.794412      118.0493      -65.457326      17.679864      17.679355      17.684471      5527.6106    
       142   0             -2181.1861      1703.4212      1759.1173      1660.2347      1690.9117      47.794415      118.0493      -65.457323      17.679864      17.679355      17.684471      5527.6106    
       143   0             -2181.1861      1703.4212      1759.1173      1660.2347      1690.9117      47.794415      118.04931     -65.457324      17.679864      17.679355      17.684471      5527.6106    
       144   0             -2181.1861      1703.4212      1759.1173      1660.2347      1690.9117      47.794414      118.04931     -65.457325      17.679864      17.679355      17.684471      5527.6106    
       145   0             -2181.1861      1703.4212      1759.1173      1660.2347      1690.9117      47.794414      118.04931     -65.457326      17.679864      17.679355      17.684471      5527.6106    
       146   0             -2181.1861      1703.4212      1759.1173      1660.2347      1690.9117      47.794414      118.04931     -65.457324      17.679864      17.679355      17.684471      5527.6106    
       147   0             -2181.1861      1703.4212      1759.1173      1660.2347      1690.9117      47.794414      118.04931     -65.457324      17.679864      17.679355      17.684471      5527.6106    
       148   0             -2181.1861      1703.4212      1759.1173      1660.2347      1690.9117      47.794414      118.04931     -65.457325      17.679864      17.679355      17.684471      5527.6106    
       149   0             -2181.1861      1703.4212      1759.1173      1660.2347      1690.9117      47.794414      118.04931     -65.457325      17.679864      17.679355      17.684471      5527.6106    
       150   0             -2181.1861      1703.4212      1759.1173      1660.2347      1690.9117      47.794415      118.04931     -65.457325      17.679864      17.679355      17.684471      5527.6106    
       151   0             -2181.1861      1703.4212      1759.1173      1660.2347      1690.9117      47.794415      118.04931     -65.457324      17.679864      17.679355      17.684471      5527.6106    
       152   0             -2181.1861      1703.4212      1759.1173      1660.2347      1690.9117      47.794415      118.04931     -65.457324      17.679864      17.679355      17.684471      5527.6106    
       153   0             -2181.1861      1703.4212      1759.1173      1660.2347      1690.9117      47.794415      118.04931     -65.457324      17.679864      17.679355      17.684471      5527.6106    
       154   0             -2181.1861      1703.4212      1759.1173      1660.2347      1690.9117      47.794415      118.04931     -65.457324      17.679864      17.679355      17.684471      5527.6106    
       155   0             -2181.1861      1703.4212      1759.1173      1660.2347      1690.9117      47.794415      118.04931     -65.457324      17.679864      17.679355      17.684471      5527.6106    
       156   0             -2181.1861      1703.4212      1759.1173      1660.2347      1690.9117      47.794415      118.04931     -65.457324      17.679864      17.679355      17.684471      5527.6106    
       157   0             -2181.1861      1703.4212      1759.1173      1660.2347      1690.9117      47.794415      118.04931     -65.457324      17.679864      17.679355      17.684471      5527.6106    
       158   0             -2181.1861      1703.4212      1759.1173      1660.2347      1690.9117      47.794415      118.04931     -65.457324      17.679864      17.679355      17.684471      5527.6106    
       159   0             -2181.1861      1703.4212      1759.1173      1660.2347      1690.9117      47.794415      118.04931     -65.457324      17.679864      17.679355      17.684471      5527.6106    
       160   0             -2181.1861      1703.4212      1759.1173      1660.2347      1690.9117      47.794415      118.04931     -65.457324      17.679864      17.679355      17.684471      5527.6106    
       161   0             -2181.1861      1703.4212      1759.1173      1660.2347      1690.9117      47.794415      118.04931     -65.457324      17.679864      17.679355      17.684471      5527.6106    
Loop time of 0.141694 on 1 procs for 61 steps with 500 atoms

99.2% CPU use with 1 MPI tasks x 1 OpenMP threads

Minimization stats:
  Stopping criterion = force tolerance
  Energy initial, next-to-last, final = 
     -2180.91268991891  -2181.18609662153  -2181.18609662154
  Force two-norm initial, final = 2.2162918 6.9918535e-11
  Force max component initial, final = 0.18476042 1.2147519e-11
  Final line search alpha, max atom move = 1 1.2147519e-11
  Iterations, force evaluations = 61 120

MPI task timing breakdown:
Section |  min time  |  avg time  |  max time  |%varavg| %total
---------------------------------------------------------------
Pair    | 0.13892    | 0.13892    | 0.13892    |   0.0 | 98.04
Neigh   | 0          | 0          | 0          |   0.0 |  0.00
Comm    | 0.000719   | 0.000719   | 0.000719   |   0.0 |  0.51
Output  | 0.001077   | 0.001077   | 0.001077   |   0.0 |  0.76
Modify  | 0          | 0          | 0          |   0.0 |  0.00
Other   |            | 0.000977   |            |       |  0.69

Nlocal:            500 ave         500 max         500 min
Histogram: 1 0 0 0 0 0 0 0 0 0
Nghost:           1956 ave        1956 max        1956 min
Histogram: 1 0 0 0 0 0 0 0 0 0
Neighs:          33500 ave       33500 max       33500 min
Histogram: 1 0 0 0 0 0 0 0 0 0

Total # of neighbors = 33500
Ave neighs/atom = 67
Neighbor list builds = 0
Dangerous builds = 0
OMP_NUM_THREADS environment is not set. Defaulting to 1 thread. (src/comm.cpp:98)
  using 1 OpenMP thread(s) per MPI task
Loaded 1 plugins from F:\Lammps\LAMMPS 64-bit 2Aug2023\plugins

The 'box' command has been removed and will be ignored

Reading restart file ...
  restart file = 2 Aug 2023, LAMMPS = 2 Aug 2023
  restoring atom style atomic from restart
  triclinic box = (0.055058975 0.055322256 0.052764339) to (17.734941 17.734678 17.737236) with tilt (0 0 0)
  1 by 1 by 1 MPI processor grid
  pair style eam/alloy stores no restart info
  500 atoms
  read_restart CPU = 0.000 seconds
Changing box ...
  triclinic box = (0.055058975 0.055322256 0.052764339) to (17.734959 17.734678 17.737236) with tilt (0 0 0)
  triclinic box = (0.055058975 0.055322256 0.052764339) to (17.734959 17.734678 17.737236) with tilt (0 0 0)
  triclinic box = (0.055058975 0.055322256 0.052764339) to (17.734959 17.734678 17.737236) with tilt (0 0 0)
Neighbor list info ...
  update: every = 1 steps, delay = 0 steps, check = yes
  max neighbors/atom: 2000, page size: 100000
  master list distance cutoff = 6.80375
  ghost atom cutoff = 6.80375
  1 neighbor lists, perpetual/occasional/extra = 1 0 0
  (1) pair eam/alloy, perpetual
      attributes: half, newton on
      pair build: half/nsq/newton
      stencil: none
      bin: none
Setting up cg style minimization ...
  Unit style    : metal
  Current step  : 100
Per MPI rank memory allocation (min/avg/max) = 4.483 | 4.483 | 4.483 Mbytes
   Step          Temp          PotEng         Press           Pxx            Pyy            Pzz            Pxy            Pxz            Pyz             Lx             Ly             Lz           Volume    
       100   0             -2180.9127      175.5738       175.46103      175.94667      175.31371      43.988633     -39.138907     -89.106064      17.6799        17.679355      17.684471      5527.6216    
       101   0             -2181.099       1122.9901      1129.5885      1116.5213      1122.8606      27.507079      54.931998     -87.732631      17.6799        17.679355      17.684471      5527.6216    
       102   0             -2181.1672      1777.103       1804.4021      1749.7166      1777.1903      29.518472      121.7671      -69.062177      17.6799        17.679355      17.684471      5527.6216    
       103   0             -2181.1796      1606.2625      1644.0978      1565.8243      1608.8653      45.017806      102.92802     -73.769585      17.6799        17.679355      17.684471      5527.6216    
       104   0             -2181.1839      1663.8282      1713.1723      1617.8331      1660.4793      45.768404      112.4197      -68.757324      17.6799        17.679355      17.684471      5527.6216    
       105   0             -2181.1852      1745.0452      1799.8536      1699.7337      1735.5483      44.489722      121.93278     -69.996966      17.6799        17.679355      17.684471      5527.6216    
       106   0             -2181.1858      1703.2185      1760.3238      1659.5572      1689.7746      47.934742      119.81528     -64.785113      17.6799        17.679355      17.684471      5527.6216    
       107   0             -2181.1859      1695.9622      1752.5225      1653.7023      1681.6618      47.270073      119.69411     -64.111289      17.6799        17.679355      17.684471      5527.6216    
       108   0             -2181.186       1699.5299      1755.5568      1657.4929      1685.54        48.895906      119.44571     -64.172707      17.6799        17.679355      17.684471      5527.6216    
       109   0             -2181.186       1700.0389      1754.3142      1658.1046      1687.6978      48.055501      119.1926      -65.229167      17.6799        17.679355      17.684471      5527.6216    
       110   0             -2181.1861      1700.4589      1754.0109      1658.4966      1688.8693      48.224388      119.43304     -64.98313       17.6799        17.679355      17.684471      5527.6216    
       111   0             -2181.1861      1699.3378      1752.7384      1656.9971      1688.2779      48.087865      117.89165     -65.592995      17.6799        17.679355      17.684471      5527.6216    
       112   0             -2181.1861      1698.0802      1751.8882      1655.6352      1686.7172      47.78509       117.46989     -65.43074       17.6799        17.679355      17.684471      5527.6216    
       113   0             -2181.1861      1699.5558      1753.6416      1657.0909      1687.9349      47.69784       117.90055     -65.363781      17.6799        17.679355      17.684471      5527.6216    
       114   0             -2181.1861      1699.9202      1754.1874      1657.4686      1688.1047      47.745735      117.99026     -65.300838      17.6799        17.679355      17.684471      5527.6216    
       115   0             -2181.1861      1700.0365      1754.4264      1657.5158      1688.1672      47.675771      118.03699     -65.454184      17.6799        17.679355      17.684471      5527.6216    
       116   0             -2181.1861      1699.7392      1754.1797      1657.1819      1687.8559      47.728555      117.98375     -65.525274      17.6799        17.679355      17.684471      5527.6216    
       117   0             -2181.1861      1699.556       1754.0269      1656.9665      1687.6747      47.784589      117.99374     -65.530777      17.6799        17.679355      17.684471      5527.6216    
       118   0             -2181.1861      1699.7414      1754.2448      1657.1226      1687.8568      47.828766      118.03668     -65.50508       17.6799        17.679355      17.684471      5527.6216    
       119   0             -2181.1861      1699.8566      1754.3523      1657.257       1687.9604      47.81984       118.01876     -65.479023      17.6799        17.679355      17.684471      5527.6216    
       120   0             -2181.1861      1699.7784      1754.2532      1657.2072      1687.8748      47.820201      118.02798     -65.465838      17.6799        17.679355      17.684471      5527.6216    
       121   0             -2181.1861      1699.7557      1754.2241      1657.1933      1687.8497      47.806594      118.03874     -65.464749      17.6799        17.679355      17.684471      5527.6216    
       122   0             -2181.1861      1699.7648      1754.2389      1657.1985      1687.857       47.793841      118.04434     -65.46764       17.6799        17.679355      17.684471      5527.6216    
       123   0             -2181.1861      1699.769       1754.2448      1657.1986      1687.8636      47.795666      118.04567     -65.460474      17.6799        17.679355      17.684471      5527.6216    
       124   0             -2181.1861      1699.7619      1754.2394      1657.187       1687.8593      47.796135      118.04921     -65.456902      17.6799        17.679355      17.684471      5527.6216    
       125   0             -2181.1861      1699.7514      1754.2269      1657.1743      1687.8528      47.797135      118.04869     -65.457854      17.6799        17.679355      17.684471      5527.6216    
       126   0             -2181.1861      1699.7517      1754.2261      1657.1761      1687.853       47.796609      118.04837     -65.458906      17.6799        17.679355      17.684471      5527.6216    
       127   0             -2181.1861      1699.7556      1754.2286      1657.1812      1687.857       47.797979      118.04987     -65.457919      17.6799        17.679355      17.684471      5527.6216    
       128   0             -2181.1861      1699.7595      1754.2318      1657.1854      1687.8614      47.79766       118.04985     -65.457713      17.6799        17.679355      17.684471      5527.6216    
       129   0             -2181.1861      1699.7592      1754.2316      1657.1846      1687.8614      47.797508      118.04985     -65.457305      17.6799        17.679355      17.684471      5527.6216    
       130   0             -2181.1861      1699.7589      1754.2314      1657.1843      1687.8612      47.79672       118.04982     -65.457509      17.6799        17.679355      17.684471      5527.6216    
       131   0             -2181.1861      1699.7582      1754.2306      1657.1833      1687.8607      47.797366      118.04972     -65.45748       17.6799        17.679355      17.684471      5527.6216    
       132   0             -2181.1861      1699.7589      1754.2312      1657.1841      1687.8613      47.797333      118.05        -65.457747      17.6799        17.679355      17.684471      5527.6216    
       133   0             -2181.1861      1699.759       1754.2313      1657.1844      1687.8613      47.79742       118.04985     -65.457826      17.6799        17.679355      17.684471      5527.6216    
       134   0             -2181.1861      1699.7586      1754.231       1657.184       1687.8607      47.797189      118.04977     -65.457744      17.6799        17.679355      17.684471      5527.6216    
       135   0             -2181.1861      1699.7585      1754.231       1657.1839      1687.8606      47.797124      118.04975     -65.457724      17.6799        17.679355      17.684471      5527.6216    
       136   0             -2181.1861      1699.7585      1754.231       1657.1839      1687.8607      47.797142      118.04973     -65.457734      17.6799        17.679355      17.684471      5527.6216    
       137   0             -2181.1861      1699.7586      1754.2311      1657.184       1687.8607      47.797179      118.04971     -65.457755      17.6799        17.679355      17.684471      5527.6216    
       138   0             -2181.1861      1699.7586      1754.231       1657.184       1687.8607      47.797185      118.04972     -65.457745      17.6799        17.679355      17.684471      5527.6216    
       139   0             -2181.1861      1699.7586      1754.231       1657.184       1687.8607      47.797195      118.04971     -65.457744      17.6799        17.679355      17.684471      5527.6216    
       140   0             -2181.1861      1699.7586      1754.231       1657.184       1687.8607      47.797191      118.04971     -65.457757      17.6799        17.679355      17.684471      5527.6216    
       141   0             -2181.1861      1699.7586      1754.231       1657.184       1687.8607      47.797188      118.04971     -65.457761      17.6799        17.679355      17.684471      5527.6216    
       142   0             -2181.1861      1699.7586      1754.231       1657.184       1687.8607      47.797191      118.04971     -65.457758      17.6799        17.679355      17.684471      5527.6216    
       143   0             -2181.1861      1699.7586      1754.231       1657.184       1687.8607      47.797191      118.04971     -65.45776       17.6799        17.679355      17.684471      5527.6216    
       144   0             -2181.1861      1699.7586      1754.231       1657.184       1687.8607      47.79719       118.04972     -65.457761      17.6799        17.679355      17.684471      5527.6216    
       145   0             -2181.1861      1699.7586      1754.231       1657.184       1687.8607      47.79719       118.04972     -65.457761      17.6799        17.679355      17.684471      5527.6216    
       146   0             -2181.1861      1699.7586      1754.231       1657.184       1687.8607      47.79719       118.04972     -65.45776       17.6799        17.679355      17.684471      5527.6216    
       147   0             -2181.1861      1699.7586      1754.231       1657.184       1687.8607      47.79719       118.04972     -65.45776       17.6799        17.679355      17.684471      5527.6216    
       148   0             -2181.1861      1699.7586      1754.231       1657.184       1687.8607      47.79719       118.04972     -65.45776       17.6799        17.679355      17.684471      5527.6216    
       149   0             -2181.1861      1699.7586      1754.231       1657.184       1687.8607      47.79719       118.04972     -65.457761      17.6799        17.679355      17.684471      5527.6216    
       150   0             -2181.1861      1699.7586      1754.231       1657.184       1687.8607      47.79719       118.04972     -65.45776       17.6799        17.679355      17.684471      5527.6216    
       151   0             -2181.1861      1699.7586      1754.231       1657.184       1687.8607      47.79719       118.04972     -65.45776       17.6799        17.679355      17.684471      5527.6216    
       152   0             -2181.1861      1699.7586      1754.231       1657.184       1687.8607      47.79719       118.04972     -65.45776       17.6799        17.679355      17.684471      5527.6216    
       153   0             -2181.1861      1699.7586      1754.231       1657.184       1687.8607      47.79719       118.04972     -65.45776       17.6799        17.679355      17.684471      5527.6216    
       154   0             -2181.1861      1699.7586      1754.231       1657.184       1687.8607      47.79719       118.04972     -65.45776       17.6799        17.679355      17.684471      5527.6216    
       155   0             -2181.1861      1699.7586      1754.231       1657.184       1687.8607      47.79719       118.04972     -65.45776       17.6799        17.679355      17.684471      5527.6216    
       156   0             -2181.1861      1699.7586      1754.231       1657.184       1687.8607      47.79719       118.04972     -65.45776       17.6799        17.679355      17.684471      5527.6216    
       157   0             -2181.1861      1699.7586      1754.231       1657.184       1687.8607      47.79719       118.04972     -65.45776       17.6799        17.679355      17.684471      5527.6216    
       158   0             -2181.1861      1699.7586      1754.231       1657.184       1687.8607      47.79719       118.04972     -65.45776       17.6799        17.679355      17.684471      5527.6216    
       159   0             -2181.1861      1699.7586      1754.231       1657.184       1687.8607      47.79719       118.04972     -65.45776       17.6799        17.679355      17.684471      5527.6216    
       160   0             -2181.1861      1699.7586      1754.231       1657.184       1687.8607      47.79719       118.04972     -65.45776       17.6799        17.679355      17.684471      5527.6216    
       161   0             -2181.1861      1699.7586      1754.231       1657.184       1687.8607      47.79719       118.04972     -65.45776       17.6799        17.679355      17.684471      5527.6216    
Loop time of 0.142228 on 1 procs for 61 steps with 500 atoms

98.9% CPU use with 1 MPI tasks x 1 OpenMP threads

Minimization stats:
  Stopping criterion = force tolerance
  Energy initial, next-to-last, final = 
     -2180.91269114666  -2181.18610874278  -2181.18610874279
  Force two-norm initial, final = 2.2163417 6.989032e-11
  Force max component initial, final = 0.18476596 1.2137603e-11
  Final line search alpha, max atom move = 1 1.2137603e-11
  Iterations, force evaluations = 61 120

MPI task timing breakdown:
Section |  min time  |  avg time  |  max time  |%varavg| %total
---------------------------------------------------------------
Pair    | 0.13962    | 0.13962    | 0.13962    |   0.0 | 98.16
Neigh   | 0          | 0          | 0          |   0.0 |  0.00
Comm    | 0.000701   | 0.000701   | 0.000701   |   0.0 |  0.49
Output  | 0.000944   | 0.000944   | 0.000944   |   0.0 |  0.66
Modify  | 0          | 0          | 0          |   0.0 |  0.00
Other   |            | 0.000968   |            |       |  0.68

Nlocal:            500 ave         500 max         500 min
Histogram: 1 0 0 0 0 0 0 0 0 0
Nghost:           1956 ave        1956 max        1956 min
Histogram: 1 0 0 0 0 0 0 0 0 0
Neighs:          33500 ave       33500 max       33500 min
Histogram: 1 0 0 0 0 0 0 0 0 0

Total # of neighbors = 33500
Ave neighs/atom = 67
Neighbor list builds = 0
Dangerous builds = 0
OMP_NUM_THREADS environment is not set. Defaulting to 1 thread. (src/comm.cpp:98)
  using 1 OpenMP thread(s) per MPI task
Loaded 1 plugins from F:\Lammps\LAMMPS 64-bit 2Aug2023\plugins

The 'box' command has been removed and will be ignored

Reading restart file ...
  restart file = 2 Aug 2023, LAMMPS = 2 Aug 2023
  restoring atom style atomic from restart
  triclinic box = (0.055058975 0.055322256 0.052764339) to (17.734941 17.734678 17.737236) with tilt (0 0 0)
  1 by 1 by 1 MPI processor grid
  pair style eam/alloy stores no restart info
  500 atoms
  read_restart CPU = 0.000 seconds
Changing box ...
  triclinic box = (0.055058975 0.055322256 0.052764339) to (17.734941 17.73466 17.737236) with tilt (0 0 0)
  triclinic box = (0.055058975 0.055322256 0.052764339) to (17.734941 17.73466 17.737236) with tilt (0 0 0)
Neighbor list info ...
  update: every = 1 steps, delay = 0 steps, check = yes
  max neighbors/atom: 2000, page size: 100000
  master list distance cutoff = 6.80375
  ghost atom cutoff = 6.80375
  1 neighbor lists, perpetual/occasional/extra = 1 0 0
  (1) pair eam/alloy, perpetual
      attributes: half, newton on
      pair build: half/nsq/newton
      stencil: none
      bin: none
Setting up cg style minimization ...
  Unit style    : metal
  Current step  : 100
Per MPI rank memory allocation (min/avg/max) = 4.483 | 4.483 | 4.483 Mbytes
   Step          Temp          PotEng         Press           Pxx            Pyy            Pzz            Pxy            Pxz            Pyz             Lx             Ly             Lz           Volume    
       100   0             -2180.9127      179.28122      179.47902      179.95565      178.40899      43.981281     -39.139151     -89.103555      17.679882      17.679338      17.684471      5527.6106    
       101   0             -2181.0989      1126.6946      1133.604       1120.5259      1125.9539      27.501057      54.934578     -87.731543      17.679882      17.679338      17.684471      5527.6106    
       102   0             -2181.1672      1780.7605      1808.3721      1753.6743      1780.235       29.517071      121.76469     -69.061559      17.679882      17.679338      17.684471      5527.6106    
       103   0             -2181.1796      1609.9605      1648.1065      1569.8241      1611.9508      45.012551      102.9313      -73.772972      17.679882      17.679338      17.684471      5527.6106    
       104   0             -2181.1839      1667.4556      1717.1099      1621.7616      1663.4955      45.767445      112.41428     -68.757574      17.679882      17.679338      17.684471      5527.6106    
       105   0             -2181.1851      1748.7008      1803.8206      1703.6909      1738.5909      44.486254      121.93091     -69.997985      17.679882      17.679338      17.684471      5527.6106    
       106   0             -2181.1857      1706.88        1764.2964      1663.5202      1692.8233      47.932358      119.81382     -64.785907      17.679882      17.679338      17.684471      5527.6106    
       107   0             -2181.1859      1699.6187      1756.4899      1657.6602      1684.7059      47.267447      119.69201     -64.111733      17.679882      17.679338      17.684471      5527.6106    
       108   0             -2181.186       1703.1896      1759.5275      1661.4543      1688.5869      48.892921      119.44441     -64.173316      17.679882      17.679338      17.684471      5527.6106    
       109   0             -2181.186       1703.6958      1758.2819      1662.0632      1690.7424      48.05291       119.19067     -65.229957      17.679882      17.679338      17.684471      5527.6106    
       110   0             -2181.1861      1704.1156      1757.9783      1662.4548      1691.9136      48.221757      119.43118     -64.983746      17.679882      17.679338      17.684471      5527.6106    
       111   0             -2181.1861      1702.9967      1756.7081      1660.9576      1691.3244      48.08534       117.89005     -65.593505      17.679882      17.679338      17.684471      5527.6106    
       112   0             -2181.1861      1701.7379      1755.8567      1659.5945      1689.7626      47.782512      117.46801     -65.431378      17.679882      17.679338      17.684471      5527.6106    
       113   0             -2181.1861      1703.2131      1757.6098      1661.0498      1690.9799      47.695198      117.89879     -65.364362      17.679882      17.679338      17.684471      5527.6106    
       114   0             -2181.1861      1703.578       1758.1559      1661.4278      1691.1501      47.743114      117.98851     -65.301489      17.679882      17.679338      17.684471      5527.6106    
       115   0             -2181.1861      1703.6941      1758.3948      1661.4749      1691.2125      47.673165      118.03517     -65.454768      17.679882      17.679338      17.684471      5527.6106    
       116   0             -2181.1861      1703.3971      1758.1484      1661.1413      1690.9015      47.72592       117.982       -65.525873      17.679882      17.679338      17.684471      5527.6106    
       117   0             -2181.1861      1703.2138      1757.9955      1660.9258      1690.7202      47.781965      117.99194     -65.531387      17.679882      17.679338      17.684471      5527.6106    
       118   0             -2181.1861      1703.3991      1758.2133      1661.0818      1690.9021      47.826139      118.03489     -65.505707      17.679882      17.679338      17.684471      5527.6106    
       119   0             -2181.1861      1703.5143      1758.3209      1661.2163      1691.0058      47.81722       118.01699     -65.47964       17.679882      17.679338      17.684471      5527.6106    
       120   0             -2181.1861      1703.4362      1758.2218      1661.1665      1690.9202      47.817575      118.02619     -65.466454      17.679882      17.679338      17.684471      5527.6106    
       121   0             -2181.1861      1703.4135      1758.1927      1661.1526      1690.895       47.803978      118.03696     -65.465357      17.679882      17.679338      17.684471      5527.6106    
       122   0             -2181.1861      1703.4226      1758.2075      1661.1578      1690.9024      47.791211      118.04256     -65.468254      17.679882      17.679338      17.684471      5527.6106    
       123   0             -2181.1861      1703.4268      1758.2134      1661.1579      1690.909       47.79304       118.04389     -65.46109       17.679882      17.679338      17.684471      5527.6106    
       124   0             -2181.1861      1703.4197      1758.208       1661.1463      1690.9047      47.793508      118.04743     -65.457517      17.679882      17.679338      17.684471      5527.6106    
       125   0             -2181.1861      1703.4091      1758.1955      1661.1336      1690.8982      47.794509      118.04691     -65.458467      17.679882      17.679338      17.684471      5527.6106    
       126   0             -2181.1861      1703.4095      1758.1947      1661.1354      1690.8984      47.793982      118.04658     -65.45952       17.679882      17.679338      17.684471      5527.6106    
       127   0             -2181.1861      1703.4134      1758.1972      1661.1404      1690.9024      47.795353      118.04808     -65.458533      17.679882      17.679338      17.684471      5527.6106    
       128   0             -2181.1861      1703.4173      1758.2004      1661.1447      1690.9067      47.795033      118.04807     -65.458328      17.679882      17.679338      17.684471      5527.6106    
       129   0             -2181.1861      1703.417       1758.2002      1661.1439      1690.9068      47.794881      118.04807     -65.45792       17.679882      17.679338      17.684471      5527.6106    
       130   0             -2181.1861      1703.4167      1758.2         1661.1435      1690.9066      47.794094      118.04804     -65.458123      17.679882      17.679338      17.684471      5527.6106    
       131   0             -2181.1861      1703.4159      1758.1992      1661.1426      1690.906       47.794739      118.04794     -65.458094      17.679882      17.679338      17.684471      5527.6106    
       132   0             -2181.1861      1703.4166      1758.1998      1661.1434      1690.9067      47.794706      118.04822     -65.458362      17.679882      17.679338      17.684471      5527.6106    
       133   0             -2181.1861      1703.4167      1758.1999      1661.1437      1690.9066      47.794793      118.04806     -65.458441      17.679882      17.679338      17.684471      5527.6106    
       134   0             -2181.1861      1703.4163      1758.1996      1661.1433      1690.9061      47.794563      118.04799     -65.458358      17.679882      17.679338      17.684471      5527.6106    
       135   0             -2181.1861      1703.4162      1758.1996      1661.1431      1690.906       47.794497      118.04797     -65.458339      17.679882      17.679338      17.684471      5527.6106    
       136   0             -2181.1861      1703.4163      1758.1996      1661.1432      1690.9061      47.794516      118.04795     -65.458349      17.679882      17.679338      17.684471      5527.6106    
       137   0             -2181.1861      1703.4163      1758.1997      1661.1432      1690.9061      47.794552      118.04792     -65.45837       17.679882      17.679338      17.684471      5527.6106    
       138   0             -2181.1861      1703.4163      1758.1996      1661.1433      1690.9061      47.794558      118.04793     -65.458359      17.679882      17.679338      17.684471      5527.6106    
       139   0             -2181.1861      1703.4163      1758.1996      1661.1432      1690.9061      47.794569      118.04793     -65.458359      17.679882      17.679338      17.684471      5527.6106    
       140   0             -2181.1861      1703.4163      1758.1996      1661.1432      1690.9061      47.794565      118.04793     -65.458371      17.679882      17.679338      17.684471      5527.6106    
       141   0             -2181.1861      1703.4163      1758.1996      1661.1432      1690.9061      47.794561      118.04792     -65.458376      17.679882      17.679338      17.684471      5527.6106    
       142   0             -2181.1861      1703.4163      1758.1996      1661.1433      1690.9061      47.794564      118.04793     -65.458373      17.679882      17.679338      17.684471      5527.6106    
       143   0             -2181.1861      1703.4163      1758.1996      1661.1433      1690.9061      47.794564      118.04793     -65.458374      17.679882      17.679338      17.684471      5527.6106    
       144   0             -2181.1861      1703.4163      1758.1996      1661.1433      1690.9061      47.794563      118.04793     -65.458375      17.679882      17.679338      17.684471      5527.6106    
       145   0             -2181.1861      1703.4163      1758.1996      1661.1433      1690.9061      47.794563      118.04793     -65.458376      17.679882      17.679338      17.684471      5527.6106    
       146   0             -2181.1861      1703.4163      1758.1996      1661.1433      1690.9061      47.794563      118.04793     -65.458374      17.679882      17.679338      17.684471      5527.6106    
       147   0             -2181.1861      1703.4163      1758.1996      1661.1433      1690.9061      47.794563      118.04793     -65.458374      17.679882      17.679338      17.684471      5527.6106    
       148   0             -2181.1861      1703.4163      1758.1996      1661.1433      1690.9061      47.794563      118.04793     -65.458375      17.679882      17.679338      17.684471      5527.6106    
       149   0             -2181.1861      1703.4163      1758.1996      1661.1433      1690.9061      47.794563      118.04793     -65.458375      17.679882      17.679338      17.684471      5527.6106    
       150   0             -2181.1861      1703.4163      1758.1996      1661.1433      1690.9061      47.794564      118.04793     -65.458375      17.679882      17.679338      17.684471      5527.6106    
       151   0             -2181.1861      1703.4163      1758.1996      1661.1433      1690.9061      47.794564      118.04793     -65.458374      17.679882      17.679338      17.684471      5527.6106    
       152   0             -2181.1861      1703.4163      1758.1996      1661.1433      1690.9061      47.794564      118.04793     -65.458374      17.679882      17.679338      17.684471      5527.6106    
       153   0             -2181.1861      1703.4163      1758.1996      1661.1433      1690.9061      47.794564      118.04793     -65.458374      17.679882      17.679338      17.684471      5527.6106    
       154   0             -2181.1861      1703.4163      1758.1996      1661.1433      1690.9061      47.794564      118.04793     -65.458374      17.679882      17.679338      17.684471      5527.6106    
       155   0             -2181.1861      1703.4163      1758.1996      1661.1433      1690.9061      47.794564      118.04793     -65.458374      17.679882      17.679338      17.684471      5527.6106    
       156   0             -2181.1861      1703.4163      1758.1996      1661.1433      1690.9061      47.794564      118.04793     -65.458374      17.679882      17.679338      17.684471      5527.6106    
       157   0             -2181.1861      1703.4163      1758.1996      1661.1433      1690.9061      47.794564      118.04793     -65.458374      17.679882      17.679338      17.684471      5527.6106    
       158   0             -2181.1861      1703.4163      1758.1996      1661.1433      1690.9061      47.794564      118.04793     -65.458374      17.679882      17.679338      17.684471      5527.6106    
       159   0             -2181.1861      1703.4163      1758.1996      1661.1433      1690.9061      47.794564      118.04793     -65.458374      17.679882      17.679338      17.684471      5527.6106    
       160   0             -2181.1861      1703.4163      1758.1996      1661.1433      1690.9061      47.794564      118.04793     -65.458374      17.679882      17.679338      17.684471      5527.6106    
       161   0             -2181.1861      1703.4163      1758.1996      1661.1433      1690.9061      47.794564      118.04793     -65.458374      17.679882      17.679338      17.684471      5527.6106    
Loop time of 0.143929 on 1 procs for 61 steps with 500 atoms

97.7% CPU use with 1 MPI tasks x 1 OpenMP threads

Minimization stats:
  Stopping criterion = force tolerance
  Energy initial, next-to-last, final = 
     -2180.91268992043  -2181.18609695953  -2181.18609695953
  Force two-norm initial, final = 2.2162921 6.9929927e-11
  Force max component initial, final = 0.18476004 1.213725e-11
  Final line search alpha, max atom move = 1 1.213725e-11
  Iterations, force evaluations = 61 120

MPI task timing breakdown:
Section |  min time  |  avg time  |  max time  |%varavg| %total
---------------------------------------------------------------
Pair    | 0.14129    | 0.14129    | 0.14129    |   0.0 | 98.17
Neigh   | 0          | 0          | 0          |   0.0 |  0.00
Comm    | 0.000693   | 0.000693   | 0.000693   |   0.0 |  0.48
Output  | 0.000972   | 0.000972   | 0.000972   |   0.0 |  0.68
Modify  | 0          | 0          | 0          |   0.0 |  0.00
Other   |            | 0.00097    |            |       |  0.67

Nlocal:            500 ave         500 max         500 min
Histogram: 1 0 0 0 0 0 0 0 0 0
Nghost:           1956 ave        1956 max        1956 min
Histogram: 1 0 0 0 0 0 0 0 0 0
Neighs:          33500 ave       33500 max       33500 min
Histogram: 1 0 0 0 0 0 0 0 0 0

Total # of neighbors = 33500
Ave neighs/atom = 67
Neighbor list builds = 0
Dangerous builds = 0
OMP_NUM_THREADS environment is not set. Defaulting to 1 thread. (src/comm.cpp:98)
  using 1 OpenMP thread(s) per MPI task
Loaded 1 plugins from F:\Lammps\LAMMPS 64-bit 2Aug2023\plugins

The 'box' command has been removed and will be ignored

Reading restart file ...
  restart file = 2 Aug 2023, LAMMPS = 2 Aug 2023
  restoring atom style atomic from restart
  triclinic box = (0.055058975 0.055322256 0.052764339) to (17.734941 17.734678 17.737236) with tilt (0 0 0)
  1 by 1 by 1 MPI processor grid
  pair style eam/alloy stores no restart info
  500 atoms
  read_restart CPU = 0.000 seconds
Changing box ...
  triclinic box = (0.055058975 0.055322256 0.052764339) to (17.734941 17.734695 17.737236) with tilt (0 0 0)
  triclinic box = (0.055058975 0.055322256 0.052764339) to (17.734941 17.734695 17.737236) with tilt (0 0 0)
Neighbor list info ...
  update: every = 1 steps, delay = 0 steps, check = yes
  max neighbors/atom: 2000, page size: 100000
  master list distance cutoff = 6.80375
  ghost atom cutoff = 6.80375
  1 neighbor lists, perpetual/occasional/extra = 1 0 0
  (1) pair eam/alloy, perpetual
      attributes: half, newton on
      pair build: half/nsq/newton
      stencil: none
      bin: none
Setting up cg style minimization ...
  Unit style    : metal
  Current step  : 100
Per MPI rank memory allocation (min/avg/max) = 4.483 | 4.483 | 4.483 Mbytes
   Step          Temp          PotEng         Press           Pxx            Pyy            Pzz            Pxy            Pxz            Pyz             Lx             Ly             Lz           Volume    
       100   0             -2180.9127      175.57844      176.38175      175.03496      175.31863      43.987557     -39.139425     -89.105045      17.679882      17.679373      17.684471      5527.6216    
       101   0             -2181.099       1122.9936      1130.5054      1115.6108      1122.8646      27.506478      54.932759     -87.731137      17.679882      17.679373      17.684471      5527.6216    
       102   0             -2181.1672      1777.1047      1805.3196      1748.8019      1777.1925      29.518305      121.76856     -69.060317      17.679882      17.679373      17.684471      5527.6216    
       103   0             -2181.1796      1606.2626      1645.0114      1564.9104      1608.866       45.017809      102.92887     -73.768021      17.679882      17.679373      17.684471      5527.6216    
       104   0             -2181.1839      1663.8348      1714.0925      1616.9256      1660.4865      45.768427      112.42103     -68.756006      17.679882      17.679373      17.684471      5527.6216    
       105   0             -2181.1852      1745.0506      1800.7729      1698.8243      1735.5544      44.489703      121.93405     -69.995522      17.679882      17.679373      17.684471      5527.6216    
       106   0             -2181.1858      1703.2232      1761.2419      1658.6478      1689.78        47.934625      119.81654     -64.784026      17.679882      17.679373      17.684471      5527.6216    
       107   0             -2181.1859      1695.9673      1753.4409      1652.7933      1681.6676      47.269954      119.69542     -64.110251      17.679882      17.679373      17.684471      5527.6216    
       108   0             -2181.186       1699.5348      1756.4749      1656.5838      1685.5456      48.895755      119.44692     -64.171644      17.679882      17.679373      17.684471      5527.6216    
       109   0             -2181.186       1700.0438      1755.2323      1657.1957      1687.7034      48.055358      119.19391     -65.228116      17.679882      17.679373      17.684471      5527.6216    
       110   0             -2181.1861      1700.4639      1754.9289      1657.5879      1688.875       48.224231      119.43446     -64.982085      17.679882      17.679373      17.684471      5527.6216    
       111   0             -2181.1861      1699.3427      1753.6562      1656.0884      1688.2834      48.087718      117.89302     -65.591935      17.679882      17.679373      17.684471      5527.6216    
       112   0             -2181.1861      1698.0851      1752.8059      1654.7266      1686.7227      47.784928      117.47129     -65.429701      17.679882      17.679373      17.684471      5527.6216    
       113   0             -2181.1861      1699.5607      1754.5593      1656.1823      1687.9405      47.697685      117.90192     -65.362751      17.679882      17.679373      17.684471      5527.6216    
       114   0             -2181.1861      1699.9251      1755.1051      1656.56        1688.1103      47.745572      117.99163     -65.299788      17.679882      17.679373      17.684471      5527.6216    
       115   0             -2181.1861      1700.0414      1755.3441      1656.6072      1688.1729      47.675619      118.03837     -65.45314       17.679882      17.679373      17.684471      5527.6216    
       116   0             -2181.1861      1699.7441      1755.0974      1656.2733      1687.8615      47.728402      117.98513     -65.524226      17.679882      17.679373      17.684471      5527.6216    
       117   0             -2181.1861      1699.5609      1754.9446      1656.0579      1687.6803      47.784436      117.99511     -65.529732      17.679882      17.679373      17.684471      5527.6216    
       118   0             -2181.1861      1699.7463      1755.1626      1656.214       1687.8624      47.828617      118.03805     -65.504027      17.679882      17.679373      17.684471      5527.6216    
       119   0             -2181.1861      1699.8615      1755.27        1656.3485      1687.9661      47.819689      118.02014     -65.477976      17.679882      17.679373      17.684471      5527.6216    
       120   0             -2181.1861      1699.7833      1755.1709      1656.2986      1687.8804      47.820054      118.02935     -65.464789      17.679882      17.679373      17.684471      5527.6216    
       121   0             -2181.1861      1699.7606      1755.1418      1656.2847      1687.8553      47.806442      118.04012     -65.463702      17.679882      17.679373      17.684471      5527.6216    
       122   0             -2181.1861      1699.7697      1755.1566      1656.2899      1687.8626      47.793692      118.04571     -65.46659       17.679882      17.679373      17.684471      5527.6216    
       123   0             -2181.1861      1699.7739      1755.1625      1656.2901      1687.8692      47.795516      118.04705     -65.459424      17.679882      17.679373      17.684471      5527.6216    
       124   0             -2181.1861      1699.7668      1755.1571      1656.2784      1687.8649      47.795986      118.05059     -65.455852      17.679882      17.679373      17.684471      5527.6216    
       125   0             -2181.1861      1699.7563      1755.1446      1656.2657      1687.8584      47.796986      118.05007     -65.456804      17.679882      17.679373      17.684471      5527.6216    
       126   0             -2181.1861      1699.7566      1755.1438      1656.2675      1687.8586      47.79646       118.04974     -65.457856      17.679882      17.679373      17.684471      5527.6216    
       127   0             -2181.1861      1699.7605      1755.1463      1656.2726      1687.8627      47.79783       118.05124     -65.456869      17.679882      17.679373      17.684471      5527.6216    
       128   0             -2181.1861      1699.7644      1755.1495      1656.2769      1687.867       47.797511      118.05122     -65.456663      17.679882      17.679373      17.684471      5527.6216    
       129   0             -2181.1861      1699.7641      1755.1493      1656.2761      1687.8671      47.797359      118.05122     -65.456256      17.679882      17.679373      17.684471      5527.6216    
       130   0             -2181.1861      1699.7639      1755.1491      1656.2757      1687.8668      47.796572      118.05119     -65.456459      17.679882      17.679373      17.684471      5527.6216    
       131   0             -2181.1861      1699.7631      1755.1483      1656.2748      1687.8663      47.797217      118.0511      -65.45643       17.679882      17.679373      17.684471      5527.6216    
       132   0             -2181.1861      1699.7638      1755.1489      1656.2755      1687.8669      47.797184      118.05138     -65.456698      17.679882      17.679373      17.684471      5527.6216    
       133   0             -2181.1861      1699.7639      1755.149       1656.2758      1687.8669      47.797271      118.05122     -65.456776      17.679882      17.679373      17.684471      5527.6216    
[...]
       155   0             -2181.1861      1701.5886      1756.6727      1658.7081      1689.385       48.981553      118.04923     -65.459117      17.679882      17.679355      17.684471      5527.6161    
       156   0             -2181.1861      1701.5886      1756.6727      1658.7081      1689.385       48.981553      118.04923     -65.459117      17.679882      17.679355      17.684471      5527.6161    
       157   0             -2181.1861      1701.5886      1756.6727      1658.7081      1689.385       48.981553      118.04923     -65.459117      17.679882      17.679355      17.684471      5527.6161    
       158   0             -2181.1861      1701.5886      1756.6727      1658.7081      1689.385       48.981553      118.04923     -65.459117      17.679882      17.679355      17.684471      5527.6161    
       159   0             -2181.1861      1701.5886      1756.6727      1658.7081      1689.385       48.981553      118.04923     -65.459117      17.679882      17.679355      17.684471      5527.6161    
       160   0             -2181.1861      1701.5886      1756.6727      1658.7081      1689.385       48.981553      118.04923     -65.459117      17.679882      17.679355      17.684471      5527.6161    
       161   0             -2181.1861      1701.5886      1756.6727      1658.7081      1689.385       48.981553      118.04923     -65.459117      17.679882      17.679355      17.684471      5527.6161    
Loop time of 0.140954 on 1 procs for 61 steps with 500 atoms

99.8% CPU use with 1 MPI tasks x 1 OpenMP threads

Minimization stats:
  Stopping criterion = force tolerance
  Energy initial, next-to-last, final = 
     -2180.91269038325  -2181.18610251942  -2181.18610251942
  Force two-norm initial, final = 2.2163171 6.9899696e-11
  Force max component initial, final = 0.18476336 1.210267e-11
  Final line search alpha, max atom move = 1 1.210267e-11
  Iterations, force evaluations = 61 120

MPI task timing breakdown:
Section |  min time  |  avg time  |  max time  |%varavg| %total
---------------------------------------------------------------
Pair    | 0.13806    | 0.13806    | 0.13806    |   0.0 | 97.95
Neigh   | 0          | 0          | 0          |   0.0 |  0.00
Comm    | 0.000734   | 0.000734   | 0.000734   |   0.0 |  0.52
Output  | 0.001197   | 0.001197   | 0.001197   |   0.0 |  0.85
Modify  | 0          | 0          | 0          |   0.0 |  0.00
Other   |            | 0.000959   |            |       |  0.68

Nlocal:            500 ave         500 max         500 min
Histogram: 1 0 0 0 0 0 0 0 0 0
Nghost:           1956 ave        1956 max        1956 min
Histogram: 1 0 0 0 0 0 0 0 0 0
Neighs:          33500 ave       33500 max       33500 min
Histogram: 1 0 0 0 0 0 0 0 0 0

Total # of neighbors = 33500
Ave neighs/atom = 67
Neighbor list builds = 0
Dangerous builds = 0
OMP_NUM_THREADS environment is not set. Defaulting to 1 thread. (src/comm.cpp:98)
  using 1 OpenMP thread(s) per MPI task
Loaded 1 plugins from F:\Lammps\LAMMPS 64-bit 2Aug2023\plugins

The 'box' command has been removed and will be ignored

Reading restart file ...
  restart file = 2 Aug 2023, LAMMPS = 2 Aug 2023
  restoring atom style atomic from restart
  triclinic box = (0.055058975 0.055322256 0.052764339) to (17.734941 17.734678 17.737236) with tilt (0 0 0)
  1 by 1 by 1 MPI processor grid
  pair style eam/alloy stores no restart info
  500 atoms
  read_restart CPU = 0.000 seconds
Changing box ...
  triclinic box = (0.055058975 0.055322256 0.052764339) to (17.734941 17.734678 17.737236) with tilt (1.7679355e-05 0 0)
Neighbor list info ...
  update: every = 1 steps, delay = 0 steps, check = yes
  max neighbors/atom: 2000, page size: 100000
  master list distance cutoff = 6.80375
  ghost atom cutoff = 6.80375
  1 neighbor lists, perpetual/occasional/extra = 1 0 0
  (1) pair eam/alloy, perpetual
      attributes: half, newton on
      pair build: half/nsq/newton
      stencil: none
      bin: none
Setting up cg style minimization ...
  Unit style    : metal
  Current step  : 100
Per MPI rank memory allocation (min/avg/max) = 4.483 | 4.483 | 4.483 Mbytes
   Step          Temp          PotEng         Press           Pxx            Pyy            Pzz            Pxy            Pxz            Pyz             Lx             Ly             Lz           Volume    
       100   0             -2180.9127      177.43299      177.93468      177.49844      176.86583      42.792061     -39.139977     -89.104303      17.679882      17.679355      17.684471      5527.6161    
       101   0             -2181.099       1124.8473      1132.0588      1118.0717      1124.4116      26.316786      54.933454     -87.73063       17.679882      17.679355      17.684471      5527.6161    
       102   0             -2181.1672      1778.9324      1806.8459      1751.238       1778.7134      28.331117      121.76662     -69.059255      17.679882      17.679355      17.684471      5527.6161    
       103   0             -2181.1796      1608.1135      1646.561       1567.3693      1610.4102      43.83058       102.93041     -73.769073      17.679882      17.679355      17.684471      5527.6161    
       104   0             -2181.1839      1665.6453      1715.6011      1619.3436      1661.991       44.582527      112.41783     -68.75512       17.679882      17.679355      17.684471      5527.6161    
       105   0             -2181.1852      1746.8771      1802.2983      1701.259       1737.0739      43.301645      121.93281     -69.995196      17.679882      17.679355      17.684471      5527.6161    
       106   0             -2181.1857      1705.0531      1762.7708      1661.0854      1691.303       46.747877      119.81548     -64.783425      17.679882      17.679355      17.684471      5527.6161    
       107   0             -2181.1859      1697.7942      1754.9668      1655.2279      1683.1878      46.082833      119.69399     -64.109465      17.679882      17.679355      17.684471      5527.6161    
       108   0             -2181.186       1701.3636      1758.0027      1659.0204      1687.0675      47.70844       119.44598     -64.170948      17.679882      17.679355      17.684471      5527.6161    
       109   0             -2181.186       1701.8711      1756.7586      1659.6307      1689.2241      46.868387      119.19253     -65.227479      17.679882      17.679355      17.684471      5527.6161    
       110   0             -2181.1861      1702.291       1756.4551      1660.0225      1690.3955      47.037224      119.4331      -64.98134       17.679882      17.679355      17.684471      5527.6161    
       111   0             -2181.1861      1701.171       1755.1837      1658.5242      1689.8051      46.900824      117.89183     -65.591139      17.679882      17.679355      17.684471      5527.6161    
       112   0             -2181.1861      1699.9127      1754.3327      1657.1617      1688.2438      46.597986      117.46992     -65.428984      17.679882      17.679355      17.684471      5527.6161    
       113   0             -2181.1861      1701.3882      1756.086       1658.6172      1689.4613      46.51069       117.90062     -65.36198       17.679882      17.679355      17.684471      5527.6161    
       114   0             -2181.1861      1701.7528      1756.632       1658.9951      1689.6314      46.558598      117.99036     -65.299066      17.679882      17.679355      17.684471      5527.6161    
       115   0             -2181.1861      1701.869       1756.8709      1659.0423      1689.6939      46.488663      118.03704     -65.452368      17.679882      17.679355      17.684471      5527.6161    
       116   0             -2181.1861      1701.5719      1756.6244      1658.7086      1689.3827      46.541405      117.98385     -65.523475      17.679882      17.679355      17.684471      5527.6161    
       117   0             -2181.1861      1701.3887      1756.4715      1658.4931      1689.2014      46.597452      117.9938      -65.528981      17.679882      17.679355      17.684471      5527.6161    
       118   0             -2181.1861      1701.574       1756.6894      1658.6491      1689.3834      46.64162       118.03675     -65.503297      17.679882      17.679355      17.684471      5527.6161    
       119   0             -2181.1861      1701.6892      1756.7969      1658.7836      1689.4871      46.63271       118.01884     -65.477232      17.679882      17.679355      17.684471      5527.6161    
       120   0             -2181.1861      1701.611       1756.6978      1658.7338      1689.4015      46.63306       118.02805     -65.464048      17.679882      17.679355      17.684471      5527.6161    
       121   0             -2181.1861      1701.5883      1756.6687      1658.7199      1689.3763      46.619465      118.03881     -65.462954      17.679882      17.679355      17.684471      5527.6161    
       122   0             -2181.1861      1701.5974      1756.6836      1658.7251      1689.3836      46.6067        118.04441     -65.465848      17.679882      17.679355      17.684471      5527.6161    
       123   0             -2181.1861      1701.6016      1756.6894      1658.7252      1689.3903      46.608528      118.04575     -65.458683      17.679882      17.679355      17.684471      5527.6161    
       124   0             -2181.1861      1701.5945      1756.6841      1658.7136      1689.386       46.608996      118.04929     -65.45511       17.679882      17.679355      17.684471      5527.6161    
       125   0             -2181.1861      1701.584       1756.6716      1658.7009      1689.3795      46.609998      118.04877     -65.456061      17.679882      17.679355      17.684471      5527.6161    
       126   0             -2181.1861      1701.5844      1756.6707      1658.7027      1689.3797      46.609471      118.04844     -65.457114      17.679882      17.679355      17.684471      5527.6161    
       127   0             -2181.1861      1701.5882      1756.6732      1658.7078      1689.3837      46.610842      118.04994     -65.456126      17.679882      17.679355      17.684471      5527.6161    
       128   0             -2181.1861      1701.5922      1756.6764      1658.712       1689.388       46.610522      118.04992     -65.455921      17.679882      17.679355      17.684471      5527.6161    
       129   0             -2181.1861      1701.5919      1756.6762      1658.7112      1689.3881      46.61037       118.04992     -65.455513      17.679882      17.679355      17.684471      5527.6161    
       130   0             -2181.1861      1701.5916      1756.676       1658.7108      1689.3879      46.609583      118.04989     -65.455717      17.679882      17.679355      17.684471      5527.6161    
       131   0             -2181.1861      1701.5908      1756.6752      1658.7099      1689.3873      46.610228      118.0498      -65.455688      17.679882      17.679355      17.684471      5527.6161    
       132   0             -2181.1861      1701.5915      1756.6758      1658.7107      1689.388       46.610195      118.05008     -65.455955      17.679882      17.679355      17.684471      5527.6161    
       133   0             -2181.1861      1701.5916      1756.6759      1658.711       1689.3879      46.610282      118.04992     -65.456034      17.679882      17.679355      17.684471      5527.6161    
       134   0             -2181.1861      1701.5912      1756.6757      1658.7106      1689.3874      46.610051      118.04985     -65.455951      17.679882      17.679355      17.684471      5527.6161    
       135   0             -2181.1861      1701.5911      1756.6756      1658.7105      1689.3873      46.609986      118.04983     -65.455932      17.679882      17.679355      17.684471      5527.6161    
       136   0             -2181.1861      1701.5912      1756.6756      1658.7105      1689.3873      46.610005      118.0498      -65.455942      17.679882      17.679355      17.684471      5527.6161    
       137   0             -2181.1861      1701.5912      1756.6757      1658.7106      1689.3874      46.610041      118.04978     -65.455963      17.679882      17.679355      17.684471      5527.6161    
       138   0             -2181.1861      1701.5912      1756.6757      1658.7106      1689.3874      46.610047      118.04979     -65.455953      17.679882      17.679355      17.684471      5527.6161    
       139   0             -2181.1861      1701.5912      1756.6756      1658.7106      1689.3874      46.610058      118.04979     -65.455952      17.679882      17.679355      17.684471      5527.6161    
       140   0             -2181.1861      1701.5912      1756.6756      1658.7105      1689.3874      46.610054      118.04978     -65.455965      17.679882      17.679355      17.684471      5527.6161    
       141   0             -2181.1861      1701.5912      1756.6756      1658.7106      1689.3874      46.61005       118.04978     -65.455969      17.679882      17.679355      17.684471      5527.6161    
       142   0             -2181.1861      1701.5912      1756.6756      1658.7106      1689.3874      46.610053      118.04978     -65.455966      17.679882      17.679355      17.684471      5527.6161    
       143   0             -2181.1861      1701.5912      1756.6756      1658.7106      1689.3874      46.610053      118.04979     -65.455967      17.679882      17.679355      17.684471      5527.6161    
       144   0             -2181.1861      1701.5912      1756.6756      1658.7106      1689.3874      46.610052      118.04979     -65.455968      17.679882      17.679355      17.684471      5527.6161    
       145   0             -2181.1861      1701.5912      1756.6756      1658.7106      1689.3874      46.610052      118.04979     -65.455969      17.679882      17.679355      17.684471      5527.6161    
       146   0             -2181.1861      1701.5912      1756.6756      1658.7106      1689.3874      46.610052      118.04979     -65.455968      17.679882      17.679355      17.684471      5527.6161    
       147   0             -2181.1861      1701.5912      1756.6756      1658.7106      1689.3874      46.610052      118.04979     -65.455968      17.679882      17.679355      17.684471      5527.6161    
       148   0             -2181.1861      1701.5912      1756.6756      1658.7106      1689.3874      46.610052      118.04979     -65.455968      17.679882      17.679355      17.684471      5527.6161    
       149   0             -2181.1861      1701.5912      1756.6756      1658.7106      1689.3874      46.610052      118.04979     -65.455968      17.679882      17.679355      17.684471      5527.6161    
       150   0             -2181.1861      1701.5912      1756.6756      1658.7106      1689.3874      46.610053      118.04979     -65.455968      17.679882      17.679355      17.684471      5527.6161    
       151   0             -2181.1861      1701.5912      1756.6756      1658.7106      1689.3874      46.610053      118.04979     -65.455968      17.679882      17.679355      17.684471      5527.6161    
       152   0             -2181.1861      1701.5912      1756.6756      1658.7106      1689.3874      46.610053      118.04979     -65.455968      17.679882      17.679355      17.684471      5527.6161    
       153   0             -2181.1861      1701.5912      1756.6756      1658.7106      1689.3874      46.610053      118.04979     -65.455968      17.679882      17.679355      17.684471      5527.6161    
       154   0             -2181.1861      1701.5912      1756.6756      1658.7106      1689.3874      46.610053      118.04979     -65.455968      17.679882      17.679355      17.684471      5527.6161    
       155   0             -2181.1861      1701.5912      1756.6756      1658.7106      1689.3874      46.610053      118.04979     -65.455968      17.679882      17.679355      17.684471      5527.6161    
       156   0             -2181.1861      1701.5912      1756.6756      1658.7106      1689.3874      46.610053      118.04979     -65.455968      17.679882      17.679355      17.684471      5527.6161    
       157   0             -2181.1861      1701.5912      1756.6756      1658.7106      1689.3874      46.610053      118.04979     -65.455968      17.679882      17.679355      17.684471      5527.6161    
       158   0             -2181.1861      1701.5912      1756.6756      1658.7106      1689.3874      46.610053      118.04979     -65.455968      17.679882      17.679355      17.684471      5527.6161    
       159   0             -2181.1861      1701.5912      1756.6756      1658.7106      1689.3874      46.610053      118.04979     -65.455968      17.679882      17.679355      17.684471      5527.6161    
       160   0             -2181.1861      1701.5912      1756.6756      1658.7106      1689.3874      46.610053      118.04979     -65.455968      17.679882      17.679355      17.684471      5527.6161    
       161   0             -2181.1861      1701.5912      1756.6756      1658.7106      1689.3874      46.610053      118.04979     -65.455968      17.679882      17.679355      17.684471      5527.6161    
Loop time of 0.140836 on 1 procs for 61 steps with 500 atoms

99.9% CPU use with 1 MPI tasks x 1 OpenMP threads

Minimization stats:
  Stopping criterion = force tolerance
  Energy initial, next-to-last, final = 
     -2180.91269068673  -2181.18610284923  -2181.18610284925
  Force two-norm initial, final = 2.2163164 6.992245e-11
  Force max component initial, final = 0.18476301 1.2140997e-11
  Final line search alpha, max atom move = 1 1.2140997e-11
  Iterations, force evaluations = 61 120

MPI task timing breakdown:
Section |  min time  |  avg time  |  max time  |%varavg| %total
---------------------------------------------------------------
Pair    | 0.13811    | 0.13811    | 0.13811    |   0.0 | 98.06
Neigh   | 0          | 0          | 0          |   0.0 |  0.00
Comm    | 0.000727   | 0.000727   | 0.000727   |   0.0 |  0.52
Output  | 0.001018   | 0.001018   | 0.001018   |   0.0 |  0.72
Modify  | 0          | 0          | 0          |   0.0 |  0.00
Other   |            | 0.000983   |            |       |  0.70

Nlocal:            500 ave         500 max         500 min
Histogram: 1 0 0 0 0 0 0 0 0 0
Nghost:           1956 ave        1956 max        1956 min
Histogram: 1 0 0 0 0 0 0 0 0 0
Neighs:          33500 ave       33500 max       33500 min
Histogram: 1 0 0 0 0 0 0 0 0 0

Total # of neighbors = 33500
Ave neighs/atom = 67
Neighbor list builds = 0
Dangerous builds = 0
=========================================
Components of the Elastic Constant Tensor
=========================================
Elastic Constant C11all = 244.314438888992 GPa
Elastic Constant C22all = 243.393358909496 GPa
Elastic Constant C33all = 243.143144739501 GPa
Elastic Constant C12all = 152.539895110247 GPa
Elastic Constant C13all = 152.55349117826 GPa
Elastic Constant C23all = 151.986819108752 GPa
Elastic Constant C44all = 118.18774069114 GPa
Elastic Constant C55all = 118.373241686149 GPa
Elastic Constant C66all = 118.57500356285 GPa
Elastic Constant C14all = 0.0250549687590365 GPa
Elastic Constant C15all = -0.0322712690476692 GPa
Elastic Constant C16all = -0.14356292157521 GPa
Elastic Constant C24all = -0.0766647835240519 GPa
Elastic Constant C25all = -0.163720122847735 GPa
Elastic Constant C26all = -0.123893544352384 GPa
Elastic Constant C34all = -0.00197065967961407 GPa
Elastic Constant C35all = -0.0611186856999666 GPa
Elastic Constant C36all = -0.115235934816696 GPa
Elastic Constant C45all = -0.0123871967178957 GPa
Elastic Constant C46all = -0.163362658244978 GPa
Elastic Constant C56all = -0.0277259098302665 GPa
=========================================
Average properties for a cubic crystal
=========================================
Bulk Modulus = 182.779039259167 GPa
Shear Modulus 1 = 118.378661980046 GPa
Shear Modulus 2 = 45.6284561901215 GPa
Poisson Ratio = 0.384769947476934
Total wall time: 0:00:02
