LAMMPS (2 Aug 2023 - Update 3)
OMP_NUM_THREADS environment is not set. Defaulting to 1 thread. (src/comm.cpp:98)
  using 1 OpenMP thread(s) per MPI task
Loaded 1 plugins from F:\Lammps\LAMMPS 64-bit 2Aug2023\plugins
Reading data file ...
  orthogonal box = (0 0 0) to (17.79 17.79 17.79)
  1 by 1 by 1 MPI processor grid
  reading atoms ...
  500 atoms
  read_data CPU = 0.001 seconds
Changing box ...
  triclinic box = (0 0 0) to (17.79 17.79 17.79) with tilt (0 0 0)
Neighbor list info ...
  update: every = 1 steps, delay = 0 steps, check = yes
  max neighbors/atom: 2000, page size: 100000
  master list distance cutoff = 6.80375
  ghost atom cutoff = 6.80375
  1 neighbor lists, perpetual/occasional/extra = 1 0 0
  (1) pair eam/alloy, perpetual
      attributes: half, newton on
      pair build: half/nsq/newton
      stencil: none
      bin: none
Setting up cg style minimization ...
  Unit style    : metal
  Current step  : 0
WARNING: Energy due to 3 extra global DOFs will be included in minimizer energies
 (src/min.cpp:228)
Per MPI rank memory allocation (min/avg/max) = 4.492 | 4.492 | 4.492 Mbytes
   Step          Temp          PotEng         Press           Pxx            Pyy            Pzz            Pxy            Pxz            Pyz             Lx             Ly             Lz           Volume    
         0   0             -2179.8589     -32026.97      -32080.778     -31954.461     -32045.672      3.0542421     -35.897995      20.37914       17.79          17.79          17.79          5630.2521    
         1   0             -2179.8923     -31481.583     -31535.338     -31409.476     -31499.934      2.9697855     -36.308474      20.157852      17.788221      17.788228      17.788223      5628.5661    
         2   0             -2179.9251     -30935.765     -30989.469     -30864.065     -30953.76       2.8835404     -36.716793      19.936285      17.786442      17.786456      17.786446      5626.8804    
         3   0             -2179.9574     -30389.511     -30443.167     -30318.224     -30407.142      2.7955653     -37.122997      19.71456       17.784663      17.784684      17.784669      5625.1951    
         4   0             -2179.9891     -29842.845     -29896.455     -29771.975     -29860.105      2.7056537     -37.527789      19.492584      17.782884      17.782913      17.782892      5623.5101    
         5   0             -2180.0202     -29295.848     -29349.411     -29225.4       -29312.732      2.6151494     -37.933089      19.268198      17.781105      17.781141      17.781115      5621.8256    
         6   0             -2180.0507     -28748.559     -28802.076     -28678.539     -28765.063      2.5245931     -38.338532      19.040252      17.779326      17.77937       17.779338      5620.1415    
         7   0             -2180.0806     -28200.982     -28254.453     -28131.394     -28217.1        2.4338415     -38.744029      18.808566      17.777547      17.777598      17.777562      5618.4577    
         8   0             -2180.11       -27653.064     -27706.49      -27583.914     -27668.788      2.3419589     -39.149072      18.574202      17.775768      17.775827      17.775785      5616.7744    
         9   0             -2180.1388     -27104.75      -27158.129     -27036.046     -27120.074      2.2481139     -39.551836      18.33875       17.773989      17.774056      17.774009      5615.0914    
        10   0             -2180.1669     -26556.017     -26609.349     -26487.765     -26570.938      2.1529044     -39.95254       18.103162      17.77221       17.772285      17.772232      5613.4089    
        11   0             -2180.1945     -26006.885     -26060.167     -25939.091     -26021.398      2.0566403     -40.351293      17.867143      17.770431      17.770514      17.770456      5611.7267    
        12   0             -2180.2216     -25457.399     -25510.629     -25390.067     -25471.5        1.9593362     -40.748416      17.630492      17.768652      17.768743      17.768679      5610.045     
        13   0             -2180.248      -24907.58      -24960.76      -24840.716     -24921.262      1.8601661     -41.144689      17.392266      17.766873      17.766973      17.766903      5608.3636    
        14   0             -2180.2739     -24357.462     -24410.595     -24291.073     -24370.717      1.7576246     -41.539494      17.15054       17.765094      17.765202      17.765127      5606.6827    
        15   0             -2180.2991     -23807.012     -23860.093     -23741.107     -23819.835      1.651906      -41.931571      16.904856      17.763315      17.763432      17.763351      5605.0022    
        16   0             -2180.3238     -23256.195     -23309.219     -23190.784     -23268.582      1.5430214     -42.320007      16.654695      17.761536      17.761662      17.761575      5603.3221    
        17   0             -2180.3479     -22704.993     -22757.953     -22640.084     -22716.941      1.4318703     -42.705728      16.401502      17.759757      17.759892      17.759799      5601.6424    
        18   0             -2180.3714     -22153.396     -22206.29      -22088.995     -22164.903      1.3189427     -43.090364      16.14796       17.757978      17.758122      17.758023      5599.9631    
        19   0             -2180.3944     -21601.48      -21654.313     -21537.589     -21612.54       1.2039964     -43.476987      15.894836      17.756199      17.756352      17.756247      5598.2843    
        20   0             -2180.4167     -21049.259     -21102.034     -20985.879     -21059.863      1.0872586     -43.865245      15.642279      17.75442       17.754583      17.754472      5596.6059    
        21   0             -2180.4385     -20496.764     -20549.483     -20433.901     -20506.906      0.96883268    -44.253349      15.38742       17.752641      17.752814      17.752696      5594.9279    
        22   0             -2180.4597     -19943.925     -19996.582     -19881.591     -19953.602      0.84853191    -44.638345      15.12815       17.750862      17.751045      17.750921      5593.2504    
        23   0             -2180.4803     -19390.768     -19443.356     -19328.971     -19399.975      0.72699509    -45.019863      14.864851      17.749083      17.749276      17.749146      5591.5734    
        24   0             -2180.5003     -18837.289     -18889.804     -18776.039     -18846.023      0.60394153    -45.397994      14.597902      17.747304      17.747508      17.747371      5589.8967    
        25   0             -2180.5197     -18283.524     -18335.966     -18222.823     -18291.782      0.47918909    -45.775042      14.330593      17.745525      17.745739      17.745596      5588.2206    
        26   0             -2180.5386     -17729.487     -17781.847     -17669.349     -17737.266      0.35276444    -46.149744      14.063268      17.743746      17.743971      17.743821      5586.5449    
        27   0             -2180.5568     -17175.138     -17227.408     -17115.575     -17182.433      0.22409245    -46.522425      13.795582      17.741967      17.742204      17.742047      5584.8697    
        28   0             -2180.5745     -16620.477     -16672.648     -16561.501     -16627.283      0.093104769   -46.893378      13.526424      17.740188      17.740436      17.740272      5583.195     
        29   0             -2180.5916     -16065.52      -16117.593     -16007.139     -16071.829     -0.040935      -47.262809      13.253251      17.738409      17.738669      17.738498      5581.5208    
        30   0             -2180.6081     -15510.282     -15562.256     -15452.503     -15516.086     -0.17845902    -47.630647      12.975834      17.73663       17.736902      17.736724      5579.8471    
        31   0             -2180.624      -14954.792     -15006.668     -14897.623     -14960.085     -0.31944476    -47.996335      12.694403      17.734851      17.735136      17.734951      5578.1739    
        32   0             -2180.6394     -14399.026     -14450.793     -14342.483     -14403.802     -0.46302816    -48.359155      12.410494      17.733072      17.73337       17.733177      5576.5012    
        33   0             -2180.6541     -13842.952     -13894.601     -13787.047     -13847.207     -0.60717729    -48.720936      12.126769      17.731293      17.731604      17.731404      5574.8291    
        34   0             -2180.6683     -13286.575     -13338.097     -13231.32      -13290.308     -0.75174258    -49.081785      11.84303       17.729514      17.729839      17.729631      5573.1576    
        35   0             -2180.6819     -12729.902     -12781.287     -12675.308     -12733.111     -0.89665873    -49.441727      11.559096      17.727735      17.728074      17.727858      5571.4866    
        36   0             -2180.6949     -12173.015     -12224.253     -12119.095     -12175.697     -1.0438616     -49.798083      11.272566      17.725956      17.72631       17.726086      5569.8162    
        37   0             -2180.7073     -11615.953     -11667.03      -11562.726     -11618.103     -1.1947132     -50.149942      10.982844      17.724177      17.724546      17.724314      5568.1464    
        38   0             -2180.7191     -11058.735     -11109.636     -11006.221     -11060.348     -1.3492373     -50.497452      10.690026      17.722398      17.722783      17.722543      5566.4773    
        39   0             -2180.7304     -10501.331     -10552.036     -10449.558     -10502.399     -1.5069306     -50.84287       10.394512      17.720619      17.721021      17.720772      5564.8089    
        40   0             -2180.741      -9943.683      -9994.1739     -9892.6709     -9944.2043     -1.6657059     -51.186789      10.09716       17.71884       17.719259      17.719001      5563.1412    
        41   0             -2180.7511     -9385.7683     -9436.0255     -9335.5377     -9385.7418     -1.824988      -51.530163      9.7978422      17.717061      17.717498      17.717231      5561.4742    
        42   0             -2180.7606     -8827.6211     -8877.627      -8778.189      -8827.0472     -1.9851729     -51.872495      9.4965809      17.715282      17.715738      17.715461      5559.808     
        43   0             -2180.7695     -8269.344      -8319.08       -8220.7294     -8268.2225     -2.1462495     -52.214318      9.1938152      17.713503      17.713979      17.713693      5558.1427    
        44   0             -2180.7779     -7710.9827     -7760.4264     -7663.2096     -7709.312      -2.3089163     -52.554708      8.8891241      17.711724      17.712221      17.711924      5556.4783    
        45   0             -2180.7856     -7152.6071     -7201.7273     -7105.7068     -7150.3873     -2.4728573     -52.892673      8.5823372      17.709945      17.710465      17.710157      5554.8148    
        46   0             -2180.7928     -6594.1879     -6642.9414     -6548.2024     -6591.4198     -2.6376022     -53.226971      8.273371       17.708166      17.70871       17.708391      5553.1525    
        47   0             -2180.7994     -6035.7547     -6084.095      -5990.7274     -6032.4419     -2.8031464     -53.557912      7.9625694      17.706387      17.706956      17.706626      5551.4913    
        48   0             -2180.8054     -5477.3558     -5525.2284     -5433.336      -5473.5031     -2.9696695     -53.885883      7.6503815      17.704608      17.705204      17.704862      5549.8315    
        49   0             -2180.8108     -4919.0488     -4966.3952     -4876.0885     -4914.6627     -3.1377883     -54.211789      7.3364944      17.702829      17.703455      17.703099      5548.1733    
        50   0             -2180.8156     -4360.9071     -4407.6473     -4319.0758     -4355.9982     -3.3079006     -54.534903      7.0201978      17.70105       17.701708      17.701339      5546.5168    
        51   0             -2180.8199     -3803.0408     -3849.0793     -3762.4189     -3797.6243     -3.4800791     -54.854421      6.7013334      17.699271      17.699965      17.699581      5544.8624    
        52   0             -2180.8236     -3245.6242     -3290.8374     -3206.3145     -3239.7206     -3.6540141     -55.170572      6.3803101      17.697492      17.698226      17.697826      5543.2107    
        53   0             -2180.8267     -2688.9244     -2733.1627     -2651.0474     -2682.5631     -3.8291886     -55.484709      6.058157       17.695713      17.696493      17.696074      5541.5622    
        54   0             -2180.8293     -2133.3659     -2176.4113     -2097.0979     -2126.5883     -4.0039371     -55.796199      5.7345368      17.693934      17.694768      17.694328      5539.9182    
        55   0             -2180.8313     -1579.5732     -1621.1007     -1545.1743     -1572.4447     -4.1776484     -56.104006      5.4087728      17.692155      17.693054      17.69259       5538.2804    
        56   0             -2180.8327     -1028.7432     -1068.2048     -996.64654     -1021.3783     -4.3499342     -56.404617      5.0791131      17.690376      17.691358      17.690865      5536.6528    
        57   0             -2180.8337     -483.82979     -520.17296     -454.86312     -476.45329     -4.5196182     -56.692825      4.7439859      17.688597      17.689698      17.689164      5535.0444    
        58   0             -2180.8343      43.317045      13.148054      66.775144      50.027936     -4.6796148     -56.953604      4.3969281      17.686818      17.688143      17.687534      5533.4913    
        59   0             -2180.8394     -190.55688     -153.75793     -219.23831     -198.67439     -4.4764501     -56.487674      4.0310158      17.686307      17.689922      17.688596      5534.22      
        60   0             -2180.8406      315.33247      338.66994      296.57817      310.74931     -4.642537      -56.690175      3.5918992      17.684981      17.688143      17.686959      5532.7366    
        61   0             -2180.8423     -143.63051     -136.82961     -148.81172     -145.25019     -4.4885979     -56.345555      3.6723473      17.68676       17.689343      17.688348      5534.1031    
        62   0             -2180.8448      366.77624      360.31644      371.31891      368.69336     -4.6419576     -56.466451      3.0863268      17.685427      17.687564      17.686709      5532.6167    
        63   0             -2180.8465     -181.62892     -189.99662     -174.90282     -179.98732     -4.4432985     -56.070888      3.2341744      17.687206      17.689264      17.688439      5534.2466    
        64   0             -2180.8497      358.37012      355.35081      360.18672      359.57283     -4.5810709     -56.155073      2.5651577      17.685427      17.687679      17.686791      5532.6786    
        65   0             -2180.8515     -191.37624     -191.44379     -191.17375     -191.51117     -4.3740975     -55.746783      2.6998631      17.687118      17.689458      17.688548      5534.3136    
        66   0             -2180.8548      368.88575      370.94102      366.72814      368.98809     -4.5215749     -55.829722      1.9953482      17.685339      17.687761      17.686826      5532.6873    
        67   0             -2180.8568     -190.96688     -188.51866     -192.71084     -191.67115     -4.3107363     -55.406951      2.1178662      17.687112      17.689534      17.688605      5534.3533    
        68   0             -2180.8603      374.32637      374.38345      373.74639      374.84927     -4.4645963     -55.482293      1.3886024      17.685405      17.687755      17.686849      5532.7136    
        69   0             -2180.8622     -182.33746     -182.69786     -181.88491     -182.42963     -4.2538611     -55.058514      1.5046279      17.687184      17.689506      17.688614      5534.3703    
        70   0             -2180.8659      392.31777      391.37959      392.4863       393.08744     -4.4092207     -55.124608      0.74970883     17.685415      17.687727      17.686838      5532.7047    
        71   0             -2180.8678     -167.42381     -167.86988     -166.93715     -167.46441     -4.1951589     -54.697719      0.86740264     17.687186      17.689501      17.688617      5534.3705    
        72   0             -2180.8717      405.29438      405.22996      404.7619       405.89127     -4.3482865     -54.743545      0.084310827    17.685407      17.687745      17.686854      5532.7128    
        73   0             -2180.8736     -154.61729     -154.16898     -154.84576     -154.83712     -4.133553      -54.320195      0.2095222      17.687178      17.689519      17.688633      5534.3785    
        74   0             -2180.8777      421.41812      421.26765      420.94177      422.04495     -4.2876669     -54.344797     -0.6131104      17.685411      17.68774       17.686859      5532.7139    
        75   0             -2180.8796     -139.06218     -138.95476     -139.03772     -139.19408     -4.0723069     -53.924674     -0.48075315     17.687187      17.689512      17.688638      5534.3806    
        76   0             -2180.8841      438.71547      438.35005      438.38614      439.41022     -4.2250525     -53.920741     -1.3508414      17.685416      17.687733      17.686863      5532.7143    
        77   0             -2180.8858     -121.92369     -121.93515     -121.83151     -122.00441     -4.009028      -53.505102     -1.2094416      17.68719       17.689506      17.688642      5534.3807    
        78   0             -2180.8908      458.06934      457.86024      457.59666      458.75112     -4.1592879     -53.462721     -2.1428453      17.685411      17.687728      17.686866      5532.7125    
        79   0             -2180.8925     -102.85025     -102.68429     -102.91927     -102.94718     -3.9425295     -53.052389     -1.9913507      17.687186      17.689502      17.688645      5534.379     
        80   0             -2180.8981      478.13071      477.77618      477.75126      478.86469     -4.0885499     -52.954665     -3.0135473      17.685417      17.687723      17.686872      5532.7144    
        81   0             -2180.8997     -83.183103     -83.187962     -83.141524     -83.219823     -3.8710453     -52.550237     -2.8505896      17.687192      17.689496      17.688651      5534.381     
        82   0             -2180.9063      502.48182      502.28506      501.95011      503.21028     -4.0099115     -52.368128     -4.0118631      17.685413      17.687717      17.686876      5532.7126    
        83   0             -2180.9078     -59.177712     -59.010055     -59.30184      -59.221241     -3.7914705     -51.969384     -3.8376227      17.687188      17.68949       17.688655      5534.3792    
        84   0             -2180.9165      529.44386      528.79935      529.2392       530.29301     -3.9133158     -51.619696     -5.2675613      17.685433      17.687711      17.68689       5532.7215    
        85   0             -2180.9179     -32.633849     -32.891407     -32.450946     -32.559194     -3.6937921     -51.228071     -5.0798452      17.687207      17.689485      17.688669      5534.3882    
        86   0             -2180.9324      565.77371      567.40994      563.71078      566.20043     -3.7611293     -50.407693     -7.2590181      17.685428      17.687769      17.686946      5532.7556    
        87   0             -2180.9337      3.327432       5.1025765      1.8490087      3.0307106     -3.5398944     -50.023501     -7.0577784      17.687207      17.689538      17.688724      5534.4219    
        88   0             -2180.9623     -275.32188     -305.13256     -251.22578     -269.6073      -3.1654201     -47.505682     -10.646972      17.688986      17.690183      17.68978       5535.5108    
        89   0             -2180.963       239.28634      218.05279      255.89131      243.91491     -3.3498008     -47.724331     -11.022899      17.687207      17.688712      17.688204      5534.0008    
        90   0             -2180.9654     -155.43866     -142.63082     -165.59231     -158.09285     -3.1440765     -47.291198     -11.094959      17.687821      17.690491      17.689602      5535.1867    
        91   0             -2180.9669      416.63617      429.17844      406.03926      414.69083     -3.3508199     -47.455242     -11.641135      17.686042      17.688712      17.687823      5533.5171    
        92   0             -2180.9692     -111.37372     -103.70517     -117.38141     -113.0346      -3.1317218     -46.985348     -11.62721       17.687821      17.690307      17.689486      5535.093     
        93   0             -2180.9718      406.1681       401.62177      409.28797      407.59456     -3.3187636     -47.016028     -12.310417      17.686457      17.688528      17.687845      5533.5958    
        94   0             -2180.9735     -135.47494     -142.99338     -129.33645     -134.09498     -3.0973318     -46.590343     -12.208759      17.688236      17.69019       17.68955       5535.206     
        95   0             -2180.9772      402.42043      401.50489      402.56601      403.19039     -3.2675963     -46.529307     -13.033417      17.686457      17.688647      17.687929      5533.6593    
        96   0             -2180.9788     -148.64776     -146.85587     -150.00497     -149.08243     -3.03569       -46.088931     -12.935303      17.688157      17.690426      17.689687      5535.298     
        97   0             -2180.9833      428.02517      430.55214      425.45908      428.06428     -3.2216861     -45.973243     -13.896546      17.686378      17.688676      17.687933      5533.6453    
        98   0             -2180.9852     -130.26844     -127.81954     -132.07835     -130.90744     -2.9861875     -45.508744     -13.828599      17.688157      17.690437      17.689706      5535.3075    
        99   0             -2180.9899      429.27062      426.59816      430.83943      430.37427     -3.1701165     -45.34306      -14.840849      17.686549      17.688658      17.687985      5533.7096    
       100   0             -2180.9918     -127.65557     -130.65416     -125.16672     -127.14584     -2.9344801     -44.882019     -14.769856      17.688328      17.69041       17.689752      5535.3673    
Loop time of 0.118799 on 1 procs for 100 steps with 500 atoms

78.9% CPU use with 1 MPI tasks x 1 OpenMP threads

Minimization stats:
  Stopping criterion = max iterations
  Energy initial, next-to-last, final = 
     -2179.85886904168  -2180.98992920937  -2180.99179384461
  Force two-norm initial, final = 194.96301 2.1375367
  Force max component initial, final = 112.73594 0.45399231
  Final line search alpha, max atom move = 8.4695866e-05 3.8451272e-05
  Iterations, force evaluations = 100 100

MPI task timing breakdown:
Section |  min time  |  avg time  |  max time  |%varavg| %total
---------------------------------------------------------------
Pair    | 0.10993    | 0.10993    | 0.10993    |   0.0 | 92.53
Neigh   | 0          | 0          | 0          |   0.0 |  0.00
Comm    | 0.000632   | 0.000632   | 0.000632   |   0.0 |  0.53
Output  | 0.00147    | 0.00147    | 0.00147    |   0.0 |  1.24
Modify  | 0          | 0          | 0          |   0.0 |  0.00
Other   |            | 0.006772   |            |       |  5.70

Nlocal:            500 ave         500 max         500 min
Histogram: 1 0 0 0 0 0 0 0 0 0
Nghost:           1956 ave        1956 max        1956 min
Histogram: 1 0 0 0 0 0 0 0 0 0
Neighs:          33500 ave       33500 max       33500 min
Histogram: 1 0 0 0 0 0 0 0 0 0

Total # of neighbors = 33500
Ave neighs/atom = 67
Neighbor list builds = 0
Dangerous builds = 0
Displacing atoms ...
System init for write_restart ...
OMP_NUM_THREADS environment is not set. Defaulting to 1 thread. (src/comm.cpp:98)
  using 1 OpenMP thread(s) per MPI task
Loaded 1 plugins from F:\Lammps\LAMMPS 64-bit 2Aug2023\plugins

The 'box' command has been removed and will be ignored

Reading restart file ...
  restart file = 2 Aug 2023, LAMMPS = 2 Aug 2023
  restoring atom style atomic from restart
  triclinic box = (0.050835784 0.04979481 0.050123971) to (17.739164 17.740205 17.739876) with tilt (0 0 0)
  1 by 1 by 1 MPI processor grid
  pair style eam/alloy stores no restart info
  500 atoms
  read_restart CPU = 0.000 seconds
Changing box ...
  triclinic box = (0.050835784 0.04979481 0.050123971) to (17.739147 17.740205 17.739876) with tilt (0 0 0)
  triclinic box = (0.050835784 0.04979481 0.050123971) to (17.739147 17.740205 17.739876) with tilt (0 0 0)
  triclinic box = (0.050835784 0.04979481 0.050123971) to (17.739147 17.740205 17.739876) with tilt (0 0 0)
Neighbor list info ...
  update: every = 1 steps, delay = 0 steps, check = yes
  max neighbors/atom: 2000, page size: 100000
  master list distance cutoff = 6.80375
  ghost atom cutoff = 6.80375
  1 neighbor lists, perpetual/occasional/extra = 1 0 0
  (1) pair eam/alloy, perpetual
      attributes: half, newton on
      pair build: half/nsq/newton
      stencil: none
      bin: none
Setting up cg style minimization ...
  Unit style    : metal
  Current step  : 100
Per MPI rank memory allocation (min/avg/max) = 4.485 | 4.485 | 4.485 Mbytes
   Step          Temp          PotEng         Press           Pxx            Pyy            Pzz            Pxy            Pxz            Pyz             Lx             Ly             Lz           Volume    
       100   0             -2180.9918     -125.77239     -128.15859     -123.57219     -125.58639     -2.8866434     -44.888396     -14.793737      17.688311      17.69041       17.689752      5535.3618    
       101   0             -2181.134       578.5191       582.82945      569.06748      583.66038     -2.0555786     -27.016824     -42.78532       17.688311      17.69041       17.689752      5535.3618    
       102   0             -2181.2008      1170.2696      1198.9279      1138.1809      1173.6998     -5.0210251     -2.2426499     -63.752801      17.688311      17.69041       17.689752      5535.3618    
       103   0             -2181.217       982.98672      1036.7437      938.8364       973.38006     -10.53379       7.2328274     -58.006242      17.688311      17.69041       17.689752      5535.3618    
       104   0             -2181.2227      1163.0027      1227.1376      1125.6798      1136.1907     -10.236846      13.90798      -61.118488      17.688311      17.69041       17.689752      5535.3618    
       105   0             -2181.2241      1155.0406      1212.4088      1127.9151      1124.7978     -9.1174269      14.691362     -63.676032      17.688311      17.69041       17.689752      5535.3618    
       106   0             -2181.2247      1134.6457      1188.8428      1112.704       1102.3905     -7.9337949      12.271545     -67.006812      17.688311      17.69041       17.689752      5535.3618    
       107   0             -2181.2248      1129.0298      1183.1528      1106.8444      1097.0924     -8.709901       13.611037     -66.15252       17.688311      17.69041       17.689752      5535.3618    
       108   0             -2181.2249      1129.9825      1184.8709      1106.0266      1099.0501     -8.541578       13.860116     -65.685525      17.688311      17.69041       17.689752      5535.3618    
       109   0             -2181.2249      1139.2613      1194.3117      1114.7386      1108.7336     -8.8704688      13.905211     -66.521876      17.688311      17.69041       17.689752      5535.3618    
       110   0             -2181.2249      1136.915       1191.7897      1112.3106      1106.6447     -9.1553333      14.380083     -66.652486      17.688311      17.69041       17.689752      5535.3618    
       111   0             -2181.2249      1133.8002      1188.4832      1109.4305      1103.4869     -9.0336712      14.626422     -66.230478      17.688311      17.69041       17.689752      5535.3618    
       112   0             -2181.2249      1133.8861      1188.3918      1109.6367      1103.6299     -8.8680747      14.310575     -66.245364      17.688311      17.69041       17.689752      5535.3618    
       113   0             -2181.2249      1135.8158      1190.2263      1111.6933      1105.5279     -8.765449       14.74219      -66.30181       17.688311      17.69041       17.689752      5535.3618    
       114   0             -2181.2249      1136.1327      1190.5338      1111.9907      1105.8736     -9.0170963      14.708537     -66.314178      17.688311      17.69041       17.689752      5535.3618    
       115   0             -2181.2249      1135.2849      1189.6712      1111.1236      1105.06       -9.0726245      14.66135      -66.411367      17.688311      17.69041       17.689752      5535.3618    
       116   0             -2181.2249      1135.104       1189.468       1110.8877      1104.9562     -9.0185494      14.620778     -66.467465      17.688311      17.69041       17.689752      5535.3618    
       117   0             -2181.2249      1135.1633      1189.5017      1110.9443      1105.044      -9.0290122      14.551668     -66.465754      17.688311      17.69041       17.689752      5535.3618    
       118   0             -2181.2249      1135.3426      1189.6507      1111.1561      1105.2209     -8.9969508      14.515822     -66.476235      17.688311      17.69041       17.689752      5535.3618    
       119   0             -2181.2249      1135.3456      1189.6455      1111.1737      1105.2177     -9.0092598      14.516574     -66.485086      17.688311      17.69041       17.689752      5535.3618    
       120   0             -2181.2249      1135.2977      1189.5902      1111.1383      1105.1645     -9.0195798      14.543044     -66.487317      17.688311      17.69041       17.689752      5535.3618    
       121   0             -2181.2249      1135.2833      1189.5693      1111.123       1105.1576     -9.0153548      14.550488     -66.491337      17.688311      17.69041       17.689752      5535.3618    
       122   0             -2181.2249      1135.3153      1189.5957      1111.153       1105.1974     -9.0075483      14.541795     -66.482505      17.688311      17.69041       17.689752      5535.3618    
       123   0             -2181.2249      1135.3187      1189.5988      1111.1579      1105.1994     -9.0111821      14.53638      -66.477721      17.688311      17.69041       17.689752      5535.3618    
       124   0             -2181.2249      1135.3052      1189.5866      1111.147       1105.1819     -9.0091703      14.535862     -66.46841       17.688311      17.69041       17.689752      5535.3618    
       125   0             -2181.2249      1135.2988      1189.5807      1111.1425      1105.1733     -9.0099045      14.534377     -66.468304      17.688311      17.69041       17.689752      5535.3618    
       126   0             -2181.2249      1135.296       1189.5782      1111.1413      1105.1686     -9.0103487      14.534885     -66.469876      17.688311      17.69041       17.689752      5535.3618    
       127   0             -2181.2249      1135.3031      1189.5865      1111.1485      1105.1742     -9.0088295      14.535527     -66.470246      17.688311      17.69041       17.689752      5535.3618    
       128   0             -2181.2249      1135.303       1189.5876      1111.148       1105.1734     -9.0093278      14.535372     -66.470528      17.688311      17.69041       17.689752      5535.3618    
       129   0             -2181.2249      1135.3031      1189.5882      1111.1479      1105.1733     -9.0095367      14.534903     -66.469773      17.688311      17.69041       17.689752      5535.3618    
       130   0             -2181.2249      1135.3023      1189.5876      1111.1468      1105.1724     -9.0091741      14.534766     -66.469641      17.688311      17.69041       17.689752      5535.3618    
       131   0             -2181.2249      1135.3028      1189.5885      1111.1473      1105.1727     -9.0093862      14.534868     -66.469836      17.688311      17.69041       17.689752      5535.3618    
       132   0             -2181.2249      1135.3032      1189.5889      1111.1479      1105.1729     -9.0092928      14.535129     -66.469811      17.688311      17.69041       17.689752      5535.3618    
       133   0             -2181.2249      1135.3032      1189.5887      1111.1482      1105.1727     -9.0092954      14.535149     -66.469879      17.688311      17.69041       17.689752      5535.3618    
       134   0             -2181.2249      1135.303       1189.5884      1111.1481      1105.1725     -9.009343       14.535029     -66.469972      17.688311      17.69041       17.689752      5535.3618    
       135   0             -2181.2249      1135.3029      1189.5883      1111.148       1105.1724     -9.0092778      14.535035     -66.469951      17.688311      17.69041       17.689752      5535.3618    
       136   0             -2181.2249      1135.3031      1189.5885      1111.1482      1105.1726     -9.0092942      14.535115     -66.469943      17.688311      17.69041       17.689752      5535.3618    
       137   0             -2181.2249      1135.303       1189.5884      1111.1481      1105.1726     -9.0093192      14.535131     -66.469918      17.688311      17.69041       17.689752      5535.3618    
       138   0             -2181.2249      1135.303       1189.5884      1111.1481      1105.1726     -9.009295       14.535108     -66.469908      17.688311      17.69041       17.689752      5535.3618    
       139   0             -2181.2249      1135.303       1189.5884      1111.1481      1105.1726     -9.0092918      14.535088     -66.469914      17.688311      17.69041       17.689752      5535.3618    
       140   0             -2181.2249      1135.303       1189.5884      1111.1481      1105.1726     -9.0092949      14.535083     -66.469908      17.688311      17.69041       17.689752      5535.3618    
       141   0             -2181.2249      1135.303       1189.5884      1111.1481      1105.1726     -9.009297       14.535088     -66.469904      17.688311      17.69041       17.689752      5535.3618    
       142   0             -2181.2249      1135.303       1189.5884      1111.1481      1105.1726     -9.009296       14.535087     -66.469902      17.688311      17.69041       17.689752      5535.3618    
       143   0             -2181.2249      1135.303       1189.5884      1111.1481      1105.1726     -9.0092957      14.535084     -66.469905      17.688311      17.69041       17.689752      5535.3618    
       144   0             -2181.2249      1135.303       1189.5884      1111.1481      1105.1726     -9.0092969      14.535086     -66.469906      17.688311      17.69041       17.689752      5535.3618    
       145   0             -2181.2249      1135.303       1189.5884      1111.1481      1105.1726     -9.0092958      14.535088     -66.469906      17.688311      17.69041       17.689752      5535.3618    
       146   0             -2181.2249      1135.303       1189.5884      1111.1481      1105.1726     -9.0092948      14.535087     -66.469906      17.688311      17.69041       17.689752      5535.3618    
       147   0             -2181.2249      1135.303       1189.5884      1111.1481      1105.1726     -9.0092948      14.535088     -66.469907      17.688311      17.69041       17.689752      5535.3618    
       148   0             -2181.2249      1135.303       1189.5884      1111.1481      1105.1726     -9.0092947      14.535088     -66.469907      17.688311      17.69041       17.689752      5535.3618    
       149   0             -2181.2249      1135.303       1189.5884      1111.1481      1105.1726     -9.009295       14.535088     -66.469907      17.688311      17.69041       17.689752      5535.3618    
       150   0             -2181.2249      1135.303       1189.5884      1111.1481      1105.1726     -9.0092947      14.535088     -66.469907      17.688311      17.69041       17.689752      5535.3618    
       151   0             -2181.2249      1135.303       1189.5884      1111.1481      1105.1726     -9.0092946      14.535088     -66.469907      17.688311      17.69041       17.689752      5535.3618    
       152   0             -2181.2249      1135.303       1189.5884      1111.1481      1105.1726     -9.0092946      14.535088     -66.469907      17.688311      17.69041       17.689752      5535.3618    
       153   0             -2181.2249      1135.303       1189.5884      1111.1481      1105.1726     -9.0092946      14.535088     -66.469907      17.688311      17.69041       17.689752      5535.3618    
       154   0             -2181.2249      1135.303       1189.5884      1111.1481      1105.1726     -9.0092947      14.535088     -66.469907      17.688311      17.69041       17.689752      5535.3618    
       155   0             -2181.2249      1135.303       1189.5884      1111.1481      1105.1726     -9.0092947      14.535088     -66.469907      17.688311      17.69041       17.689752      5535.3618    
       156   0             -2181.2249      1135.303       1189.5884      1111.1481      1105.1726     -9.0092947      14.535088     -66.469907      17.688311      17.69041       17.689752      5535.3618    
       157   0             -2181.2249      1135.303       1189.5884      1111.1481      1105.1726     -9.0092947      14.535088     -66.469907      17.688311      17.69041       17.689752      5535.3618    
       158   0             -2181.2249      1135.303       1189.5884      1111.1481      1105.1726     -9.0092947      14.535088     -66.469907      17.688311      17.69041       17.689752      5535.3618    
       159   0             -2181.2249      1135.303       1189.5884      1111.1481      1105.1726     -9.0092947      14.535088     -66.469907      17.688311      17.69041       17.689752      5535.3618    
       160   0             -2181.2249      1135.303       1189.5884      1111.1481      1105.1726     -9.0092947      14.535088     -66.469907      17.688311      17.69041       17.689752      5535.3618    
       161   0             -2181.2249      1135.303       1189.5884      1111.1481      1105.1726     -9.0092947      14.535088     -66.469907      17.688311      17.69041       17.689752      5535.3618    
Loop time of 0.142458 on 1 procs for 61 steps with 500 atoms

109.7% CPU use with 1 MPI tasks x 1 OpenMP threads

Minimization stats:
  Stopping criterion = force tolerance
  Energy initial, next-to-last, final = 
       -2180.991790372  -2181.22494948599    -2181.224949486
  Force two-norm initial, final = 1.9946857 7.371188e-11
  Force max component initial, final = 0.2059845 1.0097308e-11
  Final line search alpha, max atom move = 1 1.0097308e-11
  Iterations, force evaluations = 61 120

MPI task timing breakdown:
Section |  min time  |  avg time  |  max time  |%varavg| %total
---------------------------------------------------------------
Pair    | 0.13985    | 0.13985    | 0.13985    |   0.0 | 98.17
Neigh   | 0          | 0          | 0          |   0.0 |  0.00
Comm    | 0.000692   | 0.000692   | 0.000692   |   0.0 |  0.49
Output  | 0.000957   | 0.000957   | 0.000957   |   0.0 |  0.67
Modify  | 0          | 0          | 0          |   0.0 |  0.00
Other   |            | 0.000963   |            |       |  0.68

Nlocal:            500 ave         500 max         500 min
Histogram: 1 0 0 0 0 0 0 0 0 0
Nghost:           1956 ave        1956 max        1956 min
Histogram: 1 0 0 0 0 0 0 0 0 0
Neighs:          33500 ave       33500 max       33500 min
Histogram: 1 0 0 0 0 0 0 0 0 0

Total # of neighbors = 33500
Ave neighs/atom = 67
Neighbor list builds = 0
Dangerous builds = 0
OMP_NUM_THREADS environment is not set. Defaulting to 1 thread. (src/comm.cpp:98)
  using 1 OpenMP thread(s) per MPI task
Loaded 1 plugins from F:\Lammps\LAMMPS 64-bit 2Aug2023\plugins

The 'box' command has been removed and will be ignored

Reading restart file ...
  restart file = 2 Aug 2023, LAMMPS = 2 Aug 2023
  restoring atom style atomic from restart
  triclinic box = (0.050835784 0.04979481 0.050123971) to (17.739164 17.740205 17.739876) with tilt (0 0 0)
  1 by 1 by 1 MPI processor grid
  pair style eam/alloy stores no restart info
  500 atoms
  read_restart CPU = 0.000 seconds
Changing box ...
  triclinic box = (0.050835784 0.04979481 0.050123971) to (17.739182 17.740205 17.739876) with tilt (0 0 0)
  triclinic box = (0.050835784 0.04979481 0.050123971) to (17.739182 17.740205 17.739876) with tilt (0 0 0)
  triclinic box = (0.050835784 0.04979481 0.050123971) to (17.739182 17.740205 17.739876) with tilt (0 0 0)
Neighbor list info ...
  update: every = 1 steps, delay = 0 steps, check = yes
  max neighbors/atom: 2000, page size: 100000
  master list distance cutoff = 6.80375
  ghost atom cutoff = 6.80375
  1 neighbor lists, perpetual/occasional/extra = 1 0 0
  (1) pair eam/alloy, perpetual
      attributes: half, newton on
      pair build: half/nsq/newton
      stencil: none
      bin: none
Setting up cg style minimization ...
  Unit style    : metal
  Current step  : 100
Per MPI rank memory allocation (min/avg/max) = 4.485 | 4.485 | 4.485 Mbytes
   Step          Temp          PotEng         Press           Pxx            Pyy            Pzz            Pxy            Pxz            Pyz             Lx             Ly             Lz           Volume    
       100   0             -2180.9918     -129.52833     -133.13864     -126.71219     -128.73415     -2.8863642     -44.886726     -14.792341      17.688346      17.69041       17.689752      5535.3729    
       101   0             -2181.134       574.76045      577.85027      565.92308      580.50799     -2.0552461     -27.016287     -42.782405      17.688346      17.69041       17.689752      5535.3729    
       102   0             -2181.2008      1166.5053      1193.9384      1135.0346      1170.5429     -5.0208647     -2.2449275     -63.749477      17.688346      17.69041       17.689752      5535.3729    
       103   0             -2181.217       979.30902      1031.8516      935.76897      970.30654     -10.535633      7.237956      -58.005278      17.688346      17.69041       17.689752      5535.3729    
       104   0             -2181.2227      1159.3344      1222.2505      1122.6236      1133.1292     -10.238603      13.909643     -61.117979      17.688346      17.69041       17.689752      5535.3729    
       105   0             -2181.2241      1151.3263      1207.4748      1124.8161      1121.688      -9.1182932      14.693997     -63.673936      17.688346      17.69041       17.689752      5535.3729    
       106   0             -2181.2247      1130.9362      1183.9148      1109.6091      1099.2848     -7.9351885      12.273524     -67.004303      17.688346      17.69041       17.689752      5535.3729    
       107   0             -2181.2248      1125.3227      1178.2278      1103.7506      1093.9898     -8.7113201      13.613642     -66.150156      17.688346      17.69041       17.689752      5535.3729    
       108   0             -2181.2249      1126.2874      1179.958       1102.9447      1095.9595     -8.5428587      13.862314     -65.684061      17.688346      17.69041       17.689752      5535.3729    
       109   0             -2181.2249      1135.5627      1189.3948      1111.654       1105.6392     -8.8714701      13.907393     -66.520347      17.688346      17.69041       17.689752      5535.3729    
       110   0             -2181.2249      1133.2116      1186.8683      1109.2211      1103.5456     -9.156447       14.382143     -66.650789      17.688346      17.69041       17.689752      5535.3729    
       111   0             -2181.2249      1130.0975      1183.5628      1106.3412      1100.3886     -9.0348231      14.628439     -66.228631      17.688346      17.69041       17.689752      5535.3729    
       112   0             -2181.2249      1130.1843      1183.4724      1106.5482      1100.5324     -8.8692315      14.312729     -66.243461      17.688346      17.69041       17.689752      5535.3729    
       113   0             -2181.225       1132.1166      1185.3094      1108.6076      1102.4329     -8.7665901      14.744248     -66.300123      17.688346      17.69041       17.689752      5535.3729    
       114   0             -2181.225       1132.4314      1185.6149      1108.9028      1102.7764     -9.0183337      14.710602     -66.312461      17.688346      17.69041       17.689752      5535.3729    
       115   0             -2181.225       1131.5832      1184.7518      1108.0353      1101.9624     -9.0737585      14.663456     -66.409573      17.688346      17.69041       17.689752      5535.3729    
       116   0             -2181.225       1131.4025      1184.5489      1107.7996      1101.8589     -9.0196868      14.622853     -66.465685      17.688346      17.69041       17.689752      5535.3729    
       117   0             -2181.225       1131.4622      1184.5828      1107.8566      1101.947      -9.0301301      14.553772     -66.463983      17.688346      17.69041       17.689752      5535.3729    
       118   0             -2181.225       1131.6414      1184.7319      1108.0684      1102.1239     -8.9981017      14.517913     -66.474487      17.688346      17.69041       17.689752      5535.3729    
       119   0             -2181.225       1131.6442      1184.7264      1108.0857      1102.1205     -9.0104106      14.518678     -66.483306      17.688346      17.69041       17.689752      5535.3729    
       120   0             -2181.225       1131.5963      1184.6712      1108.0504      1102.0674     -9.0207206      14.545126     -66.485546      17.688346      17.69041       17.689752      5535.3729    
       121   0             -2181.225       1131.582       1184.6503      1108.0351      1102.0604     -9.0164961      14.552584     -66.489569      17.688346      17.69041       17.689752      5535.3729    
       122   0             -2181.225       1131.6141      1184.6767      1108.0651      1102.1003     -9.0086916      14.543891     -66.48074       17.688346      17.69041       17.689752      5535.3729    
       123   0             -2181.225       1131.6174      1184.6799      1108.07        1102.1023     -9.0123285      14.538469     -66.475955      17.688346      17.69041       17.689752      5535.3729    
       124   0             -2181.225       1131.6038      1184.6676      1108.0591      1102.0848     -9.0103143      14.537951     -66.46664       17.688346      17.69041       17.689752      5535.3729    
       125   0             -2181.225       1131.5975      1184.6617      1108.0546      1102.0762     -9.0110475      14.536466     -66.466536      17.688346      17.69041       17.689752      5535.3729    
       126   0             -2181.225       1131.5947      1184.6592      1108.0534      1102.0715     -9.0114933      14.536979     -66.468108      17.688346      17.69041       17.689752      5535.3729    
       127   0             -2181.225       1131.6017      1184.6676      1108.0606      1102.077      -9.0099742      14.537618     -66.468478      17.688346      17.69041       17.689752      5535.3729    
       128   0             -2181.225       1131.6017      1184.6686      1108.0601      1102.0763     -9.0104718      14.537463     -66.46876       17.688346      17.69041       17.689752      5535.3729    
       129   0             -2181.225       1131.6018      1184.6692      1108.06        1102.0762     -9.0106808      14.536993     -66.468005      17.688346      17.69041       17.689752      5535.3729    
       130   0             -2181.225       1131.6009      1184.6686      1108.0589      1102.0753     -9.0103182      14.536858     -66.467873      17.688346      17.69041       17.689752      5535.3729    
       131   0             -2181.225       1131.6015      1184.6696      1108.0594      1102.0756     -9.0105304      14.536959     -66.468068      17.688346      17.69041       17.689752      5535.3729    
       132   0             -2181.225       1131.6019      1184.6699      1108.06        1102.0758     -9.010437       14.537219     -66.468042      17.688346      17.69041       17.689752      5535.3729    
       133   0             -2181.225       1131.6019      1184.6697      1108.0603      1102.0756     -9.0104396      14.53724      -66.468111      17.688346      17.69041       17.689752      5535.3729    
       134   0             -2181.225       1131.6017      1184.6694      1108.0602      1102.0754     -9.0104871      14.537119     -66.468203      17.688346      17.69041       17.689752      5535.3729    
       135   0             -2181.225       1131.6016      1184.6693      1108.0601      1102.0753     -9.010422       14.537126     -66.468183      17.688346      17.69041       17.689752      5535.3729    
       136   0             -2181.225       1131.6017      1184.6695      1108.0603      1102.0755     -9.0104383      14.537206     -66.468175      17.688346      17.69041       17.689752      5535.3729    
       137   0             -2181.225       1131.6017      1184.6695      1108.0602      1102.0755     -9.0104634      14.537221     -66.46815       17.688346      17.69041       17.689752      5535.3729    
       138   0             -2181.225       1131.6017      1184.6694      1108.0602      1102.0755     -9.0104392      14.537199     -66.46814       17.688346      17.69041       17.689752      5535.3729    
       139   0             -2181.225       1131.6017      1184.6694      1108.0602      1102.0755     -9.0104359      14.537179     -66.468146      17.688346      17.69041       17.689752      5535.3729    
       140   0             -2181.225       1131.6017      1184.6694      1108.0602      1102.0755     -9.0104391      14.537174     -66.468139      17.688346      17.69041       17.689752      5535.3729    
       141   0             -2181.225       1131.6017      1184.6695      1108.0602      1102.0755     -9.0104411      14.537178     -66.468135      17.688346      17.69041       17.689752      5535.3729    
       142   0             -2181.225       1131.6017      1184.6695      1108.0602      1102.0755     -9.0104402      14.537178     -66.468133      17.688346      17.69041       17.689752      5535.3729    
       143   0             -2181.225       1131.6017      1184.6695      1108.0602      1102.0755     -9.0104399      14.537175     -66.468137      17.688346      17.69041       17.689752      5535.3729    
       144   0             -2181.225       1131.6017      1184.6695      1108.0602      1102.0755     -9.010441       14.537177     -66.468137      17.688346      17.69041       17.689752      5535.3729    
       145   0             -2181.225       1131.6017      1184.6695      1108.0602      1102.0755     -9.01044        14.537179     -66.468137      17.688346      17.69041       17.689752      5535.3729    
       146   0             -2181.225       1131.6017      1184.6695      1108.0602      1102.0755     -9.010439       14.537178     -66.468138      17.688346      17.69041       17.689752      5535.3729    
       147   0             -2181.225       1131.6017      1184.6695      1108.0602      1102.0755     -9.010439       14.537178     -66.468138      17.688346      17.69041       17.689752      5535.3729    
       148   0             -2181.225       1131.6017      1184.6695      1108.0602      1102.0755     -9.0104389      14.537178     -66.468139      17.688346      17.69041       17.689752      5535.3729    
       149   0             -2181.225       1131.6017      1184.6695      1108.0602      1102.0755     -9.0104392      14.537179     -66.468139      17.688346      17.69041       17.689752      5535.3729    
       150   0             -2181.225       1131.6017      1184.6695      1108.0602      1102.0755     -9.0104389      14.537179     -66.468139      17.688346      17.69041       17.689752      5535.3729    
       151   0             -2181.225       1131.6017      1184.6695      1108.0602      1102.0755     -9.0104388      14.537179     -66.468139      17.688346      17.69041       17.689752      5535.3729    
       152   0             -2181.225       1131.6017      1184.6695      1108.0602      1102.0755     -9.0104388      14.537179     -66.468139      17.688346      17.69041       17.689752      5535.3729    
       153   0             -2181.225       1131.6017      1184.6695      1108.0602      1102.0755     -9.0104388      14.537179     -66.468139      17.688346      17.69041       17.689752      5535.3729    
       154   0             -2181.225       1131.6017      1184.6695      1108.0602      1102.0755     -9.0104389      14.537179     -66.468139      17.688346      17.69041       17.689752      5535.3729    
       155   0             -2181.225       1131.6017      1184.6695      1108.0602      1102.0755     -9.0104388      14.537179     -66.468139      17.688346      17.69041       17.689752      5535.3729    
       156   0             -2181.225       1131.6017      1184.6695      1108.0602      1102.0755     -9.0104389      14.537179     -66.468139      17.688346      17.69041       17.689752      5535.3729    
       157   0             -2181.225       1131.6017      1184.6695      1108.0602      1102.0755     -9.0104389      14.537179     -66.468138      17.688346      17.69041       17.689752      5535.3729    
       158   0             -2181.225       1131.6017      1184.6695      1108.0602      1102.0755     -9.0104389      14.537179     -66.468138      17.688346      17.69041       17.689752      5535.3729    
       159   0             -2181.225       1131.6017      1184.6695      1108.0602      1102.0755     -9.0104389      14.537179     -66.468138      17.688346      17.69041       17.689752      5535.3729    
       160   0             -2181.225       1131.6017      1184.6695      1108.0602      1102.0755     -9.0104389      14.537179     -66.468138      17.688346      17.69041       17.689752      5535.3729    
       161   0             -2181.225       1131.6017      1184.6695      1108.0602      1102.0755     -9.0104389      14.537179     -66.468138      17.688346      17.69041       17.689752      5535.3729    
Loop time of 0.142597 on 1 procs for 61 steps with 500 atoms

98.6% CPU use with 1 MPI tasks x 1 OpenMP threads

Minimization stats:
  Stopping criterion = force tolerance
  Energy initial, next-to-last, final = 
     -2180.99178946922  -2181.22495768883  -2181.22495768883
  Force two-norm initial, final = 1.9947326 7.3711143e-11
  Force max component initial, final = 0.20599506 1.005464e-11
  Final line search alpha, max atom move = 1 1.005464e-11
  Iterations, force evaluations = 61 120

MPI task timing breakdown:
Section |  min time  |  avg time  |  max time  |%varavg| %total
---------------------------------------------------------------
Pair    | 0.13996    | 0.13996    | 0.13996    |   0.0 | 98.15
Neigh   | 0          | 0          | 0          |   0.0 |  0.00
Comm    | 0.000687   | 0.000687   | 0.000687   |   0.0 |  0.48
Output  | 0.000966   | 0.000966   | 0.000966   |   0.0 |  0.68
Modify  | 0          | 0          | 0          |   0.0 |  0.00
Other   |            | 0.000986   |            |       |  0.69

Nlocal:            500 ave         500 max         500 min
Histogram: 1 0 0 0 0 0 0 0 0 0
Nghost:           1956 ave        1956 max        1956 min
Histogram: 1 0 0 0 0 0 0 0 0 0
Neighs:          33500 ave       33500 max       33500 min
Histogram: 1 0 0 0 0 0 0 0 0 0

Total # of neighbors = 33500
Ave neighs/atom = 67
Neighbor list builds = 0
Dangerous builds = 0
OMP_NUM_THREADS environment is not set. Defaulting to 1 thread. (src/comm.cpp:98)
  using 1 OpenMP thread(s) per MPI task
Loaded 1 plugins from F:\Lammps\LAMMPS 64-bit 2Aug2023\plugins

The 'box' command has been removed and will be ignored

Reading restart file ...
  restart file = 2 Aug 2023, LAMMPS = 2 Aug 2023
  restoring atom style atomic from restart
  triclinic box = (0.050835784 0.04979481 0.050123971) to (17.739164 17.740205 17.739876) with tilt (0 0 0)
  1 by 1 by 1 MPI processor grid
  pair style eam/alloy stores no restart info
  500 atoms
  read_restart CPU = 0.000 seconds
Changing box ...
  triclinic box = (0.050835784 0.04979481 0.050123971) to (17.739164 17.740187 17.739876) with tilt (0 0 0)
  triclinic box = (0.050835784 0.04979481 0.050123971) to (17.739164 17.740187 17.739876) with tilt (0 0 0)
Neighbor list info ...
  update: every = 1 steps, delay = 0 steps, check = yes
  max neighbors/atom: 2000, page size: 100000
  master list distance cutoff = 6.80375
  ghost atom cutoff = 6.80375
  1 neighbor lists, perpetual/occasional/extra = 1 0 0
  (1) pair eam/alloy, perpetual
      attributes: half, newton on
      pair build: half/nsq/newton
      stencil: none
      bin: none
Setting up cg style minimization ...
  Unit style    : metal
  Current step  : 100
Per MPI rank memory allocation (min/avg/max) = 4.485 | 4.485 | 4.485 Mbytes
   Step          Temp          PotEng         Press           Pxx            Pyy            Pzz            Pxy            Pxz            Pyz             Lx             Ly             Lz           Volume    
       100   0             -2180.9918     -125.77241     -129.07862     -122.65014     -125.58847     -2.8873925     -44.888727     -14.794334      17.688328      17.690393      17.689752      5535.3618    
       101   0             -2181.134       578.51147      581.90534      569.97825      583.65082     -2.0563357     -27.017349     -42.78502       17.688328      17.690393      17.689752      5535.3618    
       102   0             -2181.2008      1170.2525      1197.9928      1139.0836      1173.681      -5.0219131     -2.2438652     -63.751096      17.688328      17.690393      17.689752      5535.3618    
       103   0             -2181.217       982.99348      1035.8363      939.75994      973.38417     -10.535478      7.2340294     -58.005753      17.688328      17.690393      17.689752      5535.3618    
       104   0             -2181.2227      1163.0102      1226.2286      1126.606       1136.1961     -10.238419      13.908156     -61.117859      17.688328      17.690393      17.689752      5535.3618    
       105   0             -2181.2241      1155.0376      1211.4896      1128.8309      1124.7922     -9.1188622      14.691701     -63.674896      17.688328      17.690393      17.689752      5535.3618    
       106   0             -2181.2247      1134.6434      1187.9246      1113.6201      1102.3855     -7.9353451      12.271868     -67.005677      17.688328      17.690393      17.689752      5535.3618    
       107   0             -2181.2248      1129.0286      1182.236       1107.7613      1097.0887     -8.7114373      13.611455     -66.151429      17.688328      17.690393      17.689752      5535.3618    
       108   0             -2181.2249      1129.9837      1183.9565      1106.9457      1099.0489     -8.5430943      13.86046      -65.68464       17.688328      17.690393      17.689752      5535.3618    
       109   0             -2181.2249      1139.2617      1193.3965      1115.657       1108.7316     -8.8719298      13.905592     -66.520979      17.688328      17.690393      17.689752      5535.3618    
       110   0             -2181.2249      1136.9143      1190.8735      1113.2276      1106.6417     -9.1568115      14.380377     -66.651527      17.688328      17.690393      17.689752      5535.3618    
       111   0             -2181.2249      1133.7996      1187.5673      1110.3475      1103.4841     -9.0351668      14.626704     -66.2295        17.688328      17.690393      17.689752      5535.3618    
       112   0             -2181.2249      1133.8858      1187.4762      1110.5538      1103.6274     -8.8695655      14.310891     -66.24438       17.688328      17.690393      17.689752      5535.3618    
       113   0             -2181.2249      1135.816       1189.3113      1112.6108      1105.5259     -8.7669529      14.742467     -66.300869      17.688328      17.690393      17.689752      5535.3618    
       114   0             -2181.2249      1136.1324      1189.6184      1112.9078      1105.8711     -9.0186185      14.708834     -66.31325       17.688328      17.690393      17.689752      5535.3618    
       115   0             -2181.2249      1135.2846      1188.7556      1112.0406      1105.0575     -9.0741269      14.661656     -66.410427      17.688328      17.690393      17.689752      5535.3618    
       116   0             -2181.2249      1135.1037      1188.5525      1111.8048      1104.9537     -9.020052       14.62108      -66.466521      17.688328      17.690393      17.689752      5535.3618    
       117   0             -2181.2249      1135.1631      1188.5862      1111.8615      1105.0416     -9.0305103      14.551976     -66.464813      17.688328      17.690393      17.689752      5535.3618    
       118   0             -2181.2249      1135.3423      1188.7353      1112.0733      1105.2185     -8.9984555      14.516127     -66.475295      17.688328      17.690393      17.689752      5535.3618    
       119   0             -2181.2249      1135.3453      1188.73        1112.0908      1105.2152     -9.0107642      14.516884     -66.484137      17.688328      17.690393      17.689752      5535.3618    
       120   0             -2181.2249      1135.2974      1188.6747      1112.0554      1105.1621     -9.0210827      14.543349     -66.486371      17.688328      17.690393      17.689752      5535.3618    
       121   0             -2181.2249      1135.283       1188.6539      1112.0401      1105.1551     -9.0168571      14.550795     -66.490391      17.688328      17.690393      17.689752      5535.3618    
       122   0             -2181.2249      1135.3151      1188.6802      1112.0701      1105.1949     -9.0090516      14.542104     -66.48156       17.688328      17.690393      17.689752      5535.3618    
       123   0             -2181.2249      1135.3184      1188.6834      1112.075       1105.1969     -9.0126867      14.536687     -66.476775      17.688328      17.690393      17.689752      5535.3618    
       124   0             -2181.2249      1135.3049      1188.6711      1112.0641      1105.1794     -9.010674       14.536169     -66.467463      17.688328      17.690393      17.689752      5535.3618    
       125   0             -2181.2249      1135.2986      1188.6652      1112.0596      1105.1708     -9.0114081      14.534684     -66.467358      17.688328      17.690393      17.689752      5535.3618    
       126   0             -2181.2249      1135.2958      1188.6627      1112.0584      1105.1662     -9.0118525      14.535194     -66.46893       17.688328      17.690393      17.689752      5535.3618    
       127   0             -2181.2249      1135.3028      1188.6711      1112.0656      1105.1717     -9.0103334      14.535835     -66.4693        17.688328      17.690393      17.689752      5535.3618    
       128   0             -2181.2249      1135.3027      1188.6721      1112.0651      1105.171      -9.0108315      14.53568      -66.469582      17.688328      17.690393      17.689752      5535.3618    
       129   0             -2181.2249      1135.3029      1188.6727      1112.065       1105.1709     -9.0110405      14.53521      -66.468827      17.688328      17.690393      17.689752      5535.3618    
       130   0             -2181.2249      1135.302       1188.6722      1112.0639      1105.1699     -9.0106778      14.535074     -66.468695      17.688328      17.690393      17.689752      5535.3618    
       131   0             -2181.2249      1135.3026      1188.6731      1112.0644      1105.1703     -9.01089        14.535176     -66.46889       17.688328      17.690393      17.689752      5535.3618    
       132   0             -2181.2249      1135.303       1188.6734      1112.065       1105.1705     -9.0107966      14.535436     -66.468864      17.688328      17.690393      17.689752      5535.3618    
       133   0             -2181.2249      1135.3029      1188.6732      1112.0653      1105.1702     -9.0107992      14.535457     -66.468933      17.688328      17.690393      17.689752      5535.3618    
       134   0             -2181.2249      1135.3027      1188.6729      1112.0652      1105.1701     -9.0108467      14.535336     -66.469025      17.688328      17.690393      17.689752      5535.3618    
       135   0             -2181.2249      1135.3026      1188.6728      1112.0651      1105.17       -9.0107816      14.535343     -66.469005      17.688328      17.690393      17.689752      5535.3618    
       136   0             -2181.2249      1135.3028      1188.673       1112.0653      1105.1702     -9.0107979      14.535423     -66.468997      17.688328      17.690393      17.689752      5535.3618    
       137   0             -2181.2249      1135.3028      1188.673       1112.0652      1105.1701     -9.010823       14.535438     -66.468972      17.688328      17.690393      17.689752      5535.3618    
       138   0             -2181.2249      1135.3028      1188.6729      1112.0652      1105.1701     -9.0107988      14.535416     -66.468962      17.688328      17.690393      17.689752      5535.3618    
       139   0             -2181.2249      1135.3028      1188.6729      1112.0652      1105.1701     -9.0107955      14.535396     -66.468968      17.688328      17.690393      17.689752      5535.3618    
       140   0             -2181.2249      1135.3028      1188.673       1112.0652      1105.1701     -9.0107987      14.535391     -66.468961      17.688328      17.690393      17.689752      5535.3618    
       141   0             -2181.2249      1135.3028      1188.673       1112.0652      1105.1701     -9.0108007      14.535395     -66.468958      17.688328      17.690393      17.689752      5535.3618    
       142   0             -2181.2249      1135.3028      1188.673       1112.0652      1105.1701     -9.0107998      14.535395     -66.468956      17.688328      17.690393      17.689752      5535.3618    
       143   0             -2181.2249      1135.3028      1188.673       1112.0652      1105.1701     -9.0107995      14.535392     -66.468959      17.688328      17.690393      17.689752      5535.3618    
       144   0             -2181.2249      1135.3028      1188.673       1112.0652      1105.1701     -9.0108006      14.535394     -66.46896       17.688328      17.690393      17.689752      5535.3618    
       145   0             -2181.2249      1135.3028      1188.673       1112.0652      1105.1701     -9.0107996      14.535396     -66.468959      17.688328      17.690393      17.689752      5535.3618    
       146   0             -2181.2249      1135.3028      1188.673       1112.0652      1105.1701     -9.0107986      14.535395     -66.46896       17.688328      17.690393      17.689752      5535.3618    
       147   0             -2181.2249      1135.3028      1188.673       1112.0652      1105.1701     -9.0107986      14.535395     -66.46896       17.688328      17.690393      17.689752      5535.3618    
       148   0             -2181.2249      1135.3028      1188.673       1112.0652      1105.1701     -9.0107985      14.535396     -66.468961      17.688328      17.690393      17.689752      5535.3618    
       149   0             -2181.2249      1135.3028      1188.673       1112.0652      1105.1701     -9.0107988      14.535396     -66.468961      17.688328      17.690393      17.689752      5535.3618    
       150   0             -2181.2249      1135.3028      1188.673       1112.0652      1105.1701     -9.0107985      14.535396     -66.468961      17.688328      17.690393      17.689752      5535.3618    
       151   0             -2181.2249      1135.3028      1188.673       1112.0652      1105.1701     -9.0107983      14.535396     -66.468961      17.688328      17.690393      17.689752      5535.3618    
       152   0             -2181.2249      1135.3028      1188.673       1112.0652      1105.1701     -9.0107984      14.535396     -66.468961      17.688328      17.690393      17.689752      5535.3618    
       153   0             -2181.2249      1135.3028      1188.673       1112.0652      1105.1701     -9.0107984      14.535396     -66.468961      17.688328      17.690393      17.689752      5535.3618    
       154   0             -2181.2249      1135.3028      1188.673       1112.0652      1105.1701     -9.0107984      14.535396     -66.468961      17.688328      17.690393      17.689752      5535.3618    
       155   0             -2181.2249      1135.3028      1188.673       1112.0652      1105.1701     -9.0107984      14.535396     -66.468961      17.688328      17.690393      17.689752      5535.3618    
       156   0             -2181.2249      1135.3028      1188.673       1112.0652      1105.1701     -9.0107985      14.535396     -66.468961      17.688328      17.690393      17.689752      5535.3618    
       157   0             -2181.2249      1135.3028      1188.673       1112.0652      1105.1701     -9.0107984      14.535396     -66.468961      17.688328      17.690393      17.689752      5535.3618    
       158   0             -2181.2249      1135.3028      1188.673       1112.0652      1105.1701     -9.0107984      14.535396     -66.468961      17.688328      17.690393      17.689752      5535.3618    
       159   0             -2181.2249      1135.3028      1188.673       1112.0652      1105.1701     -9.0107984      14.535396     -66.468961      17.688328      17.690393      17.689752      5535.3618    
       160   0             -2181.2249      1135.3028      1188.673       1112.0652      1105.1701     -9.0107985      14.535396     -66.468961      17.688328      17.690393      17.689752      5535.3618    
       161   0             -2181.2249      1135.3028      1188.673       1112.0652      1105.1701     -9.0107984      14.535396     -66.468961      17.688328      17.690393      17.689752      5535.3618    
Loop time of 0.141152 on 1 procs for 61 steps with 500 atoms

99.6% CPU use with 1 MPI tasks x 1 OpenMP threads

Minimization stats:
  Stopping criterion = force tolerance
  Energy initial, next-to-last, final = 
     -2180.99179035297  -2181.22494975383  -2181.22494975382
  Force two-norm initial, final = 1.9946862 7.3732036e-11
  Force max component initial, final = 0.20598644 1.0070149e-11
  Final line search alpha, max atom move = 1 1.0070149e-11
  Iterations, force evaluations = 61 120

MPI task timing breakdown:
Section |  min time  |  avg time  |  max time  |%varavg| %total
---------------------------------------------------------------
Pair    | 0.13843    | 0.13843    | 0.13843    |   0.0 | 98.07
Neigh   | 0          | 0          | 0          |   0.0 |  0.00
Comm    | 0.000704   | 0.000704   | 0.000704   |   0.0 |  0.50
Output  | 0.001038   | 0.001038   | 0.001038   |   0.0 |  0.74
Modify  | 0          | 0          | 0          |   0.0 |  0.00
Other   |            | 0.000976   |            |       |  0.69

Nlocal:            500 ave         500 max         500 min
Histogram: 1 0 0 0 0 0 0 0 0 0
Nghost:           1956 ave        1956 max        1956 min
Histogram: 1 0 0 0 0 0 0 0 0 0
Neighs:          33500 ave       33500 max       33500 min
Histogram: 1 0 0 0 0 0 0 0 0 0

Total # of neighbors = 33500
Ave neighs/atom = 67
Neighbor list builds = 0
Dangerous builds = 0
OMP_NUM_THREADS environment is not set. Defaulting to 1 thread. (src/comm.cpp:98)
  using 1 OpenMP thread(s) per MPI task
Loaded 1 plugins from F:\Lammps\LAMMPS 64-bit 2Aug2023\plugins

The 'box' command has been removed and will be ignored

Reading restart file ...
  restart file = 2 Aug 2023, LAMMPS = 2 Aug 2023
  restoring atom style atomic from restart
  triclinic box = (0.050835784 0.04979481 0.050123971) to (17.739164 17.740205 17.739876) with tilt (0 0 0)
  1 by 1 by 1 MPI processor grid
  pair style eam/alloy stores no restart info
  500 atoms
  read_restart CPU = 0.000 seconds
Changing box ...
  triclinic box = (0.050835784 0.04979481 0.050123971) to (17.739164 17.740223 17.739876) with tilt (0 0 0)
  triclinic box = (0.050835784 0.04979481 0.050123971) to (17.739164 17.740223 17.739876) with tilt (0 0 0)
Neighbor list info ...
  update: every = 1 steps, delay = 0 steps, check = yes
  max neighbors/atom: 2000, page size: 100000
  master list distance cutoff = 6.80375
  ghost atom cutoff = 6.80375
  1 neighbor lists, perpetual/occasional/extra = 1 0 0
  (1) pair eam/alloy, perpetual
      attributes: half, newton on
      pair build: half/nsq/newton
      stencil: none
      bin: none
Setting up cg style minimization ...
  Unit style    : metal
  Current step  : 100
Per MPI rank memory allocation (min/avg/max) = 4.485 | 4.485 | 4.485 Mbytes
   Step          Temp          PotEng         Press           Pxx            Pyy            Pzz            Pxy            Pxz            Pyz             Lx             Ly             Lz           Volume    
       100   0             -2180.9918     -129.52831     -132.21861     -127.63425     -128.73207     -2.8856149     -44.886395     -14.791743      17.688328      17.690428      17.689752      5535.3729    
       101   0             -2181.134       574.76808      578.77438      565.01231      580.51754     -2.0544891     -27.015762     -42.782704      17.688328      17.690428      17.689752      5535.3729    
       102   0             -2181.2008      1166.5224      1194.8736      1134.1319      1170.5618     -5.0199765     -2.2437124     -63.751182      17.688328      17.690428      17.689752      5535.3729    
       103   0             -2181.217       979.30226      1032.7589      934.84542      970.30242     -10.533946      7.2367541     -58.005768      17.688328      17.690428      17.689752      5535.3729    
       104   0             -2181.2227      1159.3269      1223.1594      1121.6975      1133.1238     -10.23703       13.909467     -61.118608      17.688328      17.690428      17.689752      5535.3729    
       105   0             -2181.2241      1151.3293      1208.3941      1123.9002      1121.6936     -9.1168579      14.693657     -63.675073      17.688328      17.690428      17.689752      5535.3729    
       106   0             -2181.2247      1130.9386      1184.833       1108.693       1099.2897     -7.9336381      12.273202     -67.00544       17.688328      17.690428      17.689752      5535.3729    
       107   0             -2181.2248      1125.3239      1179.1447      1102.8337      1093.9934     -8.7097844      13.613224     -66.151246      17.688328      17.690428      17.689752      5535.3729    
       108   0             -2181.2249      1126.2862      1180.8723      1102.0256      1095.9607     -8.5413421      13.861971     -65.684946      17.688328      17.690428      17.689752      5535.3729    
       109   0             -2181.2249      1135.5623      1190.31        1110.7356      1105.6412     -8.870009       13.907013     -66.521244      17.688328      17.690428      17.689752      5535.3729    
       110   0             -2181.2249      1133.2124      1187.7845      1108.304       1103.5486     -9.1549685      14.381848     -66.651748      17.688328      17.690428      17.689752      5535.3729    
       111   0             -2181.2249      1130.0981      1184.4787      1105.4242      1100.3914     -9.0333275      14.628156     -66.229608      17.688328      17.690428      17.689752      5535.3729    
       112   0             -2181.2249      1130.1847      1184.388       1105.6311      1100.535      -8.8677403      14.312412     -66.244445      17.688328      17.690428      17.689752      5535.3729    
       113   0             -2181.225       1132.1165      1186.2245      1107.69        1102.435      -8.765086       14.743971     -66.301064      17.688328      17.690428      17.689752      5535.3729    
       114   0             -2181.225       1132.4316      1186.5303      1107.9857      1102.7789     -9.0168113      14.710306     -66.31339       17.688328      17.690428      17.689752      5535.3729    
       115   0             -2181.225       1131.5835      1185.6673      1107.1182      1101.965      -9.0722564      14.663149     -66.410513      17.688328      17.690428      17.689752      5535.3729    
       116   0             -2181.225       1131.4028      1185.4644      1106.8826      1101.8614     -9.0181842      14.622551     -66.466629      17.688328      17.690428      17.689752      5535.3729    
       117   0             -2181.225       1131.4624      1185.4983      1106.9395      1101.9495     -9.0286316      14.553463     -66.464924      17.688328      17.690428      17.689752      5535.3729    
       118   0             -2181.225       1131.6416      1185.6473      1107.1512      1102.1263     -8.9965966      14.517607     -66.475428      17.688328      17.690428      17.689752      5535.3729    
       119   0             -2181.225       1131.6445      1185.6419      1107.1686      1102.1229     -9.0089061      14.518367     -66.484255      17.688328      17.690428      17.689752      5535.3729    
       120   0             -2181.225       1131.5966      1185.5867      1107.1333      1102.0698     -9.0192173      14.544821     -66.486492      17.688328      17.690428      17.689752      5535.3729    
       121   0             -2181.225       1131.5822      1185.5658      1107.118       1102.0629     -9.0149936      14.552277     -66.490516      17.688328      17.690428      17.689752      5535.3729    
       122   0             -2181.225       1131.6143      1185.5922      1107.148       1102.1027     -9.0071881      14.543588     -66.481685      17.688328      17.690428      17.689752      5535.3729    
       123   0             -2181.225       1131.6176      1185.5953      1107.1529      1102.1047     -9.0108238      14.538167     -66.476901      17.688328      17.690428      17.689752      5535.3729    
       124   0             -2181.225       1131.6041      1185.5831      1107.142       1102.0872     -9.0088104      14.537648     -66.467587      17.688328      17.690428      17.689752      5535.3729    
       125   0             -2181.225       1131.5978      1185.5772      1107.1375      1102.0786     -9.0095437      14.536163     -66.467482      17.688328      17.690428      17.689752      5535.3729    
       126   0             -2181.225       1131.595       1185.5747      1107.1363      1102.0739     -9.0099891      14.536674     -66.469054      17.688328      17.690428      17.689752      5535.3729    
       127   0             -2181.225       1131.602       1185.583       1107.1435      1102.0795     -9.00847        14.537315     -66.469424      17.688328      17.690428      17.689752      5535.3729    
       128   0             -2181.225       1131.6019      1185.5841      1107.143       1102.0787     -9.0089678      14.53716      -66.469706      17.688328      17.690428      17.689752      5535.3729    
       129   0             -2181.225       1131.6021      1185.5847      1107.1429      1102.0787     -9.0091767      14.53669      -66.468951      17.688328      17.690428      17.689752      5535.3729    
       130   0             -2181.225       1131.6012      1185.5841      1107.1418      1102.0777     -9.0088141      14.536554     -66.468819      17.688328      17.690428      17.689752      5535.3729    
       131   0             -2181.225       1131.6018      1185.585       1107.1423      1102.0781     -9.0090263      14.536656     -66.469014      17.688328      17.690428      17.689752      5535.3729    
       132   0             -2181.225       1131.6022      1185.5854      1107.1429      1102.0783     -9.0089329      14.536916     -66.468988      17.688328      17.690428      17.689752      5535.3729    
       133   0             -2181.225       1131.6021      1185.5851      1107.1432      1102.078      -9.0089355      14.536937     -66.469057      17.688328      17.690428      17.689752      5535.3729    
[...]
       155   0             -2181.225       1133.4522      1187.1295      1109.6032      1103.6239     -7.8350772      14.536527     -66.468906      17.688328      17.69041       17.689752      5535.3673    
       156   0             -2181.225       1133.4522      1187.1295      1109.6032      1103.6239     -7.8350772      14.536527     -66.468906      17.688328      17.69041       17.689752      5535.3673    
       157   0             -2181.225       1133.4522      1187.1295      1109.6032      1103.6239     -7.8350772      14.536527     -66.468906      17.688328      17.69041       17.689752      5535.3673    
       158   0             -2181.225       1133.4522      1187.1295      1109.6032      1103.6239     -7.8350772      14.536527     -66.468906      17.688328      17.69041       17.689752      5535.3673    
       159   0             -2181.225       1133.4522      1187.1295      1109.6032      1103.6239     -7.8350772      14.536527     -66.468906      17.688328      17.69041       17.689752      5535.3673    
       160   0             -2181.225       1133.4522      1187.1295      1109.6032      1103.6239     -7.8350772      14.536527     -66.468906      17.688328      17.69041       17.689752      5535.3673    
       161   0             -2181.225       1133.4522      1187.1295      1109.6032      1103.6239     -7.8350772      14.536527     -66.468906      17.688328      17.69041       17.689752      5535.3673    
Loop time of 0.14359 on 1 procs for 61 steps with 500 atoms

97.9% CPU use with 1 MPI tasks x 1 OpenMP threads

Minimization stats:
  Stopping criterion = force tolerance
  Energy initial, next-to-last, final = 
     -2180.99178993282  -2181.22495362075  -2181.22495362077
  Force two-norm initial, final = 1.9947091 7.3716892e-11
  Force max component initial, final = 0.20599012 1.00651e-11
  Final line search alpha, max atom move = 1 1.00651e-11
  Iterations, force evaluations = 61 120

MPI task timing breakdown:
Section |  min time  |  avg time  |  max time  |%varavg| %total
---------------------------------------------------------------
Pair    | 0.1409     | 0.1409     | 0.1409     |   0.0 | 98.12
Neigh   | 0          | 0          | 0          |   0.0 |  0.00
Comm    | 0.000747   | 0.000747   | 0.000747   |   0.0 |  0.52
Output  | 0.000991   | 0.000991   | 0.000991   |   0.0 |  0.69
Modify  | 0          | 0          | 0          |   0.0 |  0.00
Other   |            | 0.000957   |            |       |  0.67

Nlocal:            500 ave         500 max         500 min
Histogram: 1 0 0 0 0 0 0 0 0 0
Nghost:           1956 ave        1956 max        1956 min
Histogram: 1 0 0 0 0 0 0 0 0 0
Neighs:          33500 ave       33500 max       33500 min
Histogram: 1 0 0 0 0 0 0 0 0 0

Total # of neighbors = 33500
Ave neighs/atom = 67
Neighbor list builds = 0
Dangerous builds = 0
OMP_NUM_THREADS environment is not set. Defaulting to 1 thread. (src/comm.cpp:98)
  using 1 OpenMP thread(s) per MPI task
Loaded 1 plugins from F:\Lammps\LAMMPS 64-bit 2Aug2023\plugins

The 'box' command has been removed and will be ignored

Reading restart file ...
  restart file = 2 Aug 2023, LAMMPS = 2 Aug 2023
  restoring atom style atomic from restart
  triclinic box = (0.050835784 0.04979481 0.050123971) to (17.739164 17.740205 17.739876) with tilt (0 0 0)
  1 by 1 by 1 MPI processor grid
  pair style eam/alloy stores no restart info
  500 atoms
  read_restart CPU = 0.000 seconds
Changing box ...
  triclinic box = (0.050835784 0.04979481 0.050123971) to (17.739164 17.740205 17.739876) with tilt (1.769041e-05 0 0)
Neighbor list info ...
  update: every = 1 steps, delay = 0 steps, check = yes
  max neighbors/atom: 2000, page size: 100000
  master list distance cutoff = 6.80375
  ghost atom cutoff = 6.80375
  1 neighbor lists, perpetual/occasional/extra = 1 0 0
  (1) pair eam/alloy, perpetual
      attributes: half, newton on
      pair build: half/nsq/newton
      stencil: none
      bin: none
Setting up cg style minimization ...
  Unit style    : metal
  Current step  : 100
Per MPI rank memory allocation (min/avg/max) = 4.485 | 4.485 | 4.485 Mbytes
   Step          Temp          PotEng         Press           Pxx            Pyy            Pzz            Pxy            Pxz            Pyz             Lx             Ly             Lz           Volume    
       100   0             -2180.9918     -127.64961     -130.64848     -125.1413      -127.15906     -4.0709895     -44.888222     -14.793154      17.688328      17.69041       17.689752      5535.3673    
       101   0             -2181.134       576.64171      580.34124      567.49748      582.0864      -3.2335124     -27.01721      -42.784111      17.688328      17.69041       17.689752      5535.3673    
       102   0             -2181.2008      1168.3895      1196.4346      1136.6102      1172.1235     -6.1971809     -2.2443822     -63.751416      17.688328      17.69041       17.689752      5535.3673    
       103   0             -2181.217       981.14742      1034.2964      937.30303      971.84281     -11.708188      7.2348123     -58.005949      17.688328      17.69041       17.689752      5535.3673    
       104   0             -2181.2227      1161.1678      1224.6926      1124.1519      1134.659      -11.413135      13.908451     -61.118339      17.688328      17.69041       17.689752      5535.3673    
       105   0             -2181.2241      1153.1836      1209.9413      1126.3666      1123.243      -10.292493      14.692288     -63.675154      17.688328      17.69041       17.689752      5535.3673    
       106   0             -2181.2247      1132.7913      1186.3784      1111.1576      1100.838      -9.1094155      12.272114     -67.005714      17.688328      17.69041       17.689752      5535.3673    
       107   0             -2181.2248      1127.1765      1180.6898      1105.2985      1095.5412     -9.8855252      13.611939     -66.151472      17.688328      17.69041       17.689752      5535.3673    
       108   0             -2181.2249      1128.1349      1182.4137      1104.4864      1097.5047     -9.7170427      13.860818     -65.684917      17.688328      17.69041       17.689752      5535.3673    
       109   0             -2181.2249      1137.4121      1191.8526      1113.1972      1107.1865     -10.045835      13.905904     -66.521225      17.688328      17.69041       17.689752      5535.3673    
       110   0             -2181.2249      1135.0635      1189.3284      1110.7668      1105.0952     -10.330695      14.380723     -66.651754      17.688328      17.69041       17.689752      5535.3673    
       111   0             -2181.2249      1131.949       1186.0224      1107.8868      1101.9379     -10.209078      14.627027     -66.229667      17.688328      17.69041       17.689752      5535.3673    
       112   0             -2181.2249      1132.0354      1185.9315      1108.0934      1102.0813     -10.043449      14.311255     -66.244529      17.688328      17.69041       17.689752      5535.3673    
       113   0             -2181.2249      1133.9663      1187.7672      1110.1513      1103.9805     -9.9407982      14.742835     -66.301088      17.688328      17.69041       17.689752      5535.3673    
       114   0             -2181.225       1134.2822      1188.0737      1110.4477      1104.3251     -10.192484      14.709179     -66.313436      17.688328      17.69041       17.689752      5535.3673    
       115   0             -2181.225       1133.4342      1187.2109      1109.5803      1103.5113     -10.247973      14.662012     -66.410589      17.688328      17.69041       17.689752      5535.3673    
       116   0             -2181.225       1133.2534      1187.0079      1109.3446      1103.4076     -10.193903      14.621424     -66.46669       17.688328      17.69041       17.689752      5535.3673    
       117   0             -2181.225       1133.3129      1187.0417      1109.4014      1103.4956     -10.204356      14.552327     -66.464985      17.688328      17.69041       17.689752      5535.3673    
       118   0             -2181.225       1133.4921      1187.1907      1109.6132      1103.6724     -10.172315      14.516475     -66.475477      17.688328      17.69041       17.689752      5535.3673    
       119   0             -2181.225       1133.495       1187.1854      1109.6306      1103.6691     -10.184622      14.517233     -66.484313      17.688328      17.69041       17.689752      5535.3673    
       120   0             -2181.225       1133.4471      1187.1301      1109.5953      1103.616      -10.19494       14.543692     -66.486548      17.688328      17.69041       17.689752      5535.3673    
       121   0             -2181.225       1133.4328      1187.1092      1109.58        1103.6091     -10.190715      14.551144     -66.49057       17.688328      17.69041       17.689752      5535.3673    
       122   0             -2181.225       1133.4648      1187.1356      1109.61        1103.6489     -10.182909      14.542454     -66.481739      17.688328      17.69041       17.689752      5535.3673    
       123   0             -2181.225       1133.4682      1187.1387      1109.6149      1103.6509     -10.186545      14.537035     -66.476955      17.688328      17.69041       17.689752      5535.3673    
       124   0             -2181.225       1133.4546      1187.1265      1109.604       1103.6334     -10.184532      14.536517     -66.467642      17.688328      17.69041       17.689752      5535.3673    
       125   0             -2181.225       1133.4483      1187.1206      1109.5995      1103.6248     -10.185266      14.535032     -66.467537      17.688328      17.69041       17.689752      5535.3673    
       126   0             -2181.225       1133.4455      1187.1181      1109.5983      1103.6201     -10.18571       14.535542     -66.469109      17.688328      17.69041       17.689752      5535.3673    
       127   0             -2181.225       1133.4525      1187.1264      1109.6055      1103.6257     -10.184192      14.536183     -66.469479      17.688328      17.69041       17.689752      5535.3673    
       128   0             -2181.225       1133.4525      1187.1275      1109.605       1103.6249     -10.184689      14.536028     -66.469761      17.688328      17.69041       17.689752      5535.3673    
       129   0             -2181.225       1133.4526      1187.1281      1109.6049      1103.6248     -10.184898      14.535558     -66.469006      17.688328      17.69041       17.689752      5535.3673    
       130   0             -2181.225       1133.4517      1187.1275      1109.6038      1103.6239     -10.184536      14.535422     -66.468874      17.688328      17.69041       17.689752      5535.3673    
       131   0             -2181.225       1133.4523      1187.1285      1109.6043      1103.6242     -10.184748      14.535524     -66.469068      17.688328      17.69041       17.689752      5535.3673    
       132   0             -2181.225       1133.4527      1187.1288      1109.6049      1103.6244     -10.184654      14.535785     -66.469043      17.688328      17.69041       17.689752      5535.3673    
       133   0             -2181.225       1133.4527      1187.1286      1109.6052      1103.6242     -10.184657      14.535805     -66.469112      17.688328      17.69041       17.689752      5535.3673    
       134   0             -2181.225       1133.4525      1187.1283      1109.6051      1103.624      -10.184705      14.535685     -66.469204      17.688328      17.69041       17.689752      5535.3673    
       135   0             -2181.225       1133.4524      1187.1282      1109.605       1103.6239     -10.184639      14.535691     -66.469184      17.688328      17.69041       17.689752      5535.3673    
       136   0             -2181.225       1133.4525      1187.1284      1109.6051      1103.6241     -10.184656      14.535771     -66.469176      17.688328      17.69041       17.689752      5535.3673    
       137   0             -2181.225       1133.4525      1187.1283      1109.6051      1103.6241     -10.184681      14.535787     -66.469151      17.688328      17.69041       17.689752      5535.3673    
       138   0             -2181.225       1133.4525      1187.1283      1109.6051      1103.6241     -10.184657      14.535764     -66.469141      17.688328      17.69041       17.689752      5535.3673    
       139   0             -2181.225       1133.4525      1187.1283      1109.6051      1103.6241     -10.184653      14.535744     -66.469147      17.688328      17.69041       17.689752      5535.3673    
       140   0             -2181.225       1133.4525      1187.1283      1109.6051      1103.6241     -10.184657      14.535739     -66.46914       17.688328      17.69041       17.689752      5535.3673    
       141   0             -2181.225       1133.4525      1187.1283      1109.6051      1103.6241     -10.184659      14.535744     -66.469136      17.688328      17.69041       17.689752      5535.3673    
       142   0             -2181.225       1133.4525      1187.1284      1109.6051      1103.6241     -10.184658      14.535743     -66.469135      17.688328      17.69041       17.689752      5535.3673    
       143   0             -2181.225       1133.4525      1187.1284      1109.6051      1103.6241     -10.184657      14.53574      -66.469138      17.688328      17.69041       17.689752      5535.3673    
       144   0             -2181.225       1133.4525      1187.1284      1109.6051      1103.6241     -10.184658      14.535742     -66.469138      17.688328      17.69041       17.689752      5535.3673    
       145   0             -2181.225       1133.4525      1187.1284      1109.6051      1103.6241     -10.184657      14.535744     -66.469138      17.688328      17.69041       17.689752      5535.3673    
       146   0             -2181.225       1133.4525      1187.1283      1109.6051      1103.6241     -10.184656      14.535743     -66.469139      17.688328      17.69041       17.689752      5535.3673    
       147   0             -2181.225       1133.4525      1187.1283      1109.6051      1103.6241     -10.184656      14.535744     -66.469139      17.688328      17.69041       17.689752      5535.3673    
       148   0             -2181.225       1133.4525      1187.1283      1109.6051      1103.6241     -10.184656      14.535744     -66.46914       17.688328      17.69041       17.689752      5535.3673    
       149   0             -2181.225       1133.4525      1187.1283      1109.6051      1103.6241     -10.184657      14.535744     -66.46914       17.688328      17.69041       17.689752      5535.3673    
       150   0             -2181.225       1133.4525      1187.1283      1109.6051      1103.6241     -10.184656      14.535744     -66.46914       17.688328      17.69041       17.689752      5535.3673    
       151   0             -2181.225       1133.4525      1187.1283      1109.6051      1103.6241     -10.184656      14.535744     -66.46914       17.688328      17.69041       17.689752      5535.3673    
       152   0             -2181.225       1133.4525      1187.1283      1109.6051      1103.6241     -10.184656      14.535744     -66.46914       17.688328      17.69041       17.689752      5535.3673    
       153   0             -2181.225       1133.4525      1187.1283      1109.6051      1103.6241     -10.184656      14.535744     -66.46914       17.688328      17.69041       17.689752      5535.3673    
       154   0             -2181.225       1133.4525      1187.1283      1109.6051      1103.6241     -10.184656      14.535744     -66.46914       17.688328      17.69041       17.689752      5535.3673    
       155   0             -2181.225       1133.4525      1187.1283      1109.6051      1103.6241     -10.184656      14.535744     -66.46914       17.688328      17.69041       17.689752      5535.3673    
       156   0             -2181.225       1133.4525      1187.1283      1109.6051      1103.6241     -10.184656      14.535744     -66.46914       17.688328      17.69041       17.689752      5535.3673    
       157   0             -2181.225       1133.4525      1187.1283      1109.6051      1103.6241     -10.184656      14.535744     -66.46914       17.688328      17.69041       17.689752      5535.3673    
       158   0             -2181.225       1133.4525      1187.1283      1109.6051      1103.6241     -10.184656      14.535744     -66.46914       17.688328      17.69041       17.689752      5535.3673    
       159   0             -2181.225       1133.4525      1187.1283      1109.6051      1103.6241     -10.184656      14.535744     -66.46914       17.688328      17.69041       17.689752      5535.3673    
       160   0             -2181.225       1133.4525      1187.1283      1109.6051      1103.6241     -10.184656      14.535744     -66.46914       17.688328      17.69041       17.689752      5535.3673    
       161   0             -2181.225       1133.4525      1187.1283      1109.6051      1103.6241     -10.184656      14.535744     -66.46914       17.688328      17.69041       17.689752      5535.3673    
Loop time of 0.141926 on 1 procs for 61 steps with 500 atoms

99.1% CPU use with 1 MPI tasks x 1 OpenMP threads

Minimization stats:
  Stopping criterion = force tolerance
  Energy initial, next-to-last, final = 
     -2180.99178991291  -2181.22495355849   -2181.2249535585
  Force two-norm initial, final = 1.9947092 7.369806e-11
  Force max component initial, final = 0.20598944 1.0064866e-11
  Final line search alpha, max atom move = 1 1.0064866e-11
  Iterations, force evaluations = 61 120

MPI task timing breakdown:
Section |  min time  |  avg time  |  max time  |%varavg| %total
---------------------------------------------------------------
Pair    | 0.13923    | 0.13923    | 0.13923    |   0.0 | 98.10
Neigh   | 0          | 0          | 0          |   0.0 |  0.00
Comm    | 0.000711   | 0.000711   | 0.000711   |   0.0 |  0.50
Output  | 0.001026   | 0.001026   | 0.001026   |   0.0 |  0.72
Modify  | 0          | 0          | 0          |   0.0 |  0.00
Other   |            | 0.00096    |            |       |  0.68

Nlocal:            500 ave         500 max         500 min
Histogram: 1 0 0 0 0 0 0 0 0 0
Nghost:           1956 ave        1956 max        1956 min
Histogram: 1 0 0 0 0 0 0 0 0 0
Neighs:          33500 ave       33500 max       33500 min
Histogram: 1 0 0 0 0 0 0 0 0 0

Total # of neighbors = 33500
Ave neighs/atom = 67
Neighbor list builds = 0
Dangerous builds = 0
=========================================
Components of the Elastic Constant Tensor
=========================================
Elastic Constant C11all = 245.949004839509 GPa
Elastic Constant C22all = 246.106246034506 GPa
Elastic Constant C33all = 246.133910755001 GPa
Elastic Constant C12all = 154.398996689255 GPa
Elastic Constant C13all = 154.859621487001 GPa
Elastic Constant C23all = 154.611371704748 GPa
Elastic Constant C44all = 117.48972142878 GPa
Elastic Constant C55all = 117.68881049771 GPa
Elastic Constant C66all = 117.478953405009 GPa
Elastic Constant C14all = -0.0850921020933129 GPa
Elastic Constant C15all = -0.105989274368767 GPa
Elastic Constant C16all = 0.0581132857583668 GPa
Elastic Constant C24all = 0.0128588936338474 GPa
Elastic Constant C25all = -0.0747058068652677 GPa
Elastic Constant C26all = -0.0931870231069069 GPa
Elastic Constant C34all = -0.060899583508899 GPa
Elastic Constant C35all = -0.0759112533585267 GPa
Elastic Constant C36all = -0.00665087435962164 GPa
Elastic Constant C45all = -0.0563200445474195 GPa
Elastic Constant C46all = 0.0109680453648764 GPa
Elastic Constant C56all = 0.0391757836718228 GPa
=========================================
Average properties for a cubic crystal
=========================================
Bulk Modulus = 185.103237932336 GPa
Shear Modulus 1 = 117.5524951105 GPa
Shear Modulus 2 = 45.719861958002 GPa
Poisson Ratio = 0.385896142713354
Total wall time: 0:00:02
