LAMMPS (2 Aug 2023 - Update 3)
OMP_NUM_THREADS environment is not set. Defaulting to 1 thread. (src/comm.cpp:98)
  using 1 OpenMP thread(s) per MPI task
Loaded 1 plugins from F:\Lammps\LAMMPS 64-bit 2Aug2023\plugins
Reading data file ...
  orthogonal box = (0 0 0) to (17.79 17.79 17.79)
  1 by 1 by 1 MPI processor grid
  reading atoms ...
  500 atoms
  read_data CPU = 0.001 seconds
Changing box ...
  triclinic box = (0 0 0) to (17.79 17.79 17.79) with tilt (0 0 0)
Neighbor list info ...
  update: every = 1 steps, delay = 0 steps, check = yes
  max neighbors/atom: 2000, page size: 100000
  master list distance cutoff = 6.80375
  ghost atom cutoff = 6.80375
  1 neighbor lists, perpetual/occasional/extra = 1 0 0
  (1) pair eam/alloy, perpetual
      attributes: half, newton on
      pair build: half/nsq/newton
      stencil: none
      bin: none
Setting up cg style minimization ...
  Unit style    : metal
  Current step  : 0
WARNING: Energy due to 3 extra global DOFs will be included in minimizer energies
 (src/min.cpp:228)
Per MPI rank memory allocation (min/avg/max) = 4.492 | 4.492 | 4.492 Mbytes
   Step          Temp          PotEng         Press           Pxx            Pyy            Pzz            Pxy            Pxz            Pyz             Lx             Ly             Lz           Volume    
         0   0             -2179.7286     -33988.506     -33902.887     -33997.174     -34065.457      10.782815     -111.01757     -79.489883      17.79          17.79          17.79          5630.2521    
         1   0             -2179.764      -33448.714     -33362.804     -33457.127     -33526.21       9.9040274     -111.42997     -79.191791      17.788229      17.788225      17.788221      5628.567     
         2   0             -2179.7989     -32908.509     -32822.317     -32916.667     -32986.544      9.027541      -111.83949     -78.890534      17.786459      17.786449      17.786442      5626.8824    
         3   0             -2179.8332     -32367.893     -32281.427     -32375.794     -32446.457      8.1538406     -112.246       -78.586051      17.784689      17.784674      17.784663      5625.1981    
         4   0             -2179.867      -31826.882     -31740.151     -31834.527     -31905.967      7.2835584     -112.65016     -78.278236      17.782919      17.782899      17.782884      5623.5143    
         5   0             -2179.9002     -31285.557     -31198.573     -31292.942     -31365.155      6.4126787     -113.05169     -77.968864      17.781149      17.781124      17.781105      5621.831     
         6   0             -2179.9327     -30743.972     -30656.748     -30751.093     -30824.074      5.5398712     -113.44931     -77.65928       17.77938       17.779349      17.779326      5620.148     
         7   0             -2179.9648     -30202.124     -30114.675     -30208.976     -30282.719      4.6648943     -113.84251     -77.349349      17.77761       17.777574      17.777547      5618.4655    
         8   0             -2179.9962     -29659.967     -29572.306     -29666.55      -29741.046      3.7889601     -114.23073     -77.036396      17.775841      17.7758        17.775768      5616.7835    
         9   0             -2180.027      -29117.439     -29029.572     -29123.754     -29198.989      2.9169734     -114.61459     -76.718704      17.774072      17.774025      17.773989      5615.1019    
        10   0             -2180.0573     -28574.506     -28486.443     -28580.559     -28656.517      2.0504594     -114.99717     -76.396707      17.772304      17.772251      17.77221       5613.4207    
        11   0             -2180.087      -28031.197     -27942.946     -28036.988     -28113.656      1.1893823     -115.37845     -76.072028      17.770535      17.770476      17.770431      5611.74      
        12   0             -2180.1161     -27487.564     -27399.143     -27493.087     -27570.462      0.33246038    -115.75837     -75.746613      17.768767      17.768702      17.768652      5610.0597    
        13   0             -2180.1447     -26943.639     -26855.065     -26948.885     -27026.966     -0.52273948    -116.13405     -75.419731      17.766999      17.766928      17.766873      5608.3799    
        14   0             -2180.1727     -26399.47      -26310.761     -26404.431     -26483.218     -1.3763786     -116.50348     -75.091989      17.765232      17.765154      17.765094      5606.7006    
        15   0             -2180.2        -25855.013     -25766.184     -25859.691     -25939.166     -2.2275424     -116.86639     -74.762316      17.763464      17.763381      17.763315      5605.0217    
        16   0             -2180.2269     -25310.216     -25221.274     -25314.618     -25394.756     -3.0767941     -117.22328     -74.430926      17.761697      17.761607      17.761536      5603.3433    
        17   0             -2180.2531     -24765.056     -24676.011     -24769.191     -24849.968     -3.9231056     -117.57512     -74.097508      17.75993       17.759834      17.759757      5601.6654    
        18   0             -2180.2787     -24219.525     -24130.383     -24223.395     -24304.795     -4.7669603     -117.92152     -73.760022      17.758164      17.75806       17.757978      5599.988     
        19   0             -2180.3038     -23673.714     -23584.49      -23677.312     -23759.338     -5.6079315     -118.26236     -73.418365      17.756397      17.756287      17.756199      5598.3111    
        20   0             -2180.3283     -23127.644     -23038.355     -23130.962     -23213.613     -6.4462371     -118.5976      -73.072822      17.754632      17.754515      17.75442       5596.6346    
        21   0             -2180.3522     -22581.348     -22492.016     -22584.379     -22667.65      -7.2832369     -118.92924     -72.726014      17.752866      17.752742      17.752641      5594.9587    
        22   0             -2180.3756     -22034.744     -21945.385     -22037.49      -22121.358     -8.1191028     -119.25788     -72.379428      17.751101      17.750969      17.750862      5593.2833    
        23   0             -2180.3983     -21487.865     -21398.492     -21490.331     -21574.772     -8.9545343     -119.58327     -72.032934      17.749336      17.749197      17.749083      5591.6084    
        24   0             -2180.4205     -20940.713     -20851.341     -20942.907     -21027.892     -9.7891505     -119.90481     -71.686309      17.747572      17.747425      17.747304      5589.934     
        25   0             -2180.4421     -20393.336     -20303.974     -20395.258     -20480.775     -10.621869     -120.21985     -71.337144      17.745807      17.745653      17.745525      5588.2601    
        26   0             -2180.4631     -19845.753     -19756.419     -19847.406     -19933.435     -11.452944     -120.52903     -70.986098      17.744044      17.743882      17.743746      5586.5868    
        27   0             -2180.4836     -19297.914     -19208.623     -19299.296     -19385.824     -12.2815       -120.83212     -70.633155      17.742281      17.742111      17.741967      5584.914     
        28   0             -2180.5035     -18749.819     -18660.588     -18750.93      -18837.939     -13.10728      -121.12954     -70.27889       17.740518      17.740339      17.740188      5583.2418    
        29   0             -2180.5228     -18201.487     -18112.333     -18202.326     -18289.801     -13.929838     -121.42172     -69.923797      17.738756      17.738569      17.738409      5581.5702    
        30   0             -2180.5415     -17652.938     -17563.881     -17653.503     -17741.43      -14.749073     -121.70826     -69.567678      17.736994      17.736798      17.73663       5579.8992    
        31   0             -2180.5596     -17104.208     -17015.269     -17104.497     -17192.86      -15.565596     -121.98942     -69.210293      17.735233      17.735028      17.734851      5578.2288    
        32   0             -2180.5772     -16555.265     -16466.467     -16555.281     -16644.048     -16.379554     -122.26578     -68.852271      17.733472      17.733258      17.733072      5576.5589    
        33   0             -2180.5941     -16006.074     -15917.441     -16005.817     -16094.964     -17.190772     -122.53699     -68.49332       17.731712      17.731489      17.731293      5574.8898    
        34   0             -2180.6105     -15456.641     -15368.198     -15456.114     -15545.612     -17.999148     -122.80343     -68.133697      17.729953      17.72972       17.729514      5573.2212    
        35   0             -2180.6264     -14906.978     -14818.749     -14906.181     -14996.004     -18.804618     -123.06477     -67.773888      17.728194      17.727951      17.727735      5571.5534    
        36   0             -2180.6416     -14357.161     -14269.163     -14356.098     -14446.221     -19.608174     -123.32127     -67.413964      17.726436      17.726183      17.725956      5569.8862    
        37   0             -2180.6563     -13807.228     -13719.482     -13805.908     -13896.295     -20.410269     -123.57195     -67.053635      17.724679      17.724415      17.724177      5568.2197    
        38   0             -2180.6704     -13257.196     -13169.723     -13255.625     -13346.24      -21.210837     -123.81663     -66.692672      17.722923      17.722647      17.722398      5566.554     
        39   0             -2180.6839     -12707.044     -12619.88      -12705.226     -12796.026     -22.009457     -124.05491     -66.330455      17.721168      17.72088       17.720619      5564.8891    
        40   0             -2180.6968     -12156.719     -12069.899     -12154.655     -12245.602     -22.806041     -124.28822     -65.96798       17.719413      17.719114      17.71884       5563.225     
        41   0             -2180.7092     -11606.196     -11519.754     -11603.888     -11694.947     -23.600118     -124.51697     -65.605329      17.71766       17.717348      17.717061      5561.5617    
        42   0             -2180.7209     -11055.505     -10969.469     -11052.953     -11144.094     -24.391734     -124.74119     -65.242757      17.715907      17.715583      17.715282      5559.8993    
        43   0             -2180.7321     -10504.74      -10419.143     -10501.944     -10593.132     -25.18117      -124.96027     -64.880302      17.714156      17.713819      17.713503      5558.2378    
        44   0             -2180.7428     -9953.9455     -9868.828      -9950.9077     -10042.101     -25.967735     -125.17316     -64.518431      17.712407      17.712055      17.711724      5556.5773    
        45   0             -2180.7528     -9403.1853     -9318.5953     -9399.9088     -9491.0518     -26.752289     -125.38164     -64.157247      17.710658      17.710292      17.709945      5554.9179    
        46   0             -2180.7623     -8852.4313     -8768.4235     -8848.9214     -8939.949      -27.535386     -125.58649     -63.796791      17.708912      17.70853       17.708166      5553.2596    
        47   0             -2180.7712     -8301.7016     -8218.3224     -8297.9687     -8388.8138     -28.316245     -125.78862     -63.436766      17.707167      17.70677       17.706387      5551.6026    
        48   0             -2180.7795     -7751.0271     -7668.3296     -7747.0812     -7837.6706     -29.095675     -125.98729     -63.076126      17.705424      17.70501       17.704608      5549.9468    
        49   0             -2180.7873     -7200.4405     -7118.4819     -7196.2893     -7286.5504     -29.87269      -126.18054     -62.715477      17.703684      17.703251      17.702829      5548.2926    
        50   0             -2180.7944     -6649.9726     -6568.8337     -6645.6204     -6735.4639     -30.646897     -126.3677      -62.355682      17.701946      17.701494      17.70105       5546.6399    
        51   0             -2180.801      -6099.676      -6019.4387     -6095.1286     -6184.4608     -31.418228     -126.54894     -61.997285      17.700211      17.699739      17.699271      5544.989     
        52   0             -2180.8071     -5549.6608     -5470.4188     -5544.9253     -5633.6382     -32.186138     -126.72456     -61.639961      17.698479      17.697986      17.697492      5543.3402    
        53   0             -2180.8125     -5000.0811     -4921.9208     -4995.1695     -5083.153      -32.950167     -126.89474     -61.282693      17.696752      17.696235      17.695713      5541.6936    
        54   0             -2180.8174     -4451.1401     -4374.1852     -4446.0679     -4533.1671     -33.711592     -127.05881     -60.924521      17.69503       17.694487      17.693934      5540.0498    
        55   0             -2180.8218     -3903.0068     -3827.4124     -3897.7914     -3983.8166     -34.470475     -127.21661     -60.566004      17.693313      17.692742      17.692155      5538.4093    
        56   0             -2180.8255     -3355.8607     -3281.8372     -3350.5263     -3435.2186     -35.226429     -127.36876     -60.208479      17.691604      17.691002      17.690376      5536.7727    
        57   0             -2180.8287     -2809.9526     -2737.7609     -2804.521      -2887.5759     -35.979761     -127.51587     -59.853273      17.689905      17.689267      17.688597      5535.1412    
        58   0             -2180.8314     -2265.7955     -2195.766      -2260.2999     -2341.3207     -36.728403     -127.65776     -59.501728      17.688218      17.687539      17.686818      5533.5163    
        59   0             -2180.8335     -1724.2544     -1656.839      -1718.7351     -1797.1892     -37.470753     -127.79427     -59.154696      17.68655       17.685821      17.685039      5531.9007    
        60   0             -2180.8351     -1187.04       -1122.912      -1181.5685     -1256.6396     -38.205566     -127.92443     -58.814292      17.68491       17.68412       17.68326       5530.2994    
        61   0             -2180.8362     -657.77026     -598.17534     -652.47105     -722.66439     -38.929215     -128.04688     -58.485323      17.68332       17.682448      17.681481      5528.723     
        62   0             -2180.8369     -147.25163     -95.079591     -142.40474     -204.27056     -39.633493     -128.15809     -58.182093      17.681848      17.680841      17.679702      5527.2043    
        63   0             -2180.838       259.3227       288.17254      262.17115      227.62441     -40.251418     -128.23033     -58.024994      17.68102       17.679601      17.677923      5526.0018    
        64   0             -2180.8393     -181.19709     -171.54361     -180.31864     -191.72901     -39.749508     -128.11487     -58.437881      17.682799      17.681046      17.678927      5527.3233    
        65   0             -2180.8413      287.50596      282.85012      287.23025      292.43752     -40.507825     -128.20337     -58.316388      17.681608      17.679601      17.677148      5525.943     
        66   0             -2180.843      -248.14887     -256.24474     -248.97483     -239.22703     -39.899889     -128.07345     -58.816778      17.683387      17.681323      17.678791      5527.551     
        67   0             -2180.8456      302.80406      297.55324      302.44945      308.40949     -40.795999     -128.19049     -58.675744      17.681608      17.67959       17.677117      5525.93      
        68   0             -2180.8477     -230.66516     -232.73242     -230.94651     -228.31656     -40.211311     -128.0632      -59.200418      17.683255      17.681295      17.678896      5527.5342    
        69   0             -2180.8504      316.9114       318.30938      317.18605      315.23878     -41.111062     -128.18148     -59.07352       17.681476      17.679573      17.677249      5525.9245    
        70   0             -2180.8525     -232.62636     -230.48578     -232.5046      -234.8887      -40.510087     -128.04846     -59.615512      17.683222      17.681334      17.679028      5527.577     
        71   0             -2180.8554      329.70336      331.2365       330.01429      327.85929     -41.444614     -128.16949     -59.501563      17.681477      17.679574      17.677249      5525.9252    
        72   0             -2180.8576     -219.28358     -218.79864     -219.30009     -219.75202     -40.846856     -128.03516     -60.046167      17.683256      17.681337      17.678988      5527.5763    
        73   0             -2180.8606      342.44835      342.179        342.59736      342.56868     -41.790205     -128.15832     -59.946716      17.681517      17.679581      17.677209      5525.9277    
        74   0             -2180.8628     -210.67898     -211.33607     -210.80529     -209.89558     -41.18423      -128.02323     -60.489258      17.683296      17.681356      17.678975      5527.5908    
        75   0             -2180.8659      356.69931      356.55476      356.86168      356.68148     -42.147201     -128.15106     -60.403359      17.681517      17.679582      17.677207      5525.9272    
        76   0             -2180.868      -197.59145     -197.66097     -197.66198     -197.45141     -41.537017     -128.01575     -60.941889      17.683291      17.681359      17.678986      5527.5933    
        77   0             -2180.8714      370.98643      371.34006      371.20516      370.41406     -42.514483     -128.14682     -60.874018      17.681512      17.679583      17.677213      5525.9281    
        78   0             -2180.8735     -183.85105     -183.63303     -183.88599     -184.03414     -41.899344     -128.01105     -61.40601       17.68329       17.681362      17.678989      5527.5952    
        79   0             -2180.877       384.75407      384.9751       384.97069      384.31643     -42.89119      -128.1453      -61.35904       17.681522      17.679589      17.67721       5525.9319    
        80   0             -2180.879      -169.8675      -169.87799     -169.91688     -169.80764     -42.271225     -128.00928     -61.882744      17.683301      17.681367      17.678982      5527.5977    
        81   0             -2180.8828      400.3093       400.42819      400.52408      399.97562     -43.281728     -128.14791     -61.858531      17.681527      17.679591      17.677203      5525.9322    
        82   0             -2180.8847     -154.98588     -155.01988     -155.03253     -154.90524     -42.655849     -128.01132     -62.374759      17.683306      17.68137       17.678978      5527.5993    
        83   0             -2180.8887      416.77657      416.97419      417.00775      416.34777     -43.688856     -128.15506     -62.378394      17.681529      17.679593      17.677199      5525.932     
        84   0             -2180.8906     -138.7836      -138.72881     -138.81455     -138.80743     -43.057317     -128.0178      -62.886502      17.683308      17.681372      17.678975      5527.5991    
        85   0             -2180.895       433.41076      433.59826      433.65098      432.98303     -44.116066     -128.16712     -62.925182      17.681535      17.679597      17.677196      5525.934     
        86   0             -2180.8967     -122.40929     -122.38269     -122.43497     -122.41022     -43.478281     -128.02892     -63.424411      17.683314      17.681376      17.678971      5527.601     
        87   0             -2180.9016      451.28745      451.46638      451.53643      450.85953     -44.571325     -128.1854      -63.507105      17.681542      17.679601      17.677192      5525.9361    
        88   0             -2180.9033     -104.84301     -104.81328     -104.86076     -104.855       -43.927241     -128.04597     -63.997432      17.68332       17.68138       17.678967      5527.6032    
        89   0             -2180.9087      470.79234      470.98535      471.05348      470.3382      -45.067166     -128.2116      -64.140145      17.681548      17.679606      17.677188      5525.9386    
        90   0             -2180.9103     -85.64986      -85.60276      -85.656317     -85.690503     -44.41647      -128.07097     -64.621089      17.683327      17.681385      17.678963      5527.6057    
        91   0             -2180.9168      492.54801      492.72782      492.81814      492.09806     -45.626852     -128.24902     -64.85433       17.681558      17.679613      17.677184      5525.9427    
        92   0             -2180.9183     -64.234116     -64.197438     -64.231644     -64.273264     -44.968753     -128.10712     -65.325294      17.683337      17.681392      17.67896       5527.6099    
        93   0             -2180.9264      519.18527      519.40063      519.47154      518.68365     -46.306213     -128.30581     -65.719565      17.681569      17.679622      17.677181      5525.9478    
        94   0             -2180.9278     -37.975266     -37.900275     -37.955548     -38.069975     -45.63979      -128.16245     -66.179774      17.683348      17.681401      17.678956      5527.6149    
        95   0             -2180.9406      557.24943      557.32424      557.53505      556.88902     -47.314368     -128.41179     -67.006344      17.681596      17.679642      17.677177      5525.9613    
        96   0             -2180.9419     -0.3968642     -0.44246216    -0.37340346    -0.37472696    -46.637692     -128.26619     -67.452681      17.683375      17.681421      17.678953      5527.6285    
        97   0             -2181.1368      827.57292      843.13443      831.88767      807.69667     -64.990539     -130.24429     -90.677618      17.683311      17.681567      17.679092      5527.698     
        98   0             -2181.1378      276.58449      290.39618      280.21893      259.13836     -64.247871     -130.07586     -91.023288      17.68509       17.683323      17.680798      5529.3365    
        99   0             -2181.138      -139.3447      -129.00488     -136.77438     -152.25483     -63.652809     -129.95494     -91.237044      17.68647       17.684654      17.682029      5530.5689    
       100   0             -2181.1407     -133.68981     -197.68577     -149.9274      -53.456258     -63.865089     -130.37525     -91.472826      17.687931      17.685044      17.68025       5530.5915    
Loop time of 0.117696 on 1 procs for 100 steps with 500 atoms

106.2% CPU use with 1 MPI tasks x 1 OpenMP threads

Minimization stats:
  Stopping criterion = max iterations
  Energy initial, next-to-last, final = 
     -2179.72855758129  -2181.13796351624  -2181.14073553168
  Force two-norm initial, final = 206.90216 1.4584741
  Force max component initial, final = 119.71035 0.68633402
  Final line search alpha, max atom move = 0.0013438984 0.00092236321
  Iterations, force evaluations = 100 101

MPI task timing breakdown:
Section |  min time  |  avg time  |  max time  |%varavg| %total
---------------------------------------------------------------
Pair    | 0.10998    | 0.10998    | 0.10998    |   0.0 | 93.45
Neigh   | 0          | 0          | 0          |   0.0 |  0.00
Comm    | 0.000618   | 0.000618   | 0.000618   |   0.0 |  0.53
Output  | 0.001379   | 0.001379   | 0.001379   |   0.0 |  1.17
Modify  | 0          | 0          | 0          |   0.0 |  0.00
Other   |            | 0.005714   |            |       |  4.85

Nlocal:            500 ave         500 max         500 min
Histogram: 1 0 0 0 0 0 0 0 0 0
Nghost:           1956 ave        1956 max        1956 min
Histogram: 1 0 0 0 0 0 0 0 0 0
Neighs:          33500 ave       33500 max       33500 min
Histogram: 1 0 0 0 0 0 0 0 0 0

Total # of neighbors = 33500
Ave neighs/atom = 67
Neighbor list builds = 0
Dangerous builds = 0
Displacing atoms ...
System init for write_restart ...
OMP_NUM_THREADS environment is not set. Defaulting to 1 thread. (src/comm.cpp:98)
  using 1 OpenMP thread(s) per MPI task
Loaded 1 plugins from F:\Lammps\LAMMPS 64-bit 2Aug2023\plugins

The 'box' command has been removed and will be ignored

Reading restart file ...
  restart file = 2 Aug 2023, LAMMPS = 2 Aug 2023
  restoring atom style atomic from restart
  triclinic box = (0.051034395 0.052477983 0.054875152) to (17.738966 17.737522 17.735125) with tilt (0 0 0)
  1 by 1 by 1 MPI processor grid
  pair style eam/alloy stores no restart info
  500 atoms
  read_restart CPU = 0.000 seconds
Changing box ...
  triclinic box = (0.051034395 0.052477983 0.054875152) to (17.738948 17.737522 17.735125) with tilt (0 0 0)
  triclinic box = (0.051034395 0.052477983 0.054875152) to (17.738948 17.737522 17.735125) with tilt (0 0 0)
  triclinic box = (0.051034395 0.052477983 0.054875152) to (17.738948 17.737522 17.735125) with tilt (0 0 0)
Neighbor list info ...
  update: every = 1 steps, delay = 0 steps, check = yes
  max neighbors/atom: 2000, page size: 100000
  master list distance cutoff = 6.80375
  ghost atom cutoff = 6.80375
  1 neighbor lists, perpetual/occasional/extra = 1 0 0
  (1) pair eam/alloy, perpetual
      attributes: half, newton on
      pair build: half/nsq/newton
      stencil: none
      bin: none
Setting up cg style minimization ...
  Unit style    : metal
  Current step  : 100
Per MPI rank memory allocation (min/avg/max) = 4.482 | 4.482 | 4.482 Mbytes
   Step          Temp          PotEng         Press           Pxx            Pyy            Pzz            Pxy            Pxz            Pyz             Lx             Ly             Lz           Volume    
       100   0             -2181.1407     -131.72298     -195.10542     -148.23544     -51.828066     -63.813142     -130.39768     -91.452613      17.687914      17.685044      17.68025       5530.5859    
       101   0             -2181.2214      543.69559      506.90618      540.76101      583.4196      -75.460269     -153.91032     -99.63946       17.687914      17.685044      17.68025       5530.5859    
       102   0             -2181.2442      433.4611       428.35691      424.99448      447.03192     -72.048962     -173.87562     -88.601374      17.687914      17.685044      17.68025       5530.5859    
       103   0             -2181.2502      614.15984      620.42557      601.69586      620.35807     -80.311461     -167.86404     -96.371171      17.687914      17.685044      17.68025       5530.5859    
       104   0             -2181.2521      570.64376      578.06399      554.81618      579.05111     -75.085172     -172.93871     -103.08689      17.687914      17.685044      17.68025       5530.5859    
       105   0             -2181.2526      545.18294      551.44455      528.43336      555.6709      -72.403968     -174.22257     -103.82712      17.687914      17.685044      17.68025       5530.5859    
       106   0             -2181.2527      546.19345      553.28614      529.49785      555.79637     -72.164501     -174.42361     -104.41113      17.687914      17.685044      17.68025       5530.5859    
       107   0             -2181.2528      552.05571      560.69347      536.19152      559.28215     -71.893221     -174.91465     -103.55926      17.687914      17.685044      17.68025       5530.5859    
       108   0             -2181.2529      556.39415      565.76232      540.86265      562.55749     -71.522413     -174.20529     -102.6459       17.687914      17.685044      17.68025       5530.5859    
       109   0             -2181.2529      547.62474      556.9217       532.00334      553.94919     -71.715699     -172.94866     -102.4647       17.687914      17.685044      17.68025       5530.5859    
       110   0             -2181.2529      545.92087      555.2783       529.88761      552.5967      -71.928143     -172.81077     -102.47113      17.687914      17.685044      17.68025       5530.5859    
       111   0             -2181.2529      549.10731      558.07273      533.09016      556.15903     -71.954389     -172.91047     -102.56512      17.687914      17.685044      17.68025       5530.5859    
       112   0             -2181.2529      550.27132      559.14106      534.55114      557.12178     -71.782029     -172.88314     -102.6524       17.687914      17.685044      17.68025       5530.5859    
       113   0             -2181.2529      549.69134      558.47307      534.03375      556.56718     -71.775661     -172.88524     -102.68081      17.687914      17.685044      17.68025       5530.5859    
       114   0             -2181.2529      548.85191      557.5636       533.18315      555.80899     -71.934599     -172.932       -102.57218      17.687914      17.685044      17.68025       5530.5859    
       115   0             -2181.2529      549.0061       557.66325      533.38872      555.96632     -71.962109     -172.96624     -102.58936      17.687914      17.685044      17.68025       5530.5859    
       116   0             -2181.2529      549.26967      557.89298      533.702        556.21404     -71.910414     -172.95519     -102.6108       17.687914      17.685044      17.68025       5530.5859    
       117   0             -2181.2529      549.2371       557.86225      533.65673      556.19233     -71.908148     -172.95645     -102.60227      17.687914      17.685044      17.68025       5530.5859    
       118   0             -2181.2529      549.14604      557.78114      533.5549       556.10208     -71.94482      -172.96238     -102.58316      17.687914      17.685044      17.68025       5530.5859    
       119   0             -2181.2529      549.1258       557.75976      533.54064      556.07699     -71.957112     -172.97779     -102.59088      17.687914      17.685044      17.68025       5530.5859    
       120   0             -2181.2529      549.16808      557.79848      533.57616      556.12961     -71.951296     -172.98141     -102.59792      17.687914      17.685044      17.68025       5530.5859    
       121   0             -2181.2529      549.16894      557.79217      533.56899      556.14566     -71.945239     -172.98335     -102.59629      17.687914      17.685044      17.68025       5530.5859    
       122   0             -2181.2529      549.1354       557.75927      533.5341       556.11282     -71.952936     -172.98799     -102.5974       17.687914      17.685044      17.68025       5530.5859    
       123   0             -2181.2529      549.1228       557.74886      533.51827      556.10126     -71.954326     -172.9916      -102.59471      17.687914      17.685044      17.68025       5530.5859    
       124   0             -2181.2529      549.12548      557.75304      533.52003      556.10336     -71.951222     -172.99222     -102.59451      17.687914      17.685044      17.68025       5530.5859    
       125   0             -2181.2529      549.1276       557.75702      533.52257      556.10321     -71.950505     -172.99196     -102.59515      17.687914      17.685044      17.68025       5530.5859    
       126   0             -2181.2529      549.12796      557.75866      533.52307      556.10215     -71.950938     -172.99045     -102.59499      17.687914      17.685044      17.68025       5530.5859    
       127   0             -2181.2529      549.12716      557.75834      533.52242      556.10073     -71.950663     -172.99015     -102.59526      17.687914      17.685044      17.68025       5530.5859    
       128   0             -2181.2529      549.12782      557.75928      533.52279      556.1014      -71.950223     -172.99046     -102.59546      17.687914      17.685044      17.68025       5530.5859    
       129   0             -2181.2529      549.12837      557.76006      533.52307      556.10197     -71.9504       -172.99069     -102.59564      17.687914      17.685044      17.68025       5530.5859    
       130   0             -2181.2529      549.12833      557.76025      533.52279      556.10195     -71.950262     -172.99042     -102.59546      17.687914      17.685044      17.68025       5530.5859    
       131   0             -2181.2529      549.12809      557.76002      533.52249      556.10178     -71.950053     -172.99058     -102.59537      17.687914      17.685044      17.68025       5530.5859    
       132   0             -2181.2529      549.12804      557.75987      533.52232      556.10193     -71.950083     -172.99059     -102.59531      17.687914      17.685044      17.68025       5530.5859    
       133   0             -2181.2529      549.12823      557.76005      533.52248      556.10217     -71.950204     -172.99055     -102.59535      17.687914      17.685044      17.68025       5530.5859    
       134   0             -2181.2529      549.12804      557.75977      533.52233      556.10203     -71.950272     -172.99049     -102.59542      17.687914      17.685044      17.68025       5530.5859    
       135   0             -2181.2529      549.12799      557.75968      533.52228      556.102       -71.950233     -172.99046     -102.59544      17.687914      17.685044      17.68025       5530.5859    
       136   0             -2181.2529      549.12803      557.75972      533.52231      556.10205     -71.950261     -172.99047     -102.59542      17.687914      17.685044      17.68025       5530.5859    
       137   0             -2181.2529      549.12803      557.75972      533.52232      556.10205     -71.950278     -172.99049     -102.59542      17.687914      17.685044      17.68025       5530.5859    
       138   0             -2181.2529      549.12801      557.75969      533.5223       556.10204     -71.950276     -172.99049     -102.59542      17.687914      17.685044      17.68025       5530.5859    
       139   0             -2181.2529      549.128        557.75967      533.52229      556.10203     -71.950276     -172.99049     -102.59542      17.687914      17.685044      17.68025       5530.5859    
       140   0             -2181.2529      549.128        557.75968      533.52229      556.10203     -71.950276     -172.99049     -102.59541      17.687914      17.685044      17.68025       5530.5859    
       141   0             -2181.2529      549.128        557.75968      533.52229      556.10203     -71.950277     -172.99049     -102.59541      17.687914      17.685044      17.68025       5530.5859    
       142   0             -2181.2529      549.128        557.75969      533.52229      556.10203     -71.950275     -172.99049     -102.59541      17.687914      17.685044      17.68025       5530.5859    
       143   0             -2181.2529      549.128        557.75969      533.52229      556.10203     -71.950274     -172.99049     -102.59541      17.687914      17.685044      17.68025       5530.5859    
       144   0             -2181.2529      549.128        557.75969      533.52229      556.10203     -71.950274     -172.99049     -102.59541      17.687914      17.685044      17.68025       5530.5859    
       145   0             -2181.2529      549.128        557.75969      533.5223       556.10203     -71.950275     -172.99049     -102.59541      17.687914      17.685044      17.68025       5530.5859    
       146   0             -2181.2529      549.12801      557.75969      533.5223       556.10203     -71.950275     -172.99049     -102.59541      17.687914      17.685044      17.68025       5530.5859    
       147   0             -2181.2529      549.12801      557.75969      533.5223       556.10203     -71.950274     -172.99049     -102.59541      17.687914      17.685044      17.68025       5530.5859    
       148   0             -2181.2529      549.12801      557.75969      533.5223       556.10203     -71.950274     -172.99049     -102.59541      17.687914      17.685044      17.68025       5530.5859    
       149   0             -2181.2529      549.12801      557.75969      533.5223       556.10203     -71.950274     -172.99049     -102.59541      17.687914      17.685044      17.68025       5530.5859    
       150   0             -2181.2529      549.12801      557.75969      533.5223       556.10203     -71.950274     -172.99049     -102.59541      17.687914      17.685044      17.68025       5530.5859    
       151   0             -2181.2529      549.12801      557.75969      533.5223       556.10203     -71.950274     -172.99049     -102.59541      17.687914      17.685044      17.68025       5530.5859    
       152   0             -2181.2529      549.12801      557.75969      533.5223       556.10203     -71.950274     -172.99049     -102.59541      17.687914      17.685044      17.68025       5530.5859    
       153   0             -2181.2529      549.12801      557.75969      533.5223       556.10203     -71.950274     -172.99049     -102.59541      17.687914      17.685044      17.68025       5530.5859    
       154   0             -2181.2529      549.12801      557.75969      533.5223       556.10203     -71.950274     -172.99049     -102.59541      17.687914      17.685044      17.68025       5530.5859    
       155   0             -2181.2529      549.12801      557.75969      533.5223       556.10203     -71.950274     -172.99049     -102.59541      17.687914      17.685044      17.68025       5530.5859    
       156   0             -2181.2529      549.12801      557.75969      533.5223       556.10203     -71.950274     -172.99049     -102.59541      17.687914      17.685044      17.68025       5530.5859    
       157   0             -2181.2529      549.12801      557.75969      533.5223       556.10203     -71.950274     -172.99049     -102.59541      17.687914      17.685044      17.68025       5530.5859    
       158   0             -2181.2529      549.12801      557.75969      533.5223       556.10203     -71.950274     -172.99049     -102.59541      17.687914      17.685044      17.68025       5530.5859    
       159   0             -2181.2529      549.12801      557.75969      533.5223       556.10203     -71.950274     -172.99049     -102.59541      17.687914      17.685044      17.68025       5530.5859    
Loop time of 0.147974 on 1 procs for 59 steps with 500 atoms

95.0% CPU use with 1 MPI tasks x 1 OpenMP threads

Minimization stats:
  Stopping criterion = force tolerance
  Energy initial, next-to-last, final = 
     -2181.14073509532  -2181.25292505444  -2181.25292505444
  Force two-norm initial, final = 1.1621452 8.2266795e-11
  Force max component initial, final = 0.10489026 9.2982844e-12
  Final line search alpha, max atom move = 1 9.2982844e-12
  Iterations, force evaluations = 59 117

MPI task timing breakdown:
Section |  min time  |  avg time  |  max time  |%varavg| %total
---------------------------------------------------------------
Pair    | 0.1451     | 0.1451     | 0.1451     |   0.0 | 98.06
Neigh   | 0          | 0          | 0          |   0.0 |  0.00
Comm    | 0.000778   | 0.000778   | 0.000778   |   0.0 |  0.53
Output  | 0.001068   | 0.001068   | 0.001068   |   0.0 |  0.72
Modify  | 0          | 0          | 0          |   0.0 |  0.00
Other   |            | 0.001023   |            |       |  0.69

Nlocal:            500 ave         500 max         500 min
Histogram: 1 0 0 0 0 0 0 0 0 0
Nghost:           1956 ave        1956 max        1956 min
Histogram: 1 0 0 0 0 0 0 0 0 0
Neighs:          33500 ave       33500 max       33500 min
Histogram: 1 0 0 0 0 0 0 0 0 0

Total # of neighbors = 33500
Ave neighs/atom = 67
Neighbor list builds = 0
Dangerous builds = 0
OMP_NUM_THREADS environment is not set. Defaulting to 1 thread. (src/comm.cpp:98)
  using 1 OpenMP thread(s) per MPI task
Loaded 1 plugins from F:\Lammps\LAMMPS 64-bit 2Aug2023\plugins

The 'box' command has been removed and will be ignored

Reading restart file ...
  restart file = 2 Aug 2023, LAMMPS = 2 Aug 2023
  restoring atom style atomic from restart
  triclinic box = (0.051034395 0.052477983 0.054875152) to (17.738966 17.737522 17.735125) with tilt (0 0 0)
  1 by 1 by 1 MPI processor grid
  pair style eam/alloy stores no restart info
  500 atoms
  read_restart CPU = 0.000 seconds
Changing box ...
  triclinic box = (0.051034395 0.052477983 0.054875152) to (17.738983 17.737522 17.735125) with tilt (0 0 0)
  triclinic box = (0.051034395 0.052477983 0.054875152) to (17.738983 17.737522 17.735125) with tilt (0 0 0)
  triclinic box = (0.051034395 0.052477983 0.054875152) to (17.738983 17.737522 17.735125) with tilt (0 0 0)
Neighbor list info ...
  update: every = 1 steps, delay = 0 steps, check = yes
  max neighbors/atom: 2000, page size: 100000
  master list distance cutoff = 6.80375
  ghost atom cutoff = 6.80375
  1 neighbor lists, perpetual/occasional/extra = 1 0 0
  (1) pair eam/alloy, perpetual
      attributes: half, newton on
      pair build: half/nsq/newton
      stencil: none
      bin: none
Setting up cg style minimization ...
  Unit style    : metal
  Current step  : 100
Per MPI rank memory allocation (min/avg/max) = 4.482 | 4.482 | 4.482 Mbytes
   Step          Temp          PotEng         Press           Pxx            Pyy            Pzz            Pxy            Pxz            Pyz             Lx             Ly             Lz           Volume    
       100   0             -2181.1407     -135.4608      -200.07352     -151.35837     -54.95052      -63.808385     -130.3958      -91.455737      17.687949      17.685044      17.68025       5530.597     
       101   0             -2181.2214      540.00613      501.9929       537.68053      580.34496     -75.453358     -153.90378     -99.641823      17.687949      17.685044      17.68025       5530.597     
       102   0             -2181.2442      429.79906      423.47052      421.94692      443.97974     -72.041798     -173.87557     -88.602864      17.687949      17.685044      17.68025       5530.597     
       103   0             -2181.2502      610.51647      615.55747      598.66545      617.32649     -80.30273      -167.86005     -96.373381      17.687949      17.685044      17.68025       5530.597     
       104   0             -2181.2521      566.95911      573.15377      551.74332      575.98025     -75.078482     -172.93455     -103.08836      17.687949      17.685044      17.68025       5530.597     
       105   0             -2181.2526      541.51265      546.54993      525.37482      552.61321     -72.396794     -174.21717     -103.82882      17.687949      17.685044      17.68025       5530.597     
       106   0             -2181.2528      542.52446      548.3925       526.44092      552.73995     -72.157267     -174.41966     -104.41279      17.687949      17.685044      17.68025       5530.597     
       107   0             -2181.2528      548.39145      555.80474      533.1393       556.2303      -71.885836     -174.91035     -103.56123      17.687949      17.685044      17.68025       5530.597     
       108   0             -2181.2529      552.72622      560.87038      537.80642      559.50186     -71.515189     -174.20069     -102.64759      17.687949      17.685044      17.68025       5530.597     
       109   0             -2181.2529      543.95463      552.02772      528.94492      550.89126     -71.708552     -172.94414     -102.46638      17.687949      17.685044      17.68025       5530.597     
       110   0             -2181.2529      542.25434      550.38805      526.83289      549.54208     -71.920935     -172.80637     -102.47304      17.687949      17.685044      17.68025       5530.597     
       111   0             -2181.2529      545.44019      553.18187      530.03481      553.10389     -71.9472       -172.90631     -102.56698      17.687949      17.685044      17.68025       5530.597     
       112   0             -2181.2529      546.60434      554.25053      531.49586      554.06661     -71.774835     -172.87864     -102.65425      17.687949      17.685044      17.68025       5530.597     
       113   0             -2181.2529      546.02325      553.58145      530.97735      553.51097     -71.768513     -172.88081     -102.6826       17.687949      17.685044      17.68025       5530.597     
       114   0             -2181.2529      545.18424      552.67239      530.12714      552.75318     -71.927423     -172.92757     -102.57401      17.687949      17.685044      17.68025       5530.597     
       115   0             -2181.2529      545.3389       552.77251      530.3332       552.91098     -71.954962     -172.96186     -102.59121      17.687949      17.685044      17.68025       5530.597     
       116   0             -2181.2529      545.60216      553.00192      530.64615      553.1584      -71.903239     -172.95079     -102.61264      17.687949      17.685044      17.68025       5530.597     
       117   0             -2181.2529      545.56959      552.97121      530.60089      553.13666     -71.90098      -172.95201     -102.60412      17.687949      17.685044      17.68025       5530.597     
       118   0             -2181.2529      545.47845      552.89002      530.49898      553.04636     -71.937658     -172.95797     -102.58499      17.687949      17.685044      17.68025       5530.597     
       119   0             -2181.2529      545.45834      552.86878      530.48484      553.02139     -71.949961     -172.97339     -102.59273      17.687949      17.685044      17.68025       5530.597     
       120   0             -2181.2529      545.50064      552.90752      530.52037      553.07402     -71.944138     -172.97701     -102.59977      17.687949      17.685044      17.68025       5530.597     
       121   0             -2181.2529      545.50141      552.90113      530.51312      553.08999     -71.938075     -172.97894     -102.59813      17.687949      17.685044      17.68025       5530.597     
       122   0             -2181.2529      545.4679       552.86826      530.47826      553.05717     -71.945776     -172.98357     -102.59924      17.687949      17.685044      17.68025       5530.597     
       123   0             -2181.2529      545.45529      552.85784      530.46242      553.04562     -71.947167     -172.98719     -102.59655      17.687949      17.685044      17.68025       5530.597     
       124   0             -2181.2529      545.45799      552.86204      530.4642       553.04773     -71.944064     -172.98781     -102.59635      17.687949      17.685044      17.68025       5530.597     
       125   0             -2181.2529      545.4601       552.86602      530.46673      553.04756     -71.943345     -172.98755     -102.59699      17.687949      17.685044      17.68025       5530.597     
       126   0             -2181.2529      545.46046      552.86765      530.46723      553.04651     -71.943778     -172.98604     -102.59683      17.687949      17.685044      17.68025       5530.597     
       127   0             -2181.2529      545.45967      552.86734      530.46658      553.04509     -71.943504     -172.98574     -102.5971       17.687949      17.685044      17.68025       5530.597     
       128   0             -2181.2529      545.46032      552.86827      530.46695      553.04576     -71.943064     -172.98605     -102.5973       17.687949      17.685044      17.68025       5530.597     
       129   0             -2181.2529      545.46087      552.86905      530.46723      553.04633     -71.943241     -172.98628     -102.59748      17.687949      17.685044      17.68025       5530.597     
       130   0             -2181.2529      545.46083      552.86925      530.46695      553.0463      -71.943103     -172.98601     -102.5973       17.687949      17.685044      17.68025       5530.597     
       131   0             -2181.2529      545.4606       552.86901      530.46665      553.04613     -71.942894     -172.98617     -102.59721      17.687949      17.685044      17.68025       5530.597     
       132   0             -2181.2529      545.46054      552.86887      530.46648      553.04629     -71.942924     -172.98618     -102.59715      17.687949      17.685044      17.68025       5530.597     
       133   0             -2181.2529      545.46074      552.86904      530.46665      553.04653     -71.943045     -172.98614     -102.59719      17.687949      17.685044      17.68025       5530.597     
       134   0             -2181.2529      545.46055      552.86877      530.46649      553.04639     -71.943113     -172.98608     -102.59727      17.687949      17.685044      17.68025       5530.597     
       135   0             -2181.2529      545.46049      552.86868      530.46644      553.04636     -71.943074     -172.98605     -102.59728      17.687949      17.685044      17.68025       5530.597     
       136   0             -2181.2529      545.46053      552.86871      530.46648      553.04641     -71.943102     -172.98606     -102.59726      17.687949      17.685044      17.68025       5530.597     
       137   0             -2181.2529      545.46053      552.86871      530.46648      553.04641     -71.943119     -172.98608     -102.59726      17.687949      17.685044      17.68025       5530.597     
       138   0             -2181.2529      545.46051      552.86868      530.46646      553.04639     -71.943117     -172.98607     -102.59726      17.687949      17.685044      17.68025       5530.597     
       139   0             -2181.2529      545.4605       552.86866      530.46645      553.04639     -71.943117     -172.98608     -102.59726      17.687949      17.685044      17.68025       5530.597     
       140   0             -2181.2529      545.4605       552.86867      530.46645      553.04639     -71.943117     -172.98608     -102.59725      17.687949      17.685044      17.68025       5530.597     
       141   0             -2181.2529      545.46051      552.86867      530.46645      553.04639     -71.943118     -172.98608     -102.59725      17.687949      17.685044      17.68025       5530.597     
       142   0             -2181.2529      545.46051      552.86868      530.46645      553.04639     -71.943116     -172.98608     -102.59725      17.687949      17.685044      17.68025       5530.597     
       143   0             -2181.2529      545.46051      552.86868      530.46645      553.04639     -71.943115     -172.98608     -102.59725      17.687949      17.685044      17.68025       5530.597     
       144   0             -2181.2529      545.46051      552.86868      530.46645      553.04639     -71.943115     -172.98608     -102.59725      17.687949      17.685044      17.68025       5530.597     
       145   0             -2181.2529      545.46051      552.86868      530.46646      553.04639     -71.943116     -172.98608     -102.59725      17.687949      17.685044      17.68025       5530.597     
       146   0             -2181.2529      545.46051      552.86868      530.46646      553.04639     -71.943115     -172.98608     -102.59725      17.687949      17.685044      17.68025       5530.597     
       147   0             -2181.2529      545.46051      552.86868      530.46646      553.04639     -71.943115     -172.98608     -102.59725      17.687949      17.685044      17.68025       5530.597     
       148   0             -2181.2529      545.46051      552.86868      530.46646      553.04639     -71.943115     -172.98608     -102.59725      17.687949      17.685044      17.68025       5530.597     
       149   0             -2181.2529      545.46051      552.86868      530.46646      553.04639     -71.943115     -172.98608     -102.59725      17.687949      17.685044      17.68025       5530.597     
       150   0             -2181.2529      545.46051      552.86868      530.46646      553.04639     -71.943115     -172.98608     -102.59725      17.687949      17.685044      17.68025       5530.597     
       151   0             -2181.2529      545.46051      552.86868      530.46646      553.04639     -71.943115     -172.98608     -102.59725      17.687949      17.685044      17.68025       5530.597     
       152   0             -2181.2529      545.46051      552.86868      530.46646      553.04639     -71.943115     -172.98608     -102.59725      17.687949      17.685044      17.68025       5530.597     
       153   0             -2181.2529      545.46051      552.86868      530.46646      553.04639     -71.943115     -172.98608     -102.59725      17.687949      17.685044      17.68025       5530.597     
       154   0             -2181.2529      545.46051      552.86868      530.46646      553.04639     -71.943115     -172.98608     -102.59725      17.687949      17.685044      17.68025       5530.597     
       155   0             -2181.2529      545.46051      552.86868      530.46646      553.04639     -71.943115     -172.98608     -102.59725      17.687949      17.685044      17.68025       5530.597     
       156   0             -2181.2529      545.46051      552.86868      530.46646      553.04639     -71.943115     -172.98608     -102.59725      17.687949      17.685044      17.68025       5530.597     
       157   0             -2181.2529      545.46051      552.86868      530.46646      553.04639     -71.943115     -172.98608     -102.59725      17.687949      17.685044      17.68025       5530.597     
       158   0             -2181.2529      545.46051      552.86868      530.46646      553.04639     -71.943115     -172.98608     -102.59725      17.687949      17.685044      17.68025       5530.597     
       159   0             -2181.2529      545.46051      552.86868      530.46646      553.04639     -71.943115     -172.98608     -102.59725      17.687949      17.685044      17.68025       5530.597     
Loop time of 0.144926 on 1 procs for 59 steps with 500 atoms

97.0% CPU use with 1 MPI tasks x 1 OpenMP threads

Minimization stats:
  Stopping criterion = force tolerance
  Energy initial, next-to-last, final = 
     -2181.14073373119  -2181.25292888826  -2181.25292888826
  Force two-norm initial, final = 1.1621848 8.2237857e-11
  Force max component initial, final = 0.10489566 9.3257312e-12
  Final line search alpha, max atom move = 1 9.3257312e-12
  Iterations, force evaluations = 59 117

MPI task timing breakdown:
Section |  min time  |  avg time  |  max time  |%varavg| %total
---------------------------------------------------------------
Pair    | 0.14209    | 0.14209    | 0.14209    |   0.0 | 98.04
Neigh   | 0          | 0          | 0          |   0.0 |  0.00
Comm    | 0.000739   | 0.000739   | 0.000739   |   0.0 |  0.51
Output  | 0.001021   | 0.001021   | 0.001021   |   0.0 |  0.70
Modify  | 0          | 0          | 0          |   0.0 |  0.00
Other   |            | 0.001077   |            |       |  0.74

Nlocal:            500 ave         500 max         500 min
Histogram: 1 0 0 0 0 0 0 0 0 0
Nghost:           1956 ave        1956 max        1956 min
Histogram: 1 0 0 0 0 0 0 0 0 0
Neighs:          33500 ave       33500 max       33500 min
Histogram: 1 0 0 0 0 0 0 0 0 0

Total # of neighbors = 33500
Ave neighs/atom = 67
Neighbor list builds = 0
Dangerous builds = 0
OMP_NUM_THREADS environment is not set. Defaulting to 1 thread. (src/comm.cpp:98)
  using 1 OpenMP thread(s) per MPI task
Loaded 1 plugins from F:\Lammps\LAMMPS 64-bit 2Aug2023\plugins

The 'box' command has been removed and will be ignored

Reading restart file ...
  restart file = 2 Aug 2023, LAMMPS = 2 Aug 2023
  restoring atom style atomic from restart
  triclinic box = (0.051034395 0.052477983 0.054875152) to (17.738966 17.737522 17.735125) with tilt (0 0 0)
  1 by 1 by 1 MPI processor grid
  pair style eam/alloy stores no restart info
  500 atoms
  read_restart CPU = 0.000 seconds
Changing box ...
  triclinic box = (0.051034395 0.052477983 0.054875152) to (17.738966 17.737504 17.735125) with tilt (0 0 0)
  triclinic box = (0.051034395 0.052477983 0.054875152) to (17.738966 17.737504 17.735125) with tilt (0 0 0)
Neighbor list info ...
  update: every = 1 steps, delay = 0 steps, check = yes
  max neighbors/atom: 2000, page size: 100000
  master list distance cutoff = 6.80375
  ghost atom cutoff = 6.80375
  1 neighbor lists, perpetual/occasional/extra = 1 0 0
  (1) pair eam/alloy, perpetual
      attributes: half, newton on
      pair build: half/nsq/newton
      stencil: none
      bin: none
Setting up cg style minimization ...
  Unit style    : metal
  Current step  : 100
Per MPI rank memory allocation (min/avg/max) = 4.482 | 4.482 | 4.482 Mbytes
   Step          Temp          PotEng         Press           Pxx            Pyy            Pzz            Pxy            Pxz            Pyz             Lx             Ly             Lz           Volume    
       100   0             -2181.1407     -131.72265     -196.02806     -147.31168     -51.82823      -63.814119     -130.3972      -91.453975      17.687931      17.685026      17.68025       5530.5859    
       101   0             -2181.2214      543.70501      506.00006      541.68734      583.42764     -75.461115     -153.9081      -99.64047       17.687931      17.685026      17.68025       5530.5859    
       102   0             -2181.2442      433.44929      427.42757      425.89999      447.02031     -72.048756     -173.87365     -88.603011      17.687931      17.685026      17.68025       5530.5859    
       103   0             -2181.2502      614.15443      619.50366      602.60709      620.35254     -80.312019     -167.86128     -96.372807      17.687931      17.685026      17.68025       5530.5859    
       104   0             -2181.2521      570.64452      577.14731      555.73433      579.05192     -75.085486     -172.9365      -103.08809      17.687931      17.685026      17.68025       5530.5859    
       105   0             -2181.2526      545.18323      550.52775      529.35078      555.67116     -72.404684     -174.21989     -103.8286       17.687931      17.685026      17.68025       5530.5859    
       106   0             -2181.2527      546.19177      552.36743      530.41311      555.79475     -72.165181     -174.42087     -104.41265      17.687931      17.685026      17.68025       5530.5859    
       107   0             -2181.2528      552.05368      559.77466      537.10627      559.28012     -71.893945     -174.91187     -103.56075      17.687931      17.685026      17.68025       5530.5859    
       108   0             -2181.2529      556.39308      564.8446       541.77832      562.55632     -71.523182     -174.20263     -102.64737      17.687931      17.685026      17.68025       5530.5859    
       109   0             -2181.2529      547.62402      556.00431      532.91935      553.9484      -71.716425     -172.94603     -102.46623      17.687931      17.685026      17.68025       5530.5859    
       110   0             -2181.2529      545.91969      554.36058      530.80307      552.59541     -71.928899     -172.80806     -102.47267      17.687931      17.685026      17.68025       5530.5859    
       111   0             -2181.2529      549.10592      557.15483      534.0054       556.15751     -71.955099     -172.90775     -102.56661      17.687931      17.685026      17.68025       5530.5859    
       112   0             -2181.2529      550.2702       558.22347      535.46661      557.12051     -71.782753     -172.88043     -102.65393      17.687931      17.685026      17.68025       5530.5859    
       113   0             -2181.2529      549.69032      557.55559      534.94937      556.566       -71.776391     -172.88255     -102.68234      17.687931      17.685026      17.68025       5530.5859    
       114   0             -2181.2529      548.85082      556.64604      534.0987       555.80772     -71.935323     -172.92928     -102.57369      17.687931      17.685026      17.68025       5530.5859    
       115   0             -2181.2529      549.00493      556.74562      534.3042       555.96497     -71.962836     -172.96351     -102.59087      17.687931      17.685026      17.68025       5530.5859    
       116   0             -2181.2529      549.26855      556.97539      534.61754      556.21273     -71.91114      -172.95247     -102.61231      17.687931      17.685026      17.68025       5530.5859    
       117   0             -2181.2529      549.23602      556.94469      534.5723       556.19105     -71.908878     -172.95373     -102.60379      17.687931      17.685026      17.68025       5530.5859    
       118   0             -2181.2529      549.14495      556.86358      534.47047      556.1008      -71.945543     -172.95967     -102.58467      17.687931      17.685026      17.68025       5530.5859    
       119   0             -2181.2529      549.12469      556.84218      534.45619      556.07569     -71.957837     -172.97507     -102.59239      17.687931      17.685026      17.68025       5530.5859    
       120   0             -2181.2529      549.16697      556.88091      534.49171      556.1283      -71.952021     -172.9787      -102.59943      17.687931      17.685026      17.68025       5530.5859    
       121   0             -2181.2529      549.16784      556.87461      534.48455      556.14436     -71.945965     -172.98064     -102.5978       17.687931      17.685026      17.68025       5530.5859    
       122   0             -2181.2529      549.1343       556.84171      534.44966      556.11153     -71.953663     -172.98527     -102.59892      17.687931      17.685026      17.68025       5530.5859    
       123   0             -2181.2529      549.1217       556.8313       534.43382      556.09997     -71.955051     -172.98888     -102.59622      17.687931      17.685026      17.68025       5530.5859    
       124   0             -2181.2529      549.12438      556.83547      534.43559      556.10207     -71.951948     -172.9895      -102.59603      17.687931      17.685026      17.68025       5530.5859    
       125   0             -2181.2529      549.1265       556.83946      534.43813      556.10191     -71.951231     -172.98924     -102.59666      17.687931      17.685026      17.68025       5530.5859    
       126   0             -2181.2529      549.12686      556.8411       534.43862      556.10086     -71.951664     -172.98773     -102.5965       17.687931      17.685026      17.68025       5530.5859    
       127   0             -2181.2529      549.12606      556.84078      534.43797      556.09943     -71.951389     -172.98743     -102.59677      17.687931      17.685026      17.68025       5530.5859    
       128   0             -2181.2529      549.12672      556.84172      534.43834      556.1001      -71.950949     -172.98774     -102.59697      17.687931      17.685026      17.68025       5530.5859    
       129   0             -2181.2529      549.12727      556.8425       534.43862      556.10068     -71.951126     -172.98798     -102.59715      17.687931      17.685026      17.68025       5530.5859    
       130   0             -2181.2529      549.12723      556.84269      534.43835      556.10065     -71.950988     -172.9877      -102.59697      17.687931      17.685026      17.68025       5530.5859    
       131   0             -2181.2529      549.12699      556.84246      534.43804      556.10048     -71.950779     -172.98787     -102.59688      17.687931      17.685026      17.68025       5530.5859    
       132   0             -2181.2529      549.12694      556.84231      534.43787      556.10063     -71.950809     -172.98788     -102.59682      17.687931      17.685026      17.68025       5530.5859    
       133   0             -2181.2529      549.12713      556.84249      534.43804      556.10087     -71.95093      -172.98783     -102.59686      17.687931      17.685026      17.68025       5530.5859    
       134   0             -2181.2529      549.12694      556.84221      534.43788      556.10073     -71.950998     -172.98777     -102.59694      17.687931      17.685026      17.68025       5530.5859    
       135   0             -2181.2529      549.12689      556.84212      534.43783      556.1007      -71.950959     -172.98774     -102.59695      17.687931      17.685026      17.68025       5530.5859    
       136   0             -2181.2529      549.12693      556.84216      534.43787      556.10076     -71.950987     -172.98776     -102.59693      17.687931      17.685026      17.68025       5530.5859    
       137   0             -2181.2529      549.12693      556.84215      534.43787      556.10076     -71.951004     -172.98778     -102.59693      17.687931      17.685026      17.68025       5530.5859    
       138   0             -2181.2529      549.12691      556.84213      534.43785      556.10074     -71.951002     -172.98777     -102.59693      17.687931      17.685026      17.68025       5530.5859    
       139   0             -2181.2529      549.12689      556.84211      534.43784      556.10073     -71.951002     -172.98777     -102.59693      17.687931      17.685026      17.68025       5530.5859    
       140   0             -2181.2529      549.1269       556.84212      534.43784      556.10074     -71.951002     -172.98777     -102.59692      17.687931      17.685026      17.68025       5530.5859    
       141   0             -2181.2529      549.1269       556.84212      534.43784      556.10074     -71.951003     -172.98778     -102.59692      17.687931      17.685026      17.68025       5530.5859    
       142   0             -2181.2529      549.1269       556.84213      534.43785      556.10074     -71.951001     -172.98777     -102.59692      17.687931      17.685026      17.68025       5530.5859    
       143   0             -2181.2529      549.1269       556.84213      534.43785      556.10074     -71.951        -172.98777     -102.59692      17.687931      17.685026      17.68025       5530.5859    
       144   0             -2181.2529      549.1269       556.84213      534.43785      556.10073     -71.951        -172.98777     -102.59692      17.687931      17.685026      17.68025       5530.5859    
       145   0             -2181.2529      549.1269       556.84213      534.43785      556.10074     -71.951001     -172.98777     -102.59692      17.687931      17.685026      17.68025       5530.5859    
       146   0             -2181.2529      549.12691      556.84213      534.43785      556.10074     -71.951001     -172.98778     -102.59692      17.687931      17.685026      17.68025       5530.5859    
       147   0             -2181.2529      549.12691      556.84213      534.43785      556.10074     -71.951        -172.98778     -102.59692      17.687931      17.685026      17.68025       5530.5859    
       148   0             -2181.2529      549.1269       556.84213      534.43785      556.10074     -71.951        -172.98778     -102.59692      17.687931      17.685026      17.68025       5530.5859    
       149   0             -2181.2529      549.1269       556.84213      534.43785      556.10074     -71.951        -172.98778     -102.59692      17.687931      17.685026      17.68025       5530.5859    
       150   0             -2181.2529      549.1269       556.84213      534.43785      556.10074     -71.951        -172.98778     -102.59692      17.687931      17.685026      17.68025       5530.5859    
       151   0             -2181.2529      549.1269       556.84213      534.43785      556.10074     -71.951        -172.98778     -102.59692      17.687931      17.685026      17.68025       5530.5859    
       152   0             -2181.2529      549.1269       556.84213      534.43785      556.10074     -71.951        -172.98778     -102.59692      17.687931      17.685026      17.68025       5530.5859    
       153   0             -2181.2529      549.1269       556.84213      534.43785      556.10074     -71.951        -172.98778     -102.59692      17.687931      17.685026      17.68025       5530.5859    
       154   0             -2181.2529      549.1269       556.84213      534.43785      556.10074     -71.951        -172.98778     -102.59692      17.687931      17.685026      17.68025       5530.5859    
       155   0             -2181.2529      549.1269       556.84213      534.43785      556.10074     -71.951        -172.98778     -102.59692      17.687931      17.685026      17.68025       5530.5859    
       156   0             -2181.2529      549.1269       556.84213      534.43785      556.10074     -71.951        -172.98778     -102.59692      17.687931      17.685026      17.68025       5530.5859    
       157   0             -2181.2529      549.1269       556.84213      534.43785      556.10074     -71.951        -172.98778     -102.59692      17.687931      17.685026      17.68025       5530.5859    
       158   0             -2181.2529      549.1269       556.84213      534.43785      556.10074     -71.951        -172.98778     -102.59692      17.687931      17.685026      17.68025       5530.5859    
       159   0             -2181.2529      549.1269       556.84213      534.43785      556.10074     -71.951        -172.98778     -102.59692      17.687931      17.685026      17.68025       5530.5859    
Loop time of 0.141184 on 1 procs for 59 steps with 500 atoms

99.6% CPU use with 1 MPI tasks x 1 OpenMP threads

Minimization stats:
  Stopping criterion = force tolerance
  Energy initial, next-to-last, final = 
     -2181.14073493033  -2181.25292513493  -2181.25292513494
  Force two-norm initial, final = 1.1621456 8.2247373e-11
  Force max component initial, final = 0.10488888 9.3402334e-12
  Final line search alpha, max atom move = 1 9.3402334e-12
  Iterations, force evaluations = 59 117

MPI task timing breakdown:
Section |  min time  |  avg time  |  max time  |%varavg| %total
---------------------------------------------------------------
Pair    | 0.13839    | 0.13839    | 0.13839    |   0.0 | 98.02
Neigh   | 0          | 0          | 0          |   0.0 |  0.00
Comm    | 0.000758   | 0.000758   | 0.000758   |   0.0 |  0.54
Output  | 0.001005   | 0.001005   | 0.001005   |   0.0 |  0.71
Modify  | 0          | 0          | 0          |   0.0 |  0.00
Other   |            | 0.001034   |            |       |  0.73

Nlocal:            500 ave         500 max         500 min
Histogram: 1 0 0 0 0 0 0 0 0 0
Nghost:           1956 ave        1956 max        1956 min
Histogram: 1 0 0 0 0 0 0 0 0 0
Neighs:          33500 ave       33500 max       33500 min
Histogram: 1 0 0 0 0 0 0 0 0 0

Total # of neighbors = 33500
Ave neighs/atom = 67
Neighbor list builds = 0
Dangerous builds = 0
OMP_NUM_THREADS environment is not set. Defaulting to 1 thread. (src/comm.cpp:98)
  using 1 OpenMP thread(s) per MPI task
Loaded 1 plugins from F:\Lammps\LAMMPS 64-bit 2Aug2023\plugins

The 'box' command has been removed and will be ignored

Reading restart file ...
  restart file = 2 Aug 2023, LAMMPS = 2 Aug 2023
  restoring atom style atomic from restart
  triclinic box = (0.051034395 0.052477983 0.054875152) to (17.738966 17.737522 17.735125) with tilt (0 0 0)
  1 by 1 by 1 MPI processor grid
  pair style eam/alloy stores no restart info
  500 atoms
  read_restart CPU = 0.000 seconds
Changing box ...
  triclinic box = (0.051034395 0.052477983 0.054875152) to (17.738966 17.73754 17.735125) with tilt (0 0 0)
  triclinic box = (0.051034395 0.052477983 0.054875152) to (17.738966 17.73754 17.735125) with tilt (0 0 0)
Neighbor list info ...
  update: every = 1 steps, delay = 0 steps, check = yes
  max neighbors/atom: 2000, page size: 100000
  master list distance cutoff = 6.80375
  ghost atom cutoff = 6.80375
  1 neighbor lists, perpetual/occasional/extra = 1 0 0
  (1) pair eam/alloy, perpetual
      attributes: half, newton on
      pair build: half/nsq/newton
      stencil: none
      bin: none
Setting up cg style minimization ...
  Unit style    : metal
  Current step  : 100
Per MPI rank memory allocation (min/avg/max) = 4.482 | 4.482 | 4.482 Mbytes
   Step          Temp          PotEng         Press           Pxx            Pyy            Pzz            Pxy            Pxz            Pyz             Lx             Ly             Lz           Volume    
       100   0             -2181.1407     -135.46112     -199.15088     -152.28213     -54.950357     -63.807407     -130.39628     -91.454376      17.687931      17.685062      17.68025       5530.597     
       101   0             -2181.2214      539.99671      502.89903      536.75419      580.33692     -75.452512     -153.906       -99.640813      17.687931      17.685062      17.68025       5530.597     
       102   0             -2181.2442      429.81087      424.39986      421.04141      443.99135     -72.042004     -173.87754     -88.601227      17.687931      17.685062      17.68025       5530.597     
       103   0             -2181.2502      610.52187      616.47938      597.75422      617.33202     -80.302172     -167.8628      -96.371746      17.687931      17.685062      17.68025       5530.597     
       104   0             -2181.2521      566.95835      574.07045      550.82517      575.97944     -75.078167     -172.93676     -103.08716      17.687931      17.685062      17.68025       5530.597     
       105   0             -2181.2526      541.51236      547.46673      524.45741      552.61295     -72.396078     -174.21984     -103.82734      17.687931      17.685062      17.68025       5530.597     
       106   0             -2181.2528      542.52614      549.31121      525.52566      552.74156     -72.156587     -174.4224      -104.41126      17.687931      17.685062      17.68025       5530.597     
       107   0             -2181.2528      548.39348      556.72356      532.22455      556.23233     -71.885112     -174.91314     -103.55974      17.687931      17.685062      17.68025       5530.597     
       108   0             -2181.2529      552.72729      561.7881       536.89074      559.50302     -71.51442      -174.20336     -102.64612      17.687931      17.685062      17.68025       5530.597     
       109   0             -2181.2529      543.95535      552.94511      528.02891      550.89205     -71.707827     -172.94677     -102.46486      17.687931      17.685062      17.68025       5530.597     
       110   0             -2181.2529      542.25553      551.30577      525.91744      549.54337     -71.920179     -172.80909     -102.47151      17.687931      17.685062      17.68025       5530.597     
       111   0             -2181.2529      545.44158      554.09977      529.11956      553.10541     -71.94649      -172.90903     -102.5655       17.687931      17.685062      17.68025       5530.597     
       112   0             -2181.2529      546.60546      555.16812      530.58038      554.06789     -71.774111     -172.88135     -102.65272      17.687931      17.685062      17.68025       5530.597     
       113   0             -2181.2529      546.02427      554.49894      530.06173      553.51215     -71.767783     -172.8835      -102.68107      17.687931      17.685062      17.68025       5530.597     
       114   0             -2181.2529      545.18533      553.58996      529.21159      552.75445     -71.926699     -172.93029     -102.5725       17.687931      17.685062      17.68025       5530.597     
       115   0             -2181.2529      545.34006      553.69013      529.41771      552.91233     -71.954235     -172.96459     -102.5897       17.687931      17.685062      17.68025       5530.597     
       116   0             -2181.2529      545.60328      553.91951      529.73062      553.15972     -71.902514     -172.95351     -102.61113      17.687931      17.685062      17.68025       5530.597     
       117   0             -2181.2529      545.57068      553.88877      529.68532      553.13794     -71.900251     -172.95472     -102.6026       17.687931      17.685062      17.68025       5530.597     
       118   0             -2181.2529      545.47954      553.80758      529.5834       553.04764     -71.936935     -172.96068     -102.58348      17.687931      17.685062      17.68025       5530.597     
       119   0             -2181.2529      545.45945      553.78636      529.5693       553.0227      -71.949236     -172.97611     -102.59122      17.687931      17.685062      17.68025       5530.597     
       120   0             -2181.2529      545.50175      553.82509      529.60482      553.07533     -71.943413     -172.97972     -102.59825      17.687931      17.685062      17.68025       5530.597     
       121   0             -2181.2529      545.50251      553.81869      529.59756      553.09128     -71.937348     -172.98165     -102.59661      17.687931      17.685062      17.68025       5530.597     
       122   0             -2181.2529      545.469        553.78582      529.5627       553.05847     -71.945049     -172.98629     -102.59773      17.687931      17.685062      17.68025       5530.597     
       123   0             -2181.2529      545.4564       553.77541      529.54687      553.04691     -71.946441     -172.98991     -102.59504      17.687931      17.685062      17.68025       5530.597     
       124   0             -2181.2529      545.45909      553.7796       529.54865      553.04903     -71.943338     -172.99053     -102.59484      17.687931      17.685062      17.68025       5530.597     
       125   0             -2181.2529      545.46121      553.78358      529.55118      553.04886     -71.942618     -172.99026     -102.59548      17.687931      17.685062      17.68025       5530.597     
       126   0             -2181.2529      545.46156      553.78521      529.55167      553.0478      -71.943052     -172.98875     -102.59532      17.687931      17.685062      17.68025       5530.597     
       127   0             -2181.2529      545.46077      553.7849       529.55102      553.04639     -71.942778     -172.98845     -102.59559      17.687931      17.685062      17.68025       5530.597     
       128   0             -2181.2529      545.46143      553.78583      529.55139      553.04705     -71.942338     -172.98876     -102.59579      17.687931      17.685062      17.68025       5530.597     
       129   0             -2181.2529      545.46197      553.78661      529.55168      553.04763     -71.942514     -172.989       -102.59596      17.687931      17.685062      17.68025       5530.597     
       130   0             -2181.2529      545.46194      553.78681      529.5514       553.0476      -71.942376     -172.98872     -102.59579      17.687931      17.685062      17.68025       5530.597     
       131   0             -2181.2529      545.4617       553.78657      529.55109      553.04743     -71.942168     -172.98889     -102.5957       17.687931      17.685062      17.68025       5530.597     
       132   0             -2181.2529      545.46165      553.78643      529.55092      553.04759     -71.942198     -172.9889      -102.59564      17.687931      17.685062      17.68025       5530.597     
       133   0             -2181.2529      545.46184      553.7866       529.55109      553.04782     -71.942318     -172.98885     -102.59568      17.687931      17.685062      17.68025       5530.597     
       134   0             -2181.2529      545.46165      553.78633      529.55093      553.04768     -71.942387     -172.98879     -102.59575      17.687931      17.685062      17.68025       5530.597     
       135   0             -2181.2529      545.46159      553.78624      529.55088      553.04765     -71.942347     -172.98876     -102.59577      17.687931      17.685062      17.68025       5530.597     
       136   0             -2181.2529      545.46163      553.78627      529.55092      553.04771     -71.942376     -172.98878     -102.59574      17.687931      17.685062      17.68025       5530.597     
       137   0             -2181.2529      545.46163      553.78627      529.55092      553.04771     -71.942393     -172.98879     -102.59574      17.687931      17.685062      17.68025       5530.597     
       138   0             -2181.2529      545.46161      553.78624      529.5509       553.04769     -71.942391     -172.98879     -102.59575      17.687931      17.685062      17.68025       5530.597     
       139   0             -2181.2529      545.4616       553.78623      529.55089      553.04768     -71.94239      -172.98879     -102.59574      17.687931      17.685062      17.68025       5530.597     
[...]
       151   0             -2181.2529      547.29078      555.31075      531.99007      554.57151     -70.764424     -172.98862     -102.5949       17.687931      17.685044      17.68025       5530.5915    
       152   0             -2181.2529      547.29078      555.31075      531.99007      554.57151     -70.764424     -172.98862     -102.5949       17.687931      17.685044      17.68025       5530.5915    
       153   0             -2181.2529      547.29078      555.31075      531.99007      554.57151     -70.764424     -172.98862     -102.5949       17.687931      17.685044      17.68025       5530.5915    
       154   0             -2181.2529      547.29078      555.31075      531.99007      554.57151     -70.764424     -172.98862     -102.5949       17.687931      17.685044      17.68025       5530.5915    
       155   0             -2181.2529      547.29078      555.31075      531.99007      554.57151     -70.764424     -172.98862     -102.5949       17.687931      17.685044      17.68025       5530.5915    
       156   0             -2181.2529      547.29078      555.31075      531.99007      554.57151     -70.764424     -172.98862     -102.5949       17.687931      17.685044      17.68025       5530.5915    
       157   0             -2181.2529      547.29078      555.31075      531.99007      554.57151     -70.764424     -172.98862     -102.5949       17.687931      17.685044      17.68025       5530.5915    
       158   0             -2181.2529      547.29078      555.31075      531.99007      554.57151     -70.764424     -172.98862     -102.5949       17.687931      17.685044      17.68025       5530.5915    
       159   0             -2181.2529      547.29078      555.31075      531.99007      554.57151     -70.764424     -172.98862     -102.5949       17.687931      17.685044      17.68025       5530.5915    
Loop time of 0.138618 on 1 procs for 59 steps with 500 atoms

90.2% CPU use with 1 MPI tasks x 1 OpenMP threads

Minimization stats:
  Stopping criterion = force tolerance
  Energy initial, next-to-last, final = 
     -2181.14073463576  -2181.25292722189  -2181.25292722188
  Force two-norm initial, final = 1.1621653 8.2265738e-11
  Force max component initial, final = 0.10489304 9.3474048e-12
  Final line search alpha, max atom move = 1 9.3474048e-12
  Iterations, force evaluations = 59 117

MPI task timing breakdown:
Section |  min time  |  avg time  |  max time  |%varavg| %total
---------------------------------------------------------------
Pair    | 0.13605    | 0.13605    | 0.13605    |   0.0 | 98.15
Neigh   | 0          | 0          | 0          |   0.0 |  0.00
Comm    | 0.000693   | 0.000693   | 0.000693   |   0.0 |  0.50
Output  | 0.000908   | 0.000908   | 0.000908   |   0.0 |  0.66
Modify  | 0          | 0          | 0          |   0.0 |  0.00
Other   |            | 0.000965   |            |       |  0.70

Nlocal:            500 ave         500 max         500 min
Histogram: 1 0 0 0 0 0 0 0 0 0
Nghost:           1956 ave        1956 max        1956 min
Histogram: 1 0 0 0 0 0 0 0 0 0
Neighs:          33500 ave       33500 max       33500 min
Histogram: 1 0 0 0 0 0 0 0 0 0

Total # of neighbors = 33500
Ave neighs/atom = 67
Neighbor list builds = 0
Dangerous builds = 0
OMP_NUM_THREADS environment is not set. Defaulting to 1 thread. (src/comm.cpp:98)
  using 1 OpenMP thread(s) per MPI task
Loaded 1 plugins from F:\Lammps\LAMMPS 64-bit 2Aug2023\plugins

The 'box' command has been removed and will be ignored

Reading restart file ...
  restart file = 2 Aug 2023, LAMMPS = 2 Aug 2023
  restoring atom style atomic from restart
  triclinic box = (0.051034395 0.052477983 0.054875152) to (17.738966 17.737522 17.735125) with tilt (0 0 0)
  1 by 1 by 1 MPI processor grid
  pair style eam/alloy stores no restart info
  500 atoms
  read_restart CPU = 0.000 seconds
Changing box ...
  triclinic box = (0.051034395 0.052477983 0.054875152) to (17.738966 17.737522 17.735125) with tilt (1.7685044e-05 0 0)
Neighbor list info ...
  update: every = 1 steps, delay = 0 steps, check = yes
  max neighbors/atom: 2000, page size: 100000
  master list distance cutoff = 6.80375
  ghost atom cutoff = 6.80375
  1 neighbor lists, perpetual/occasional/extra = 1 0 0
  (1) pair eam/alloy, perpetual
      attributes: half, newton on
      pair build: half/nsq/newton
      stencil: none
      bin: none
Setting up cg style minimization ...
  Unit style    : metal
  Current step  : 100
Per MPI rank memory allocation (min/avg/max) = 4.482 | 4.482 | 4.482 Mbytes
   Step          Temp          PotEng         Press           Pxx            Pyy            Pzz            Pxy            Pxz            Pyz             Lx             Ly             Lz           Volume    
       100   0             -2181.1407     -133.58926     -197.58722     -149.79355     -53.387007     -65.002059     -130.39689     -91.454237      17.687931      17.685044      17.68025       5530.5915    
       101   0             -2181.2214      541.85461      504.45304      539.22549      581.8853      -76.63911      -153.90714     -99.642079      17.687931      17.685044      17.68025       5530.5915    
       102   0             -2181.2442      431.63258      425.91655      423.47335      445.50783     -73.228316     -173.87486     -88.603434      17.687931      17.685044      17.68025       5530.5915    
       103   0             -2181.2502      612.3421       617.99548      600.18553      618.84529     -81.488469     -167.86189     -96.373551      17.687931      17.685044      17.68025       5530.5915    
       104   0             -2181.2521      568.80473      575.61217      553.28368      577.51833     -76.264407     -172.93608     -103.08926      17.687931      17.685044      17.68025       5530.5915    
       105   0             -2181.2526      543.35141      549.00078      526.90856      554.1449      -73.582588     -174.21951     -103.82937      17.687931      17.685044      17.68025       5530.5915    
       106   0             -2181.2527      544.3624       550.8427       527.97367      554.27083     -73.343435     -174.42128     -104.41344      17.687931      17.685044      17.68025       5530.5915    
       107   0             -2181.2528      550.22722      558.25276      534.66986      557.75905     -73.071875     -174.91215     -103.56163      17.687931      17.685044      17.68025       5530.5915    
       108   0             -2181.2529      554.56371      563.31984      539.3389       561.03239     -72.701091     -174.20261     -102.6482       17.687931      17.685044      17.68025       5530.5915    
       109   0             -2181.2529      545.79319      554.47819      530.47847      552.42292     -72.89444      -172.94604     -102.46699      17.687931      17.685044      17.68025       5530.5915    
       110   0             -2181.2529      544.09113      552.83668      528.36462      551.0721      -73.106808     -172.80826     -102.47352      17.687931      17.685044      17.68025       5530.5915    
       111   0             -2181.2529      547.27719      555.6307       531.56675      554.63412     -73.133103     -172.90806     -102.5675       17.687931      17.685044      17.68025       5530.5915    
       112   0             -2181.2529      548.44133      556.69925      533.02782      555.59692     -72.960668     -172.88055     -102.65475      17.687931      17.685044      17.68025       5530.5915    
       113   0             -2181.2529      547.86078      556.0307       532.50987      555.04177     -72.954327     -172.88269     -102.68314      17.687931      17.685044      17.68025       5530.5915    
       114   0             -2181.2529      547.02156      555.12144      531.65946      554.28379     -73.113261     -172.92945     -102.57454      17.687931      17.685044      17.68025       5530.5915    
       115   0             -2181.2529      547.17597      555.22131      531.86527      554.44134     -73.140799     -172.96371     -102.59172      17.687931      17.685044      17.68025       5530.5915    
       116   0             -2181.2529      547.43939      555.45088      532.17839      554.68892     -73.089098     -172.95265     -102.61316      17.687931      17.685044      17.68025       5530.5915    
       117   0             -2181.2529      547.40683      555.42017      532.13312      554.6672      -73.086829     -172.95389     -102.60463      17.687931      17.685044      17.68025       5530.5915    
       118   0             -2181.2529      547.31572      555.33901      532.03124      554.57692     -73.123509     -172.95983     -102.58551      17.687931      17.685044      17.68025       5530.5915    
       119   0             -2181.2529      547.29555      555.31771      532.01705      554.55189     -73.135806     -172.97525     -102.59324      17.687931      17.685044      17.68025       5530.5915    
       120   0             -2181.2529      547.33784      555.35644      532.05257      554.60451     -73.129988     -172.97887     -102.60028      17.687931      17.685044      17.68025       5530.5915    
       121   0             -2181.2529      547.33865      555.35008      532.04536      554.62052     -73.123926     -172.98081     -102.59864      17.687931      17.685044      17.68025       5530.5915    
       122   0             -2181.2529      547.30513      555.3172       532.01049      554.5877      -73.131626     -172.98544     -102.59976      17.687931      17.685044      17.68025       5530.5915    
       123   0             -2181.2529      547.29252      555.30679      531.99465      554.57613     -73.133017     -172.98906     -102.59706      17.687931      17.685044      17.68025       5530.5915    
       124   0             -2181.2529      547.29521      555.31097      531.99642      554.57824     -73.129914     -172.98968     -102.59687      17.687931      17.685044      17.68025       5530.5915    
       125   0             -2181.2529      547.29733      555.31495      531.99896      554.57808     -73.129195     -172.98941     -102.5975       17.687931      17.685044      17.68025       5530.5915    
       126   0             -2181.2529      547.29769      555.31659      531.99945      554.57703     -73.129629     -172.9879      -102.59734      17.687931      17.685044      17.68025       5530.5915    
       127   0             -2181.2529      547.29689      555.31627      531.9988       554.57561     -73.129354     -172.9876      -102.59761      17.687931      17.685044      17.68025       5530.5915    
       128   0             -2181.2529      547.29755      555.31721      531.99917      554.57627     -73.128915     -172.98791     -102.59782      17.687931      17.685044      17.68025       5530.5915    
       129   0             -2181.2529      547.2981       555.31799      531.99946      554.57685     -73.129091     -172.98815     -102.59799      17.687931      17.685044      17.68025       5530.5915    
       130   0             -2181.2529      547.29806      555.31818      531.99918      554.57682     -73.128953     -172.98787     -102.59781      17.687931      17.685044      17.68025       5530.5915    
       131   0             -2181.2529      547.29782      555.31795      531.99887      554.57665     -73.128744     -172.98804     -102.59773      17.687931      17.685044      17.68025       5530.5915    
       132   0             -2181.2529      547.29777      555.3178       531.9987       554.57681     -73.128774     -172.98805     -102.59767      17.687931      17.685044      17.68025       5530.5915    
       133   0             -2181.2529      547.29796      555.31798      531.99887      554.57704     -73.128895     -172.988       -102.5977       17.687931      17.685044      17.68025       5530.5915    
       134   0             -2181.2529      547.29777      555.31771      531.99871      554.5769      -73.128963     -172.98794     -102.59778      17.687931      17.685044      17.68025       5530.5915    
       135   0             -2181.2529      547.29772      555.31761      531.99866      554.57687     -73.128924     -172.98792     -102.5978       17.687931      17.685044      17.68025       5530.5915    
       136   0             -2181.2529      547.29776      555.31765      531.9987       554.57693     -73.128952     -172.98793     -102.59777      17.687931      17.685044      17.68025       5530.5915    
       137   0             -2181.2529      547.29776      555.31765      531.9987       554.57693     -73.128969     -172.98795     -102.59777      17.687931      17.685044      17.68025       5530.5915    
       138   0             -2181.2529      547.29774      555.31762      531.99868      554.57691     -73.128967     -172.98794     -102.59777      17.687931      17.685044      17.68025       5530.5915    
       139   0             -2181.2529      547.29773      555.3176       531.99867      554.5769      -73.128967     -172.98794     -102.59777      17.687931      17.685044      17.68025       5530.5915    
       140   0             -2181.2529      547.29773      555.31761      531.99867      554.57691     -73.128967     -172.98795     -102.59777      17.687931      17.685044      17.68025       5530.5915    
       141   0             -2181.2529      547.29773      555.31761      531.99868      554.57691     -73.128968     -172.98795     -102.59776      17.687931      17.685044      17.68025       5530.5915    
       142   0             -2181.2529      547.29774      555.31762      531.99868      554.57691     -73.128967     -172.98794     -102.59777      17.687931      17.685044      17.68025       5530.5915    
       143   0             -2181.2529      547.29773      555.31762      531.99868      554.57691     -73.128965     -172.98795     -102.59777      17.687931      17.685044      17.68025       5530.5915    
       144   0             -2181.2529      547.29773      555.31762      531.99868      554.5769      -73.128965     -172.98795     -102.59777      17.687931      17.685044      17.68025       5530.5915    
       145   0             -2181.2529      547.29774      555.31762      531.99868      554.57691     -73.128966     -172.98795     -102.59777      17.687931      17.685044      17.68025       5530.5915    
       146   0             -2181.2529      547.29774      555.31762      531.99868      554.57691     -73.128966     -172.98795     -102.59777      17.687931      17.685044      17.68025       5530.5915    
       147   0             -2181.2529      547.29774      555.31762      531.99868      554.57691     -73.128966     -172.98795     -102.59777      17.687931      17.685044      17.68025       5530.5915    
       148   0             -2181.2529      547.29774      555.31762      531.99868      554.57691     -73.128965     -172.98795     -102.59777      17.687931      17.685044      17.68025       5530.5915    
       149   0             -2181.2529      547.29774      555.31762      531.99868      554.57691     -73.128965     -172.98795     -102.59777      17.687931      17.685044      17.68025       5530.5915    
       150   0             -2181.2529      547.29774      555.31762      531.99868      554.57691     -73.128965     -172.98795     -102.59777      17.687931      17.685044      17.68025       5530.5915    
       151   0             -2181.2529      547.29774      555.31762      531.99868      554.57691     -73.128965     -172.98795     -102.59777      17.687931      17.685044      17.68025       5530.5915    
       152   0             -2181.2529      547.29774      555.31762      531.99868      554.57691     -73.128965     -172.98795     -102.59777      17.687931      17.685044      17.68025       5530.5915    
       153   0             -2181.2529      547.29774      555.31762      531.99868      554.57691     -73.128965     -172.98795     -102.59777      17.687931      17.685044      17.68025       5530.5915    
       154   0             -2181.2529      547.29774      555.31762      531.99868      554.57691     -73.128965     -172.98795     -102.59777      17.687931      17.685044      17.68025       5530.5915    
       155   0             -2181.2529      547.29774      555.31762      531.99868      554.57691     -73.128965     -172.98795     -102.59777      17.687931      17.685044      17.68025       5530.5915    
       156   0             -2181.2529      547.29774      555.31762      531.99868      554.57691     -73.128965     -172.98795     -102.59777      17.687931      17.685044      17.68025       5530.5915    
       157   0             -2181.2529      547.29774      555.31762      531.99868      554.57691     -73.128965     -172.98795     -102.59777      17.687931      17.685044      17.68025       5530.5915    
       158   0             -2181.2529      547.29774      555.31762      531.99868      554.57691     -73.128965     -172.98795     -102.59777      17.687931      17.685044      17.68025       5530.5915    
       159   0             -2181.2529      547.29774      555.31762      531.99868      554.57691     -73.128965     -172.98795     -102.59777      17.687931      17.685044      17.68025       5530.5915    
Loop time of 0.144162 on 1 procs for 59 steps with 500 atoms

97.5% CPU use with 1 MPI tasks x 1 OpenMP threads

Minimization stats:
  Stopping criterion = force tolerance
  Energy initial, next-to-last, final = 
     -2181.14073419521  -2181.25292672516  -2181.25292672516
  Force two-norm initial, final = 1.1621646 8.2254249e-11
  Force max component initial, final = 0.10489288 9.3278406e-12
  Final line search alpha, max atom move = 1 9.3278406e-12
  Iterations, force evaluations = 59 117

MPI task timing breakdown:
Section |  min time  |  avg time  |  max time  |%varavg| %total
---------------------------------------------------------------
Pair    | 0.14134    | 0.14134    | 0.14134    |   0.0 | 98.04
Neigh   | 0          | 0          | 0          |   0.0 |  0.00
Comm    | 0.000745   | 0.000745   | 0.000745   |   0.0 |  0.52
Output  | 0.000998   | 0.000998   | 0.000998   |   0.0 |  0.69
Modify  | 0          | 0          | 0          |   0.0 |  0.00
Other   |            | 0.001081   |            |       |  0.75

Nlocal:            500 ave         500 max         500 min
Histogram: 1 0 0 0 0 0 0 0 0 0
Nghost:           1956 ave        1956 max        1956 min
Histogram: 1 0 0 0 0 0 0 0 0 0
Neighs:          33500 ave       33500 max       33500 min
Histogram: 1 0 0 0 0 0 0 0 0 0

Total # of neighbors = 33500
Ave neighs/atom = 67
Neighbor list builds = 0
Dangerous builds = 0
=========================================
Components of the Elastic Constant Tensor
=========================================
Elastic Constant C11all = 244.550378347201 GPa
Elastic Constant C22all = 244.347388890797 GPa
Elastic Constant C33all = 243.778484960651 GPa
Elastic Constant C12all = 152.793077084719 GPa
Elastic Constant C13all = 152.782060499623 GPa
Elastic Constant C23all = 152.651339835676 GPa
Elastic Constant C44all = 118.3142087067 GPa
Elastic Constant C55all = 118.28384303975 GPa
Elastic Constant C66all = 118.227077536916 GPa
Elastic Constant C14all = 0.0971714809500666 GPa
Elastic Constant C15all = -0.203226441326933 GPa
Elastic Constant C16all = -0.350759812117161 GPa
Elastic Constant C24all = -0.0489447394219268 GPa
Elastic Constant C25all = 0.0596143048244357 GPa
Elastic Constant C26all = -0.430569426685566 GPa
Elastic Constant C34all = -0.00136436422633323 GPa
Elastic Constant C35all = -0.250401092501079 GPa
Elastic Constant C36all = -0.273555360657241 GPa
Elastic Constant C45all = -0.018008613449922 GPa
Elastic Constant C46all = 0.152189463382257 GPa
Elastic Constant C56all = -0.0338578385375854 GPa
=========================================
Average properties for a cubic crystal
=========================================
Bulk Modulus = 183.236578559854 GPa
Shear Modulus 1 = 118.275043094455 GPa
Shear Modulus 2 = 45.741629129772 GPa
Poisson Ratio = 0.384772379828824
Total wall time: 0:00:02
