LAMMPS (2 Aug 2023 - Update 3)
OMP_NUM_THREADS environment is not set. Defaulting to 1 thread. (src/comm.cpp:98)
  using 1 OpenMP thread(s) per MPI task
Loaded 1 plugins from F:\Lammps\LAMMPS 64-bit 2Aug2023\plugins
Reading data file ...
  orthogonal box = (0 0 0) to (17.79 17.79 17.79)
  1 by 1 by 1 MPI processor grid
  reading atoms ...
  500 atoms
  read_data CPU = 0.002 seconds
Changing box ...
  triclinic box = (0 0 0) to (17.79 17.79 17.79) with tilt (0 0 0)
Neighbor list info ...
  update: every = 1 steps, delay = 0 steps, check = yes
  max neighbors/atom: 2000, page size: 100000
  master list distance cutoff = 6.80375
  ghost atom cutoff = 6.80375
  1 neighbor lists, perpetual/occasional/extra = 1 0 0
  (1) pair eam/alloy, perpetual
      attributes: half, newton on
      pair build: half/nsq/newton
      stencil: none
      bin: none
Setting up cg style minimization ...
  Unit style    : metal
  Current step  : 0
WARNING: Energy due to 3 extra global DOFs will be included in minimizer energies
 (src/min.cpp:228)
Per MPI rank memory allocation (min/avg/max) = 4.492 | 4.492 | 4.492 Mbytes
   Step          Temp          PotEng         Press           Pxx            Pyy            Pzz            Pxy            Pxz            Pyz             Lx             Ly             Lz           Volume    
         0   0             -2179.5987     -33658.701     -33752.875     -33640.97      -33582.258      104.05322      59.87538      -129.02914      17.79          17.79          17.79          5630.2521    
         1   0             -2179.6338     -33118.038     -33211.756     -33101.598     -33040.759      104.06152      60.09732      -129.1342       17.788221      17.788227      17.78823       5628.5679    
         2   0             -2179.6683     -32576.971     -32670.225     -32561.821     -32498.866      104.06661      60.315395     -129.23879      17.786442      17.786454      17.78646       5626.8841    
         3   0             -2179.7023     -32035.496     -32128.278     -32021.635     -31956.575      104.06878      60.529352     -129.34307      17.784663      17.784681      17.78469       5625.2007    
         4   0             -2179.7357     -31493.632     -31585.935     -31481.059     -31413.902      104.06868      60.739781     -129.44765      17.782884      17.782908      17.782921      5623.5177    
         5   0             -2179.7685     -30951.457     -31043.28      -30940.169     -30870.921      104.0667       60.9525       -129.55223      17.781105      17.781135      17.781152      5621.8351    
         6   0             -2179.8007     -30409.025     -30500.367     -30399.018     -30327.69       104.06278      61.168348     -129.65687      17.779326      17.779361      17.779383      5620.1528    
         7   0             -2179.8323     -29866.338     -29957.198     -29857.607     -29784.209      104.05671      61.387346     -129.76162      17.777547      17.777588      17.777614      5618.471     
         8   0             -2179.8634     -29323.346     -29413.717     -29315.891     -29240.431      104.04725      61.607399     -129.86879      17.775768      17.775815      17.775845      5616.7896    
         9   0             -2179.8939     -28779.994     -28869.867     -28773.818     -28696.298      104.03563      61.823991     -129.9779       17.773989      17.774042      17.774076      5615.1086    
        10   0             -2179.9238     -28236.245     -28325.614     -28231.349     -28151.772      104.02284      62.036011     -130.08875      17.77221       17.772269      17.772308      5613.4279    
        11   0             -2179.9531     -27692.123     -27780.984     -27688.507     -27606.878      104.00922      62.244026     -130.20046      17.770431      17.770496      17.77054       5611.7477    
        12   0             -2179.9819     -27147.668     -27236.018     -27145.328     -27061.658      103.99387      62.449327     -130.31035      17.768652      17.768723      17.768772      5610.0679    
        13   0             -2180.0101     -26602.909     -26690.743     -26601.841     -26516.143      103.9754       62.653515     -130.41975      17.766873      17.76695       17.767005      5608.3885    
        14   0             -2180.0377     -26057.896     -26145.209     -26058.094     -25970.383      103.95167      62.858256     -130.52587      17.765094      17.765177      17.765237      5606.7095    
        15   0             -2180.0647     -25512.592     -25599.377     -25514.054     -25424.344      103.924        63.062525     -130.63036      17.763315      17.763404      17.76347       5605.031     
        16   0             -2180.0912     -24966.958     -25053.213     -24969.682     -24877.978      103.89346      63.265863     -130.73294      17.761536      17.761631      17.761703      5603.3528    
        17   0             -2180.117      -24420.974     -24506.697     -24424.957     -24331.267      103.86012      63.46733      -130.83439      17.759757      17.759858      17.759937      5601.6751    
        18   0             -2180.1423     -23874.619     -23959.806     -23879.86      -23784.191      103.82529      63.665692     -130.9386       17.757978      17.758085      17.758171      5599.9978    
        19   0             -2180.167      -23327.974     -23412.615     -23334.469     -23236.838      103.78665      63.862022     -131.04621      17.756199      17.756312      17.756405      5598.3209    
        20   0             -2180.1912     -22781.057     -22865.14      -22788.803     -22689.228      103.74393      64.056951     -131.15772      17.75442       17.754538      17.754639      5596.6445    
        21   0             -2180.2147     -22233.9       -22317.414     -22242.89      -22141.395      103.69686      64.252094     -131.2715       17.752641      17.752765      17.752874      5594.9685    
        22   0             -2180.2377     -21686.434     -21769.373     -21696.663     -21593.267      103.64594      64.446284     -131.38458      17.750862      17.750992      17.751109      5593.293     
        23   0             -2180.2601     -21138.695     -21221.055     -21150.157     -21044.874      103.59171      64.639829     -131.49788      17.749083      17.749219      17.749344      5591.6179    
        24   0             -2180.2819     -20590.678     -20672.454     -20603.366     -20496.213      103.53436      64.832258     -131.61166      17.747304      17.747446      17.74758       5589.9433    
        25   0             -2180.3032     -20042.423     -20123.614     -20056.331     -19947.324      103.47432      65.022806     -131.7275       17.745525      17.745673      17.745816      5588.2691    
        26   0             -2180.3238     -19493.951     -19574.546     -19509.079     -19398.229      103.41161      65.211799     -131.84456      17.743746      17.7439        17.744053      5586.5954    
        27   0             -2180.3439     -18945.213     -19025.202     -18961.56      -18848.877      103.34596      65.398042     -131.96123      17.741967      17.742127      17.74229       5584.9222    
        28   0             -2180.3634     -18396.212     -18475.584     -18413.775     -18299.276      103.2768       65.581295     -132.07645      17.740188      17.740354      17.740527      5583.2494    
        29   0             -2180.3824     -17846.96      -17925.708     -17865.731     -17749.44       103.20172      65.762226     -132.19058      17.738409      17.738581      17.738765      5581.5771    
        30   0             -2180.4007     -17297.474     -17375.589     -17317.444     -17199.39       103.12033      65.941349     -132.30392      17.73663       17.736808      17.737004      5579.9054    
        31   0             -2180.4185     -16747.788     -16825.261     -16768.944     -16649.161      103.03311      66.119253     -132.41796      17.734851      17.735035      17.735243      5578.2341    
        32   0             -2180.4357     -16197.879     -16274.695     -16220.213     -16098.729      102.94188      66.296453     -132.5334       17.733072      17.733262      17.733483      5576.5634    
        33   0             -2180.4523     -15647.717     -15723.861     -15671.222     -15548.068      102.8486       66.471626     -132.65074      17.731293      17.731489      17.731723      5574.8932    
        34   0             -2180.4683     -15097.309     -15172.766     -15121.977     -14997.185      102.75318      66.6451       -132.7697       17.729514      17.729716      17.729964      5573.2235    
        35   0             -2180.4838     -14546.661     -14621.416     -14572.482     -14446.085      102.65511      66.816438     -132.88964      17.727735      17.727943      17.728205      5571.5544    
        36   0             -2180.4987     -13995.842     -14069.887     -14022.806     -13894.832      102.55338      66.984791     -133.00918      17.725956      17.72617       17.726448      5569.8858    
        37   0             -2180.513      -13444.887     -13518.212     -13472.983     -13343.465      102.44791      67.149674     -133.1296       17.724177      17.724397      17.724691      5568.2179    
        38   0             -2180.5267     -12893.806     -12966.4       -12923.022     -12791.998      102.339        67.31054      -133.25104      17.722398      17.722624      17.722935      5566.5505    
        39   0             -2180.5398     -12342.58      -12414.415     -12372.897     -12240.426      102.22638      67.467562     -133.37428      17.720619      17.720851      17.72118       5564.8838    
        40   0             -2180.5524     -11791.152     -11862.209     -11822.554     -11688.693      102.11063      67.622401     -133.49939      17.71884       17.719078      17.719426      5563.2177    
        41   0             -2180.5644     -11239.494     -11309.753     -11271.962     -11136.768      101.99097      67.775067     -133.62327      17.717061      17.717305      17.717673      5561.5523    
        42   0             -2180.5758     -10687.636     -10757.082     -10721.15      -10584.675      101.86715      67.925787     -133.74576      17.715282      17.715532      17.715921      5559.8875    
        43   0             -2180.5867     -10135.657     -10204.27      -10170.197     -10032.503      101.73806      68.074161     -133.86675      17.713503      17.713759      17.714171      5558.2236    
        44   0             -2180.5969     -9583.6012     -9651.3546     -9619.1426     -9480.3063      101.60321      68.220283     -133.9871       17.711724      17.711986      17.712422      5556.5604    
        45   0             -2180.6066     -9031.5342     -9098.3936     -9068.0502     -8928.1587      101.46265      68.364859     -134.10951      17.709945      17.710213      17.710675      5554.898     
        46   0             -2180.6157     -8479.4229     -8545.3512     -8516.8838     -8376.0338      101.31703      68.508111     -134.23498      17.708166      17.70844       17.708929      5553.2366    
        47   0             -2180.6242     -7927.2851     -7992.2484     -7965.6628     -7823.9442      101.1671       68.648417     -134.36385      17.706387      17.706667      17.707185      5551.576     
        48   0             -2180.6322     -7375.1431     -7439.1027     -7414.4045     -7271.9223      101.01309      68.785881     -134.49559      17.704608      17.704894      17.705444      5549.9165    
        49   0             -2180.6396     -6823.0161     -6885.931      -6863.12       -6719.9973      100.85465      68.919647     -134.62788      17.702829      17.70312       17.703705      5548.2582    
        50   0             -2180.6464     -6270.9197     -6332.7341     -6311.813      -6168.2119      100.69081      69.051488     -134.75709      17.70105       17.701347      17.701969      5546.601     
        51   0             -2180.6526     -5718.8955     -5779.5539     -5760.5193     -5616.6133      100.52103      69.181619     -134.88284      17.699271      17.699574      17.700236      5544.9452    
        52   0             -2180.6583     -5167.0313     -5226.4672     -5209.3159     -5065.3108      100.34498      69.309738     -135.00572      17.697492      17.697801      17.698507      5543.291     
        53   0             -2180.6634     -4615.4678     -4673.6173     -4658.3381     -4514.4479      100.16373      69.435109     -135.12787      17.695713      17.696028      17.696783      5541.6386    
        54   0             -2180.6679     -4064.3809     -4121.1466     -4107.7369     -3964.259       99.977887      69.558113     -135.25266      17.693934      17.694255      17.695065      5539.9883    
        55   0             -2180.6719     -3513.9025     -3569.1596     -3557.6183     -3414.9295      99.787609      69.678923     -135.38013      17.692155      17.692482      17.693354      5538.3405    
        56   0             -2180.6753     -2964.1726     -3017.7437     -3008.0839     -2866.6902      99.592178      69.797651     -135.50743      17.690376      17.690709      17.691652      5536.6959    
        57   0             -2180.6781     -2415.407      -2467.0683     -2459.2961     -2319.8565      99.390835      69.912524     -135.63158      17.688597      17.688935      17.689962      5535.0555    
        58   0             -2180.6804     -1868.0886     -1917.5395     -1911.6555     -1775.0706      99.182794      70.02238      -135.74954      17.686818      17.687162      17.688289      5533.4207    
        59   0             -2180.6821     -1323.1176     -1369.9221     -1365.9046     -1233.5261      98.966344      70.127025     -135.85644      17.685039      17.685388      17.686643      5531.7943    
        60   0             -2180.6834     -782.51306     -825.9333      -823.73988     -697.86598      98.740377      70.227319     -135.94966      17.68326       17.683615      17.685041      5530.1822    
        61   0             -2180.6841     -251.77438     -290.13384     -289.69818     -175.49114      98.501516      70.321092     -136.01478      17.681481      17.68184       17.683538      5528.6012    
        62   0             -2180.685       235.80919      209.77688      208.73313      288.91756      98.227121      70.389621     -135.95436      17.679702      17.680064      17.682462      5527.1533    
        63   0             -2180.6865     -109.36442     -118.4797      -118.04326     -91.570301      98.249534      70.282772     -135.54994      17.680479      17.680834      17.684241      5528.1931    
        64   0             -2180.6889      379.58442      383.23823      382.19406      373.32097      97.908126      70.336246     -135.10043      17.6787        17.679061      17.683195      5526.7553    
        65   0             -2180.6904     -148.2226      -142.65943     -141.83473     -160.17363      98.068224      70.220259     -134.67592      17.680346      17.680702      17.684974      5528.3393    
        66   0             -2180.6939      368.98363      370.58568      369.5459       366.8193       97.74543       70.298548     -134.01676      17.678809      17.679178      17.683195      5526.8259    
        67   0             -2180.6955     -178.21441     -178.32762     -177.49619     -178.81942      97.920753      70.183393     -133.54735      17.680588      17.680954      17.684896      5528.4693    
        68   0             -2180.6991      373.94534      372.72174      371.61091      377.50337      97.566716      70.261765     -132.86639      17.678885      17.679264      17.683117      5526.8527    
        69   0             -2180.701      -179.27757     -180.77527     -179.97089     -177.08654      97.730892      70.141501     -132.34946      17.680657      17.681032      17.684896      5528.5155    
        70   0             -2180.7046      381.48732      381.4767       380.35566      382.6296       97.357887      70.215421     -131.64689      17.678878      17.679265      17.683192      5526.874     
        71   0             -2180.7065     -167.51471     -167.46388     -166.67791     -168.40233      97.516503      70.095011     -131.11786      17.68063       17.681014      17.684971      5528.5246    
        72   0             -2180.7103      401.0035       401.36159      400.17669      401.47221      97.135497      70.169587     -130.36915      17.678851      17.679247      17.683198      5526.8618    
        73   0             -2180.7121     -153.38406     -153.4065      -152.67375     -154.07193      97.297645      70.048846     -129.8386       17.680628      17.681021      17.684977      5528.5283    
        74   0             -2180.7162      414.03924      414.00527      412.7651       415.34736      96.903823      70.119776     -129.01261      17.678862      17.679268      17.683198      5526.8716    
        75   0             -2180.718      -140.13465     -140.51588     -139.84        -140.04807      97.067467      69.999543     -128.49521      17.680637      17.68104       17.684977      5528.5368    
        76   0             -2180.7224      429.22878      429.31348      428.01931      430.35355      96.654019      70.065361     -127.58059      17.678858      17.679275      17.683214      5526.8776    
        77   0             -2180.7242     -124.16816     -124.3508      -123.73148     -124.42219      96.818897      69.945834     -127.0772       17.680629      17.681042      17.684993      5528.5398    
        78   0             -2180.729       447.45323      447.57638      446.21655      448.56675      96.382575      70.006174     -126.04408      17.67885       17.679277      17.683221      5526.8781    
        79   0             -2180.7307     -106.72638     -106.91775     -106.36306     -106.89833      96.550237      69.887543     -125.55619      17.680623      17.681047      17.685         5528.5419    
        80   0             -2180.7361      466.76438      466.86823      465.43691      467.98798      96.080919      69.939468     -124.3535       17.678844      17.679283      17.683229      5526.8807    
        81   0             -2180.7377     -87.643536     -87.853582     -87.370107     -87.70692       96.25165       69.822066     -123.88375      17.680617      17.681053      17.685008      5528.5445    
        82   0             -2180.7441      488.0357       488.203        486.69387      489.21021      95.73229       69.861223     -122.42563      17.678838      17.679291      17.683243      5526.8858    
        83   0             -2180.7456     -66.692306     -66.844675     -66.437541     -66.794702      95.906741      69.745164     -121.97567      17.680612      17.68106       17.685022      5528.5496    
        84   0             -2180.7536      514.30771      514.42579      512.81613      515.6812       95.300261      69.763275     -120.07067      17.678833      17.679301      17.683255      5526.8908    
        85   0             -2180.7551     -40.754411     -40.962483     -40.652533     -40.648219      95.47912       69.648559     -119.64155      17.680607      17.681071      17.685034      5528.5547    
        86   0             -2180.7674      549.77972      550.21698      548.47613      550.64605      94.649964      69.611398     -116.59257      17.678828      17.679318      17.683297      5526.9077    
        87   0             -2180.7687     -6.067341      -5.9948283     -5.8116872     -6.3955074      94.835183      69.49887      -116.18792      17.680603      17.68109       17.685076      5528.5727    
        88   0             -2180.837       706.59566      699.63136      696.94787      723.20774      90.964426      68.643807     -97.184162      17.679107      17.679719      17.683297      5527.1203    
        89   0             -2180.8382      160.91836      154.46514      153.70557      174.58437      91.152566      68.54004      -96.809267      17.680831      17.681437      17.685076      5528.7525    
        90   0             -2180.8389     -353.24459     -356.62734     -355.44186     -347.66455      91.306708      68.435907     -96.452143      17.682405      17.683004      17.686855      5530.2909    
        91   0             -2180.8407      177.41095      180.07414      179.70775      172.45097      90.942958      68.484452     -96.05766       17.680626      17.681228      17.685412      5528.7283    
        92   0             -2180.8425     -362.03596     -358.7234      -357.18109     -370.20339      91.036911      68.358107     -95.316889      17.682339      17.682937      17.687191      5530.3547    
        93   0             -2180.8445      194.41552      197.26416      196.83803      189.14437      90.671442      68.415481     -94.847213      17.680607      17.681215      17.685412      5528.7184    
        94   0             -2180.8473     -337.48343     -338.11505     -336.86087     -337.47437      90.720536      68.280222     -93.833118      17.682385      17.682994      17.687015      5530.3316    
        95   0             -2180.8494      211.31356      209.55668      208.83872      215.54528      90.350683      68.334108     -93.323096      17.680692      17.681311      17.685236      5528.7195    
        96   0             -2180.8527     -335.15803     -337.28677     -336.11172     -332.0756       90.352098      68.179931     -92.121361      17.682461      17.683079      17.687015      5530.3819    
        97   0             -2180.855       227.85037      226.85296      226.11607      230.58208      89.943289      68.225602     -91.521737      17.680682      17.681309      17.685283      5528.7306    
        98   0             -2180.8585     -296.46427     -296.11504     -294.95397     -298.32381      89.90809       68.066162     -90.238005      17.68235       17.682975      17.687062      5530.3296    
        99   0             -2180.861       268.2117       269.52204      268.75021      266.36285      89.483844      68.108123     -89.583192      17.680571      17.681205      17.68532       5528.6753    
       100   0             -2180.8648     -278.08493     -277.37087     -276.26556     -280.61836      89.439976      67.939298     -88.178553      17.68235       17.682984      17.687097      5530.3435    
Loop time of 0.11672 on 1 procs for 100 steps with 500 atoms

93.7% CPU use with 1 MPI tasks x 1 OpenMP threads

Minimization stats:
  Stopping criterion = max iterations
  Energy initial, next-to-last, final = 
     -2179.59868242403  -2180.86095001727  -2180.86480632743
  Force two-norm initial, final = 204.896 2.6206129
  Force max component initial, final = 118.6119 0.97426526
  Final line search alpha, max atom move = 0.0002366594 0.00023056903
  Iterations, force evaluations = 100 100

MPI task timing breakdown:
Section |  min time  |  avg time  |  max time  |%varavg| %total
---------------------------------------------------------------
Pair    | 0.10903    | 0.10903    | 0.10903    |   0.0 | 93.41
Neigh   | 0          | 0          | 0          |   0.0 |  0.00
Comm    | 0.000598   | 0.000598   | 0.000598   |   0.0 |  0.51
Output  | 0.001395   | 0.001395   | 0.001395   |   0.0 |  1.20
Modify  | 0          | 0          | 0          |   0.0 |  0.00
Other   |            | 0.005699   |            |       |  4.88

Nlocal:            500 ave         500 max         500 min
Histogram: 1 0 0 0 0 0 0 0 0 0
Nghost:           1956 ave        1956 max        1956 min
Histogram: 1 0 0 0 0 0 0 0 0 0
Neighs:          33500 ave       33500 max       33500 min
Histogram: 1 0 0 0 0 0 0 0 0 0

Total # of neighbors = 33500
Ave neighs/atom = 67
Neighbor list builds = 0
Dangerous builds = 0
Displacing atoms ...
System init for write_restart ...
OMP_NUM_THREADS environment is not set. Defaulting to 1 thread. (src/comm.cpp:98)
  using 1 OpenMP thread(s) per MPI task
Loaded 1 plugins from F:\Lammps\LAMMPS 64-bit 2Aug2023\plugins

The 'box' command has been removed and will be ignored

Reading restart file ...
  restart file = 2 Aug 2023, LAMMPS = 2 Aug 2023
  restoring atom style atomic from restart
  triclinic box = (0.05382483 0.05350794 0.051451507) to (17.736175 17.736492 17.738548) with tilt (0 0 0)
  1 by 1 by 1 MPI processor grid
  pair style eam/alloy stores no restart info
  500 atoms
  read_restart CPU = 0.000 seconds
Changing box ...
  triclinic box = (0.05382483 0.05350794 0.051451507) to (17.736157 17.736492 17.738548) with tilt (0 0 0)
  triclinic box = (0.05382483 0.05350794 0.051451507) to (17.736157 17.736492 17.738548) with tilt (0 0 0)
  triclinic box = (0.05382483 0.05350794 0.051451507) to (17.736157 17.736492 17.738548) with tilt (0 0 0)
Neighbor list info ...
  update: every = 1 steps, delay = 0 steps, check = yes
  max neighbors/atom: 2000, page size: 100000
  master list distance cutoff = 6.80375
  ghost atom cutoff = 6.80375
  1 neighbor lists, perpetual/occasional/extra = 1 0 0
  (1) pair eam/alloy, perpetual
      attributes: half, newton on
      pair build: half/nsq/newton
      stencil: none
      bin: none
Setting up cg style minimization ...
  Unit style    : metal
  Current step  : 100
Per MPI rank memory allocation (min/avg/max) = 4.482 | 4.482 | 4.482 Mbytes
   Step          Temp          PotEng         Press           Pxx            Pyy            Pzz            Pxy            Pxz            Pyz             Lx             Ly             Lz           Volume    
       100   0             -2180.8648     -276.13911     -274.82999     -274.63185     -278.9555       89.425042      67.968359     -88.210261      17.682333      17.682984      17.687097      5530.3379    
       101   0             -2181.0245      602.1172       592.4597       600.3831       613.5088       69.582129      60.81324      -7.3170295      17.682333      17.682984      17.687097      5530.3379    
       102   0             -2181.0862      1154.1045      1151.3841      1144.1325      1166.797       31.08964       50.105905      68.316463      17.682333      17.682984      17.687097      5530.3379    
       103   0             -2181.105       1111.8881      1133.2455      1097.6051      1104.8136      9.4991785      31.539397      82.839395      17.682333      17.682984      17.687097      5530.3379    
       104   0             -2181.1101      1174.1791      1199.1895      1165.8825      1157.4651     -1.4105632      28.875554      96.906579      17.682333      17.682984      17.687097      5530.3379    
       105   0             -2181.1118      1223.6688      1245.2555      1221.7519      1203.999      -5.1954669      25.559912      101.25218      17.682333      17.682984      17.687097      5530.3379    
       106   0             -2181.1126      1163.3513      1183.7577      1164.974       1141.3221     -7.2017057      26.345216      95.99277       17.682333      17.682984      17.687097      5530.3379    
       107   0             -2181.1127      1157.4715      1177.7287      1157.7311      1136.9548     -6.4337528      26.377577      95.236441      17.682333      17.682984      17.687097      5530.3379    
       108   0             -2181.1128      1171.9147      1191.2929      1171.0531      1153.398      -6.7151143      27.498135      96.157114      17.682333      17.682984      17.687097      5530.3379    
       109   0             -2181.1128      1172.3577      1190.7222      1172.462       1153.889      -6.5840549      28.084577      96.288115      17.682333      17.682984      17.687097      5530.3379    
       110   0             -2181.1128      1169.5529      1188.1029      1170.0066      1150.5491     -6.4107862      27.797984      96.072602      17.682333      17.682984      17.687097      5530.3379    
       111   0             -2181.1129      1166.8281      1185.5208      1167.4184      1147.545      -5.8977382      27.379167      95.483522      17.682333      17.682984      17.687097      5530.3379    
       112   0             -2181.1129      1167.0173      1185.7497      1167.7855      1147.5169     -5.5646524      27.470242      95.287064      17.682333      17.682984      17.687097      5530.3379    
       113   0             -2181.1129      1169.2121      1188.2236      1169.791       1149.6218     -5.9292359      27.501173      95.404164      17.682333      17.682984      17.687097      5530.3379    
       114   0             -2181.1129      1169.2067      1188.2983      1169.7588      1149.563      -6.0227408      27.736336      95.482603      17.682333      17.682984      17.687097      5530.3379    
       115   0             -2181.1129      1168.2284      1187.2984      1168.9225      1148.4644     -5.986577       27.858252      95.459521      17.682333      17.682984      17.687097      5530.3379    
       116   0             -2181.1129      1168.2011      1187.2721      1168.9451      1148.3861     -5.9983036      27.746063      95.373962      17.682333      17.682984      17.687097      5530.3379    
       117   0             -2181.1129      1168.4025      1187.4152      1169.1663      1148.626      -6.0458811      27.694437      95.440131      17.682333      17.682984      17.687097      5530.3379    
       118   0             -2181.1129      1168.5277      1187.5135      1169.311       1148.7584     -6.0439443      27.697241      95.496523      17.682333      17.682984      17.687097      5530.3379    
       119   0             -2181.1129      1168.5363      1187.5126      1169.3206      1148.7756     -6.0295457      27.697311      95.503419      17.682333      17.682984      17.687097      5530.3379    
       120   0             -2181.1129      1168.4164      1187.398       1169.2035      1148.6478     -6.0213567      27.709356      95.484899      17.682333      17.682984      17.687097      5530.3379    
       121   0             -2181.1129      1168.4393      1187.4285      1169.2197      1148.6698     -6.0270457      27.710743      95.485422      17.682333      17.682984      17.687097      5530.3379    
       122   0             -2181.1129      1168.48        1187.4779      1169.2588      1148.7034     -6.0236198      27.70463       95.504343      17.682333      17.682984      17.687097      5530.3379    
       123   0             -2181.1129      1168.4564      1187.4541      1169.235       1148.6803     -6.0209115      27.69188       95.509294      17.682333      17.682984      17.687097      5530.3379    
       124   0             -2181.1129      1168.4295      1187.4281      1169.2123      1148.6481     -6.0215977      27.693891      95.509147      17.682333      17.682984      17.687097      5530.3379    
       125   0             -2181.1129      1168.4241      1187.4225      1169.2068      1148.6432     -6.0214386      27.6956        95.510456      17.682333      17.682984      17.687097      5530.3379    
       126   0             -2181.1129      1168.4289      1187.4255      1169.2105      1148.6506     -6.0224803      27.693679      95.512987      17.682333      17.682984      17.687097      5530.3379    
       127   0             -2181.1129      1168.4339      1187.4294      1169.2162      1148.6559     -6.0227226      27.693028      95.512602      17.682333      17.682984      17.687097      5530.3379    
       128   0             -2181.1129      1168.4323      1187.4258      1169.2161      1148.6551     -6.0223156      27.692387      95.51307       17.682333      17.682984      17.687097      5530.3379    
       129   0             -2181.1129      1168.4313      1187.4239      1169.2159      1148.6539     -6.0223731      27.692923      95.512852      17.682333      17.682984      17.687097      5530.3379    
       130   0             -2181.1129      1168.4318      1187.4245      1169.2165      1148.6544     -6.0221118      27.693175      95.512995      17.682333      17.682984      17.687097      5530.3379    
       131   0             -2181.1129      1168.4323      1187.4251      1169.217       1148.6549     -6.0219622      27.693049      95.512939      17.682333      17.682984      17.687097      5530.3379    
       132   0             -2181.1129      1168.4328      1187.4254      1169.2174      1148.6556     -6.0219984      27.693363      95.512727      17.682333      17.682984      17.687097      5530.3379    
       133   0             -2181.1129      1168.4321      1187.4247      1169.2167      1148.655      -6.0221043      27.693573      95.512692      17.682333      17.682984      17.687097      5530.3379    
       134   0             -2181.1129      1168.4321      1187.4248      1169.2165      1148.6551     -6.0220747      27.69346       95.512692      17.682333      17.682984      17.687097      5530.3379    
       135   0             -2181.1129      1168.4323      1187.4249      1169.2167      1148.6552     -6.0221366      27.693476      95.51276       17.682333      17.682984      17.687097      5530.3379    
       136   0             -2181.1129      1168.4323      1187.425       1169.2167      1148.6552     -6.0221145      27.693485      95.512745      17.682333      17.682984      17.687097      5530.3379    
       137   0             -2181.1129      1168.4322      1187.4249      1169.2166      1148.6551     -6.0221104      27.69347       95.512735      17.682333      17.682984      17.687097      5530.3379    
       138   0             -2181.1129      1168.4322      1187.4249      1169.2166      1148.6551     -6.0221083      27.693459      95.512734      17.682333      17.682984      17.687097      5530.3379    
       139   0             -2181.1129      1168.4322      1187.4249      1169.2165      1148.6552     -6.0221084      27.693452      95.512732      17.682333      17.682984      17.687097      5530.3379    
       140   0             -2181.1129      1168.4322      1187.4249      1169.2165      1148.6552     -6.0221044      27.693452      95.512728      17.682333      17.682984      17.687097      5530.3379    
       141   0             -2181.1129      1168.4322      1187.4249      1169.2165      1148.6552     -6.0221038      27.693448      95.512724      17.682333      17.682984      17.687097      5530.3379    
       142   0             -2181.1129      1168.4322      1187.4249      1169.2165      1148.6552     -6.0221057      27.693445      95.512723      17.682333      17.682984      17.687097      5530.3379    
       143   0             -2181.1129      1168.4322      1187.4249      1169.2165      1148.6552     -6.0221072      27.693446      95.512722      17.682333      17.682984      17.687097      5530.3379    
       144   0             -2181.1129      1168.4322      1187.4249      1169.2165      1148.6552     -6.0221065      27.693445      95.512719      17.682333      17.682984      17.687097      5530.3379    
       145   0             -2181.1129      1168.4322      1187.4249      1169.2165      1148.6552     -6.022106       27.693445      95.512718      17.682333      17.682984      17.687097      5530.3379    
       146   0             -2181.1129      1168.4322      1187.4249      1169.2165      1148.6552     -6.0221061      27.693446      95.512718      17.682333      17.682984      17.687097      5530.3379    
       147   0             -2181.1129      1168.4322      1187.4249      1169.2165      1148.6552     -6.0221057      27.693446      95.512718      17.682333      17.682984      17.687097      5530.3379    
       148   0             -2181.1129      1168.4322      1187.4249      1169.2165      1148.6552     -6.0221063      27.693446      95.512718      17.682333      17.682984      17.687097      5530.3379    
       149   0             -2181.1129      1168.4322      1187.4249      1169.2165      1148.6552     -6.0221063      27.693447      95.512718      17.682333      17.682984      17.687097      5530.3379    
       150   0             -2181.1129      1168.4322      1187.4249      1169.2165      1148.6552     -6.022106       27.693447      95.512719      17.682333      17.682984      17.687097      5530.3379    
       151   0             -2181.1129      1168.4322      1187.4249      1169.2165      1148.6552     -6.0221058      27.693447      95.512719      17.682333      17.682984      17.687097      5530.3379    
       152   0             -2181.1129      1168.4322      1187.4249      1169.2165      1148.6552     -6.0221059      27.693447      95.512719      17.682333      17.682984      17.687097      5530.3379    
       153   0             -2181.1129      1168.4322      1187.4249      1169.2165      1148.6552     -6.022106       27.693447      95.512719      17.682333      17.682984      17.687097      5530.3379    
       154   0             -2181.1129      1168.4322      1187.4249      1169.2165      1148.6552     -6.0221061      27.693447      95.512719      17.682333      17.682984      17.687097      5530.3379    
       155   0             -2181.1129      1168.4322      1187.4249      1169.2165      1148.6552     -6.022106       27.693447      95.512719      17.682333      17.682984      17.687097      5530.3379    
       156   0             -2181.1129      1168.4322      1187.4249      1169.2165      1148.6552     -6.022106       27.693447      95.512719      17.682333      17.682984      17.687097      5530.3379    
       157   0             -2181.1129      1168.4322      1187.4249      1169.2165      1148.6552     -6.022106       27.693447      95.512719      17.682333      17.682984      17.687097      5530.3379    
       158   0             -2181.1129      1168.4322      1187.4249      1169.2165      1148.6552     -6.022106       27.693447      95.512719      17.682333      17.682984      17.687097      5530.3379    
       159   0             -2181.1129      1168.4322      1187.4249      1169.2165      1148.6552     -6.022106       27.693447      95.512719      17.682333      17.682984      17.687097      5530.3379    
       160   0             -2181.1129      1168.4322      1187.4249      1169.2165      1148.6552     -6.022106       27.693447      95.512719      17.682333      17.682984      17.687097      5530.3379    
       161   0             -2181.1129      1168.4322      1187.4249      1169.2165      1148.6552     -6.022106       27.693447      95.512719      17.682333      17.682984      17.687097      5530.3379    
Loop time of 0.141563 on 1 procs for 61 steps with 500 atoms

99.3% CPU use with 1 MPI tasks x 1 OpenMP threads

Minimization stats:
  Stopping criterion = force tolerance
  Energy initial, next-to-last, final = 
     -2180.86480844646  -2181.11287462953  -2181.11287462954
  Force two-norm initial, final = 2.0174294 6.0956285e-11
  Force max component initial, final = 0.18064783 7.8154471e-12
  Final line search alpha, max atom move = 1 7.8154471e-12
  Iterations, force evaluations = 61 120

MPI task timing breakdown:
Section |  min time  |  avg time  |  max time  |%varavg| %total
---------------------------------------------------------------
Pair    | 0.13898    | 0.13898    | 0.13898    |   0.0 | 98.17
Neigh   | 0          | 0          | 0          |   0.0 |  0.00
Comm    | 0.000704   | 0.000704   | 0.000704   |   0.0 |  0.50
Output  | 0.000921   | 0.000921   | 0.000921   |   0.0 |  0.65
Modify  | 0          | 0          | 0          |   0.0 |  0.00
Other   |            | 0.000959   |            |       |  0.68

Nlocal:            500 ave         500 max         500 min
Histogram: 1 0 0 0 0 0 0 0 0 0
Nghost:           1956 ave        1956 max        1956 min
Histogram: 1 0 0 0 0 0 0 0 0 0
Neighs:          33500 ave       33500 max       33500 min
Histogram: 1 0 0 0 0 0 0 0 0 0

Total # of neighbors = 33500
Ave neighs/atom = 67
Neighbor list builds = 0
Dangerous builds = 0
OMP_NUM_THREADS environment is not set. Defaulting to 1 thread. (src/comm.cpp:98)
  using 1 OpenMP thread(s) per MPI task
Loaded 1 plugins from F:\Lammps\LAMMPS 64-bit 2Aug2023\plugins

The 'box' command has been removed and will be ignored

Reading restart file ...
  restart file = 2 Aug 2023, LAMMPS = 2 Aug 2023
  restoring atom style atomic from restart
  triclinic box = (0.05382483 0.05350794 0.051451507) to (17.736175 17.736492 17.738548) with tilt (0 0 0)
  1 by 1 by 1 MPI processor grid
  pair style eam/alloy stores no restart info
  500 atoms
  read_restart CPU = 0.000 seconds
Changing box ...
  triclinic box = (0.05382483 0.05350794 0.051451507) to (17.736193 17.736492 17.738548) with tilt (0 0 0)
  triclinic box = (0.05382483 0.05350794 0.051451507) to (17.736193 17.736492 17.738548) with tilt (0 0 0)
  triclinic box = (0.05382483 0.05350794 0.051451507) to (17.736193 17.736492 17.738548) with tilt (0 0 0)
Neighbor list info ...
  update: every = 1 steps, delay = 0 steps, check = yes
  max neighbors/atom: 2000, page size: 100000
  master list distance cutoff = 6.80375
  ghost atom cutoff = 6.80375
  1 neighbor lists, perpetual/occasional/extra = 1 0 0
  (1) pair eam/alloy, perpetual
      attributes: half, newton on
      pair build: half/nsq/newton
      stencil: none
      bin: none
Setting up cg style minimization ...
  Unit style    : metal
  Current step  : 100
Per MPI rank memory allocation (min/avg/max) = 4.482 | 4.482 | 4.482 Mbytes
   Step          Temp          PotEng         Press           Pxx            Pyy            Pzz            Pxy            Pxz            Pyz             Lx             Ly             Lz           Volume    
       100   0             -2180.8648     -279.85701     -279.77278     -277.72889     -282.06937      89.427013      67.967972     -88.208982      17.682368      17.682984      17.687097      5530.349     
       101   0             -2181.0245      598.38683      587.50862      597.27089      610.38097      69.585263      60.814346     -7.3193458      17.682368      17.682984      17.687097      5530.349     
       102   0             -2181.0862      1150.4287      1146.4854      1141.0744      1163.7263      31.095518      50.10778       68.318019      17.682368      17.682984      17.687097      5530.349     
       103   0             -2181.105       1108.2193      1128.3582      1094.5509      1101.7488      9.4979978      31.542736      82.847482      17.682368      17.682984      17.687097      5530.349     
       104   0             -2181.1101      1170.5666      1194.357       1162.8842      1154.4587     -1.409493       28.877609      96.916885      17.682368      17.682984      17.687097      5530.349     
       105   0             -2181.1118      1220.0083      1240.3741      1218.7071      1200.9438     -5.1912232      25.562488      101.25742      17.682368      17.682984      17.687097      5530.349     
       106   0             -2181.1126      1159.6783      1178.8647      1161.9167      1138.2534     -7.1982017      26.347868      95.997453      17.682368      17.682984      17.687097      5530.349     
       107   0             -2181.1127      1153.8135      1172.8512      1154.6878      1133.9014     -6.4308752      26.379951      95.242175      17.682368      17.682984      17.687097      5530.349     
       108   0             -2181.1128      1168.257       1186.4154      1168.0106      1150.345      -6.7125021      27.500694      96.163054      17.682368      17.682984      17.687097      5530.349     
       109   0             -2181.1128      1168.6979      1185.843       1169.4174      1150.8335     -6.5813868      28.087114      96.293833      17.682368      17.682984      17.687097      5530.349     
       110   0             -2181.1129      1165.8929      1183.2238      1166.9617      1147.4933     -6.4077997      27.80054       96.07801       17.682368      17.682984      17.687097      5530.349     
       111   0             -2181.1129      1163.1671      1180.6408      1164.3723      1144.4883     -5.8948698      27.381851      95.488906      17.682368      17.682984      17.687097      5530.349     
       112   0             -2181.1129      1163.3586      1180.8721      1164.7414      1144.4622     -5.5620047      27.472787      95.292713      17.682368      17.682984      17.687097      5530.349     
       113   0             -2181.1129      1165.5538      1183.3465      1166.7474      1146.5676     -5.9265506      27.503602      95.409804      17.682368      17.682984      17.687097      5530.349     
       114   0             -2181.1129      1165.5467      1183.4195      1166.7136      1146.507      -6.0200329      27.738946      95.488129      17.682368      17.682984      17.687097      5530.349     
       115   0             -2181.1129      1164.5688      1182.42        1165.8775      1145.4088     -5.9838597      27.860805      95.465037      17.682368      17.682984      17.687097      5530.349     
       116   0             -2181.1129      1164.5418      1182.394       1165.9005      1145.3308     -5.9955725      27.748582      95.379513      17.682368      17.682984      17.687097      5530.349     
       117   0             -2181.1129      1164.7431      1182.537       1166.1216      1145.5707     -6.0431804      27.696967      95.445698      17.682368      17.682984      17.687097      5530.349     
       118   0             -2181.1129      1164.8683      1182.6354      1166.2664      1145.7031     -6.0412438      27.69979       95.50209       17.682368      17.682984      17.687097      5530.349     
       119   0             -2181.1129      1164.8768      1182.6343      1166.2758      1145.7202     -6.0268282      27.699867      95.508972      17.682368      17.682984      17.687097      5530.349     
       120   0             -2181.1129      1164.757       1182.5198      1166.1588      1145.5924     -6.0186493      27.7119        95.49045       17.682368      17.682984      17.687097      5530.349     
       121   0             -2181.1129      1164.78        1182.5504      1166.1751      1145.6145     -6.0243446      27.71328       95.490982      17.682368      17.682984      17.687097      5530.349     
       122   0             -2181.1129      1164.8206      1182.5997      1166.2141      1145.6481     -6.0209183      27.707172      95.509905      17.682368      17.682984      17.687097      5530.349     
       123   0             -2181.1129      1164.797       1182.5759      1166.1903      1145.625      -6.0182084      27.694424      95.514852      17.682368      17.682984      17.687097      5530.349     
       124   0             -2181.1129      1164.7701      1182.5499      1166.1676      1145.5927     -6.0188951      27.696435      95.514704      17.682368      17.682984      17.687097      5530.349     
       125   0             -2181.1129      1164.7647      1182.5443      1166.1621      1145.5878     -6.0187359      27.698143      95.516013      17.682368      17.682984      17.687097      5530.349     
       126   0             -2181.1129      1164.7695      1182.5473      1166.1658      1145.5953     -6.0197774      27.696222      95.518543      17.682368      17.682984      17.687097      5530.349     
       127   0             -2181.1129      1164.7744      1182.5512      1166.1715      1145.6006     -6.0200197      27.695572      95.518159      17.682368      17.682984      17.687097      5530.349     
       128   0             -2181.1129      1164.7729      1182.5476      1166.1714      1145.5997     -6.0196135      27.69493       95.518627      17.682368      17.682984      17.687097      5530.349     
       129   0             -2181.1129      1164.7719      1182.5457      1166.1712      1145.5986     -6.0196711      27.695466      95.518409      17.682368      17.682984      17.687097      5530.349     
       130   0             -2181.1129      1164.7724      1182.5463      1166.1718      1145.5991     -6.0194093      27.695718      95.518552      17.682368      17.682984      17.687097      5530.349     
       131   0             -2181.1129      1164.7729      1182.5469      1166.1723      1145.5995     -6.0192602      27.695593      95.518496      17.682368      17.682984      17.687097      5530.349     
       132   0             -2181.1129      1164.7734      1182.5473      1166.1727      1145.6002     -6.0192964      27.695906      95.518283      17.682368      17.682984      17.687097      5530.349     
       133   0             -2181.1129      1164.7727      1182.5465      1166.172       1145.5997     -6.0194021      27.696117      95.518248      17.682368      17.682984      17.687097      5530.349     
       134   0             -2181.1129      1164.7727      1182.5466      1166.1718      1145.5998     -6.0193727      27.696003      95.518249      17.682368      17.682984      17.687097      5530.349     
       135   0             -2181.1129      1164.7729      1182.5467      1166.172       1145.5999     -6.0194345      27.696019      95.518316      17.682368      17.682984      17.687097      5530.349     
       136   0             -2181.1129      1164.7729      1182.5468      1166.172       1145.5998     -6.0194123      27.696028      95.518301      17.682368      17.682984      17.687097      5530.349     
       137   0             -2181.1129      1164.7728      1182.5467      1166.1719      1145.5998     -6.0194083      27.696014      95.518291      17.682368      17.682984      17.687097      5530.349     
       138   0             -2181.1129      1164.7728      1182.5467      1166.1719      1145.5998     -6.0194062      27.696003      95.51829       17.682368      17.682984      17.687097      5530.349     
       139   0             -2181.1129      1164.7728      1182.5467      1166.1718      1145.5998     -6.0194063      27.695996      95.518288      17.682368      17.682984      17.687097      5530.349     
       140   0             -2181.1129      1164.7728      1182.5467      1166.1718      1145.5998     -6.0194023      27.695996      95.518284      17.682368      17.682984      17.687097      5530.349     
       141   0             -2181.1129      1164.7728      1182.5467      1166.1718      1145.5998     -6.0194017      27.695991      95.51828       17.682368      17.682984      17.687097      5530.349     
       142   0             -2181.1129      1164.7728      1182.5467      1166.1718      1145.5998     -6.0194035      27.695989      95.518279      17.682368      17.682984      17.687097      5530.349     
       143   0             -2181.1129      1164.7728      1182.5468      1166.1718      1145.5998     -6.0194051      27.69599       95.518278      17.682368      17.682984      17.687097      5530.349     
       144   0             -2181.1129      1164.7728      1182.5468      1166.1718      1145.5998     -6.0194044      27.695989      95.518276      17.682368      17.682984      17.687097      5530.349     
       145   0             -2181.1129      1164.7728      1182.5468      1166.1718      1145.5998     -6.0194039      27.695989      95.518275      17.682368      17.682984      17.687097      5530.349     
       146   0             -2181.1129      1164.7728      1182.5468      1166.1718      1145.5998     -6.019404       27.69599       95.518275      17.682368      17.682984      17.687097      5530.349     
       147   0             -2181.1129      1164.7728      1182.5468      1166.1718      1145.5998     -6.0194035      27.69599       95.518275      17.682368      17.682984      17.687097      5530.349     
       148   0             -2181.1129      1164.7728      1182.5468      1166.1718      1145.5998     -6.0194041      27.69599       95.518275      17.682368      17.682984      17.687097      5530.349     
       149   0             -2181.1129      1164.7728      1182.5468      1166.1718      1145.5998     -6.0194042      27.69599       95.518275      17.682368      17.682984      17.687097      5530.349     
       150   0             -2181.1129      1164.7728      1182.5468      1166.1718      1145.5998     -6.0194038      27.69599       95.518275      17.682368      17.682984      17.687097      5530.349     
       151   0             -2181.1129      1164.7728      1182.5468      1166.1718      1145.5998     -6.0194037      27.69599       95.518275      17.682368      17.682984      17.687097      5530.349     
       152   0             -2181.1129      1164.7728      1182.5468      1166.1718      1145.5998     -6.0194038      27.69599       95.518275      17.682368      17.682984      17.687097      5530.349     
       153   0             -2181.1129      1164.7728      1182.5468      1166.1718      1145.5998     -6.0194039      27.69599       95.518276      17.682368      17.682984      17.687097      5530.349     
       154   0             -2181.1129      1164.7728      1182.5468      1166.1718      1145.5998     -6.0194039      27.69599       95.518276      17.682368      17.682984      17.687097      5530.349     
       155   0             -2181.1129      1164.7728      1182.5468      1166.1718      1145.5998     -6.0194039      27.69599       95.518276      17.682368      17.682984      17.687097      5530.349     
       156   0             -2181.1129      1164.7728      1182.5468      1166.1718      1145.5998     -6.0194039      27.69599       95.518276      17.682368      17.682984      17.687097      5530.349     
       157   0             -2181.1129      1164.7728      1182.5468      1166.1718      1145.5998     -6.0194039      27.69599       95.518276      17.682368      17.682984      17.687097      5530.349     
       158   0             -2181.1129      1164.7728      1182.5468      1166.1718      1145.5998     -6.0194039      27.69599       95.518276      17.682368      17.682984      17.687097      5530.349     
       159   0             -2181.1129      1164.7728      1182.5468      1166.1718      1145.5998     -6.0194039      27.69599       95.518276      17.682368      17.682984      17.687097      5530.349     
       160   0             -2181.1129      1164.7728      1182.5468      1166.1718      1145.5998     -6.0194039      27.69599       95.518276      17.682368      17.682984      17.687097      5530.349     
       161   0             -2181.1129      1164.7728      1182.5468      1166.1718      1145.5998     -6.0194039      27.69599       95.518276      17.682368      17.682984      17.687097      5530.349     
Loop time of 0.143847 on 1 procs for 61 steps with 500 atoms

108.6% CPU use with 1 MPI tasks x 1 OpenMP threads

Minimization stats:
  Stopping criterion = force tolerance
  Energy initial, next-to-last, final = 
     -2180.86480653209  -2181.11288281014  -2181.11288281015
  Force two-norm initial, final = 2.0174787 6.0951775e-11
  Force max component initial, final = 0.18065797 7.7825793e-12
  Final line search alpha, max atom move = 1 7.7825793e-12
  Iterations, force evaluations = 61 120

MPI task timing breakdown:
Section |  min time  |  avg time  |  max time  |%varavg| %total
---------------------------------------------------------------
Pair    | 0.14117    | 0.14117    | 0.14117    |   0.0 | 98.14
Neigh   | 0          | 0          | 0          |   0.0 |  0.00
Comm    | 0.000723   | 0.000723   | 0.000723   |   0.0 |  0.50
Output  | 0.000899   | 0.000899   | 0.000899   |   0.0 |  0.62
Modify  | 0          | 0          | 0          |   0.0 |  0.00
Other   |            | 0.001055   |            |       |  0.73

Nlocal:            500 ave         500 max         500 min
Histogram: 1 0 0 0 0 0 0 0 0 0
Nghost:           1956 ave        1956 max        1956 min
Histogram: 1 0 0 0 0 0 0 0 0 0
Neighs:          33500 ave       33500 max       33500 min
Histogram: 1 0 0 0 0 0 0 0 0 0

Total # of neighbors = 33500
Ave neighs/atom = 67
Neighbor list builds = 0
Dangerous builds = 0
OMP_NUM_THREADS environment is not set. Defaulting to 1 thread. (src/comm.cpp:98)
  using 1 OpenMP thread(s) per MPI task
Loaded 1 plugins from F:\Lammps\LAMMPS 64-bit 2Aug2023\plugins

The 'box' command has been removed and will be ignored

Reading restart file ...
  restart file = 2 Aug 2023, LAMMPS = 2 Aug 2023
  restoring atom style atomic from restart
  triclinic box = (0.05382483 0.05350794 0.051451507) to (17.736175 17.736492 17.738548) with tilt (0 0 0)
  1 by 1 by 1 MPI processor grid
  pair style eam/alloy stores no restart info
  500 atoms
  read_restart CPU = 0.000 seconds
Changing box ...
  triclinic box = (0.05382483 0.05350794 0.051451507) to (17.736175 17.736474 17.738548) with tilt (0 0 0)
  triclinic box = (0.05382483 0.05350794 0.051451507) to (17.736175 17.736474 17.738548) with tilt (0 0 0)
Neighbor list info ...
  update: every = 1 steps, delay = 0 steps, check = yes
  max neighbors/atom: 2000, page size: 100000
  master list distance cutoff = 6.80375
  ghost atom cutoff = 6.80375
  1 neighbor lists, perpetual/occasional/extra = 1 0 0
  (1) pair eam/alloy, perpetual
      attributes: half, newton on
      pair build: half/nsq/newton
      stencil: none
      bin: none
Setting up cg style minimization ...
  Unit style    : metal
  Current step  : 100
Per MPI rank memory allocation (min/avg/max) = 4.482 | 4.482 | 4.482 Mbytes
   Step          Temp          PotEng         Press           Pxx            Pyy            Pzz            Pxy            Pxz            Pyz             Lx             Ly             Lz           Volume    
       100   0             -2180.8648     -276.14447     -275.75286     -273.71952     -278.96105      89.424079      67.968105     -88.20973       17.68235       17.682966      17.687097      5530.3379    
       101   0             -2181.0245      602.10002      591.52845      601.28039      613.49122      69.581493      60.814079     -7.3159938      17.68235       17.682966      17.687097      5530.3379    
       102   0             -2181.0862      1154.1009      1150.4655      1145.0444      1166.7928      31.088787      50.108045      68.319645      17.68235       17.682966      17.687097      5530.3379    
       103   0             -2181.105       1111.8766      1132.3211      1098.5082      1104.8005      9.4973301      31.542677      82.842222      17.68235       17.682966      17.687097      5530.3379    
       104   0             -2181.1101      1174.1819      1198.2785      1166.8009      1157.4663     -1.4124153      28.878521      96.910308      17.68235       17.682966      17.687097      5530.3379    
       105   0             -2181.1118      1223.6657      1244.3379      1222.665       1203.9941     -5.1965816      25.562877      101.25522      17.68235       17.682966      17.687097      5530.3379    
       106   0             -2181.1126      1163.3461      1182.8385      1165.8847      1141.3149     -7.2028857      26.348088      95.995778      17.68235       17.682966      17.687097      5530.3379    
       107   0             -2181.1127      1157.4686      1176.8119      1158.644       1136.9499     -6.4350345      26.38042       95.239455      17.68235       17.682966      17.687097      5530.3379    
       108   0             -2181.1128      1171.9112      1190.3754      1171.9656      1153.3924     -6.716419       27.501047      96.16011       17.68235       17.682966      17.687097      5530.3379    
       109   0             -2181.1128      1172.3542      1189.8049      1173.3743      1153.8833     -6.5853901      28.087477      96.29107       17.68235       17.682966      17.687097      5530.3379    
       110   0             -2181.1128      1169.5497      1187.1861      1170.9192      1150.5438     -6.412105       27.80088       96.075555      17.68235       17.682966      17.687097      5530.3379    
       111   0             -2181.1129      1166.8245      1184.6037      1168.3306      1147.5393     -5.8990607      27.382084      95.486426      17.68235       17.682966      17.687097      5530.3379    
       112   0             -2181.1129      1167.0141      1184.8329      1168.6979      1147.5114     -5.5659844      27.473153      95.289985      17.68235       17.682966      17.687097      5530.3379    
       113   0             -2181.1129      1169.209       1187.307       1170.7035      1149.6164     -5.9305641      27.504055      95.407079      17.68235       17.682966      17.687097      5530.3379    
       114   0             -2181.1129      1169.2033      1187.3815      1170.6712      1149.5574     -6.0240545      27.739248      95.485496      17.68235       17.682966      17.687097      5530.3379    
       115   0             -2181.1129      1168.2251      1186.3816      1169.8349      1148.4588     -5.987904       27.861148      95.462421      17.68235       17.682966      17.687097      5530.3379    
       116   0             -2181.1129      1168.1979      1186.3554      1169.8576      1148.3806     -5.9996313      27.748957      95.376868      17.68235       17.682966      17.687097      5530.3379    
       117   0             -2181.1129      1168.3992      1186.4985      1170.0788      1148.6204     -6.0472108      27.697336      95.443041      17.68235       17.682966      17.687097      5530.3379    
       118   0             -2181.1129      1168.5244      1186.5968      1170.2236      1148.7529     -6.0452752      27.700143      95.499432      17.68235       17.682966      17.687097      5530.3379    
       119   0             -2181.1129      1168.533       1186.5958      1170.2331      1148.7701     -6.0308748      27.700216      95.506328      17.68235       17.682966      17.687097      5530.3379    
       120   0             -2181.1129      1168.4132      1186.4813      1170.116       1148.6422     -6.0226862      27.712258      95.487809      17.68235       17.682966      17.687097      5530.3379    
       121   0             -2181.1129      1168.4361      1186.5118      1170.1323      1148.6643     -6.0283751      27.713643      95.488334      17.68235       17.682966      17.687097      5530.3379    
       122   0             -2181.1129      1168.4768      1186.5611      1170.1713      1148.6979     -6.0249485      27.707531      95.507256      17.68235       17.682966      17.687097      5530.3379    
       123   0             -2181.1129      1168.4532      1186.5373      1170.1475      1148.6748     -6.0222411      27.694781      95.512205      17.68235       17.682966      17.687097      5530.3379    
       124   0             -2181.1129      1168.4263      1186.5114      1170.1248      1148.6426     -6.022927       27.696791      95.512058      17.68235       17.682966      17.687097      5530.3379    
       125   0             -2181.1129      1168.4209      1186.5058      1170.1193      1148.6377     -6.0227682      27.6985        95.513366      17.68235       17.682966      17.687097      5530.3379    
       126   0             -2181.1129      1168.4256      1186.5088      1170.1231      1148.6451     -6.02381        27.696579      95.515897      17.68235       17.682966      17.687097      5530.3379    
       127   0             -2181.1129      1168.4306      1186.5127      1170.1288      1148.6504     -6.0240523      27.695929      95.515513      17.68235       17.682966      17.687097      5530.3379    
       128   0             -2181.1129      1168.4291      1186.5091      1170.1286      1148.6496     -6.0236454      27.695287      95.515981      17.68235       17.682966      17.687097      5530.3379    
       129   0             -2181.1129      1168.428       1186.5072      1170.1285      1148.6484     -6.023703       27.695823      95.515763      17.68235       17.682966      17.687097      5530.3379    
       130   0             -2181.1129      1168.4286      1186.5078      1170.129       1148.6489     -6.0234416      27.696075      95.515905      17.68235       17.682966      17.687097      5530.3379    
       131   0             -2181.1129      1168.4291      1186.5084      1170.1296      1148.6494     -6.0232921      27.69595       95.515849      17.68235       17.682966      17.687097      5530.3379    
       132   0             -2181.1129      1168.4296      1186.5087      1170.1299      1148.6501     -6.0233283      27.696263      95.515637      17.68235       17.682966      17.687097      5530.3379    
       133   0             -2181.1129      1168.4289      1186.508       1170.1292      1148.6495     -6.0234342      27.696474      95.515602      17.68235       17.682966      17.687097      5530.3379    
       134   0             -2181.1129      1168.4289      1186.508       1170.129       1148.6496     -6.0234046      27.69636       95.515602      17.68235       17.682966      17.687097      5530.3379    
       135   0             -2181.1129      1168.429       1186.5082      1170.1293      1148.6497     -6.0234665      27.696376      95.51567       17.68235       17.682966      17.687097      5530.3379    
       136   0             -2181.1129      1168.429       1186.5083      1170.1292      1148.6497     -6.0234443      27.696385      95.515655      17.68235       17.682966      17.687097      5530.3379    
       137   0             -2181.1129      1168.429       1186.5082      1170.1291      1148.6496     -6.0234403      27.696371      95.515645      17.68235       17.682966      17.687097      5530.3379    
       138   0             -2181.1129      1168.429       1186.5082      1170.1291      1148.6496     -6.0234382      27.69636       95.515644      17.68235       17.682966      17.687097      5530.3379    
       139   0             -2181.1129      1168.429       1186.5082      1170.1291      1148.6496     -6.0234383      27.696353      95.515642      17.68235       17.682966      17.687097      5530.3379    
       140   0             -2181.1129      1168.429       1186.5082      1170.1291      1148.6496     -6.0234343      27.696353      95.515638      17.68235       17.682966      17.687097      5530.3379    
       141   0             -2181.1129      1168.429       1186.5082      1170.1291      1148.6497     -6.0234337      27.696348      95.515634      17.68235       17.682966      17.687097      5530.3379    
       142   0             -2181.1129      1168.429       1186.5082      1170.1291      1148.6497     -6.0234355      27.696346      95.515633      17.68235       17.682966      17.687097      5530.3379    
       143   0             -2181.1129      1168.429       1186.5082      1170.1291      1148.6497     -6.0234371      27.696347      95.515632      17.68235       17.682966      17.687097      5530.3379    
       144   0             -2181.1129      1168.429       1186.5082      1170.1291      1148.6497     -6.0234364      27.696346      95.515629      17.68235       17.682966      17.687097      5530.3379    
       145   0             -2181.1129      1168.429       1186.5082      1170.1291      1148.6497     -6.0234359      27.696346      95.515629      17.68235       17.682966      17.687097      5530.3379    
       146   0             -2181.1129      1168.429       1186.5082      1170.1291      1148.6497     -6.023436       27.696347      95.515628      17.68235       17.682966      17.687097      5530.3379    
       147   0             -2181.1129      1168.429       1186.5082      1170.1291      1148.6497     -6.0234355      27.696347      95.515628      17.68235       17.682966      17.687097      5530.3379    
       148   0             -2181.1129      1168.429       1186.5082      1170.1291      1148.6497     -6.0234361      27.696347      95.515628      17.68235       17.682966      17.687097      5530.3379    
       149   0             -2181.1129      1168.429       1186.5082      1170.1291      1148.6497     -6.0234362      27.696347      95.515628      17.68235       17.682966      17.687097      5530.3379    
       150   0             -2181.1129      1168.429       1186.5082      1170.1291      1148.6497     -6.0234359      27.696347      95.515629      17.68235       17.682966      17.687097      5530.3379    
       151   0             -2181.1129      1168.429       1186.5082      1170.1291      1148.6497     -6.0234357      27.696347      95.515629      17.68235       17.682966      17.687097      5530.3379    
       152   0             -2181.1129      1168.429       1186.5082      1170.1291      1148.6497     -6.0234358      27.696347      95.515629      17.68235       17.682966      17.687097      5530.3379    
       153   0             -2181.1129      1168.429       1186.5082      1170.1291      1148.6497     -6.0234359      27.696347      95.515629      17.68235       17.682966      17.687097      5530.3379    
       154   0             -2181.1129      1168.429       1186.5082      1170.1291      1148.6497     -6.0234359      27.696347      95.515629      17.68235       17.682966      17.687097      5530.3379    
       155   0             -2181.1129      1168.429       1186.5082      1170.1291      1148.6497     -6.0234359      27.696347      95.515629      17.68235       17.682966      17.687097      5530.3379    
       156   0             -2181.1129      1168.429       1186.5082      1170.1291      1148.6497     -6.0234359      27.696347      95.515629      17.68235       17.682966      17.687097      5530.3379    
       157   0             -2181.1129      1168.429       1186.5082      1170.1291      1148.6497     -6.0234359      27.696347      95.515629      17.68235       17.682966      17.687097      5530.3379    
       158   0             -2181.1129      1168.429       1186.5082      1170.1291      1148.6497     -6.0234359      27.696347      95.515629      17.68235       17.682966      17.687097      5530.3379    
       159   0             -2181.1129      1168.429       1186.5082      1170.1291      1148.6497     -6.0234359      27.696347      95.515629      17.68235       17.682966      17.687097      5530.3379    
       160   0             -2181.1129      1168.429       1186.5082      1170.1291      1148.6497     -6.0234359      27.696347      95.515629      17.68235       17.682966      17.687097      5530.3379    
       161   0             -2181.1129      1168.429       1186.5082      1170.1291      1148.6497     -6.0234359      27.696347      95.515629      17.68235       17.682966      17.687097      5530.3379    
Loop time of 0.14181 on 1 procs for 61 steps with 500 atoms

88.1% CPU use with 1 MPI tasks x 1 OpenMP threads

Minimization stats:
  Stopping criterion = force tolerance
  Energy initial, next-to-last, final = 
     -2180.86480844262   -2181.1128746892   -2181.1128746892
  Force two-norm initial, final = 2.017429 6.0936421e-11
  Force max component initial, final = 0.18065007 7.794888e-12
  Final line search alpha, max atom move = 1 7.794888e-12
  Iterations, force evaluations = 61 120

MPI task timing breakdown:
Section |  min time  |  avg time  |  max time  |%varavg| %total
---------------------------------------------------------------
Pair    | 0.13919    | 0.13919    | 0.13919    |   0.0 | 98.15
Neigh   | 0          | 0          | 0          |   0.0 |  0.00
Comm    | 0.000713   | 0.000713   | 0.000713   |   0.0 |  0.50
Output  | 0.000941   | 0.000941   | 0.000941   |   0.0 |  0.66
Modify  | 0          | 0          | 0          |   0.0 |  0.00
Other   |            | 0.00097    |            |       |  0.68

Nlocal:            500 ave         500 max         500 min
Histogram: 1 0 0 0 0 0 0 0 0 0
Nghost:           1956 ave        1956 max        1956 min
Histogram: 1 0 0 0 0 0 0 0 0 0
Neighs:          33500 ave       33500 max       33500 min
Histogram: 1 0 0 0 0 0 0 0 0 0

Total # of neighbors = 33500
Ave neighs/atom = 67
Neighbor list builds = 0
Dangerous builds = 0
OMP_NUM_THREADS environment is not set. Defaulting to 1 thread. (src/comm.cpp:98)
  using 1 OpenMP thread(s) per MPI task
Loaded 1 plugins from F:\Lammps\LAMMPS 64-bit 2Aug2023\plugins

The 'box' command has been removed and will be ignored

Reading restart file ...
  restart file = 2 Aug 2023, LAMMPS = 2 Aug 2023
  restoring atom style atomic from restart
  triclinic box = (0.05382483 0.05350794 0.051451507) to (17.736175 17.736492 17.738548) with tilt (0 0 0)
  1 by 1 by 1 MPI processor grid
  pair style eam/alloy stores no restart info
  500 atoms
  read_restart CPU = 0.000 seconds
Changing box ...
  triclinic box = (0.05382483 0.05350794 0.051451507) to (17.736175 17.73651 17.738548) with tilt (0 0 0)
  triclinic box = (0.05382483 0.05350794 0.051451507) to (17.736175 17.73651 17.738548) with tilt (0 0 0)
Neighbor list info ...
  update: every = 1 steps, delay = 0 steps, check = yes
  max neighbors/atom: 2000, page size: 100000
  master list distance cutoff = 6.80375
  ghost atom cutoff = 6.80375
  1 neighbor lists, perpetual/occasional/extra = 1 0 0
  (1) pair eam/alloy, perpetual
      attributes: half, newton on
      pair build: half/nsq/newton
      stencil: none
      bin: none
Setting up cg style minimization ...
  Unit style    : metal
  Current step  : 100
Per MPI rank memory allocation (min/avg/max) = 4.482 | 4.482 | 4.482 Mbytes
   Step          Temp          PotEng         Press           Pxx            Pyy            Pzz            Pxy            Pxz            Pyz             Lx             Ly             Lz           Volume    
       100   0             -2180.8648     -279.85165     -278.8499      -278.64123     -282.06382      89.427976      67.968226     -88.209512      17.68235       17.683002      17.687097      5530.349     
       101   0             -2181.0245      598.40401      588.43987      596.3736       610.39855      69.585899      60.813507     -7.3203813      17.68235       17.683002      17.687097      5530.349     
       102   0             -2181.0862      1150.4324      1147.404       1140.1625      1163.7305      31.096371      50.10564       68.314837      17.68235       17.683002      17.687097      5530.349     
       103   0             -2181.105       1108.2308      1129.2827      1093.6479      1101.7619      9.4998457      31.539456      82.844655      17.68235       17.683002      17.687097      5530.349     
       104   0             -2181.1101      1170.5638      1195.268       1161.9657      1154.4575     -1.4076413      28.874642      96.913156      17.68235       17.683002      17.687097      5530.349     
       105   0             -2181.1118      1220.0115      1241.2917      1217.794       1200.9487     -5.1901085      25.559525      101.25438      17.68235       17.683002      17.687097      5530.349     
       106   0             -2181.1126      1159.6835      1179.7839      1161.006       1138.2606     -7.1970215      26.344996      95.994444      17.68235       17.683002      17.687097      5530.349     
       107   0             -2181.1127      1153.8164      1173.768       1153.7749      1133.9063     -6.4295939      26.377108      95.23916       17.68235       17.683002      17.687097      5530.349     
       108   0             -2181.1128      1168.2605      1187.3329      1167.0981      1150.3505     -6.7111974      27.497783      96.160059      17.68235       17.683002      17.687097      5530.349     
       109   0             -2181.1128      1168.7015      1186.7603      1168.5051      1150.8392     -6.5800519      28.084213      96.290878      17.68235       17.683002      17.687097      5530.349     
       110   0             -2181.1129      1165.8961      1184.1406      1166.0491      1147.4986     -6.4064814      27.797644      96.075056      17.68235       17.683002      17.687097      5530.349     
       111   0             -2181.1129      1163.1707      1181.5579      1163.46        1144.494      -5.8935475      27.378934      95.486         17.68235       17.683002      17.687097      5530.349     
       112   0             -2181.1129      1163.3619      1181.7889      1163.829       1144.4677     -5.5606724      27.469875      95.289792      17.68235       17.683002      17.687097      5530.349     
       113   0             -2181.1129      1165.5569      1184.2631      1165.8348      1146.573      -5.9252221      27.50072       95.406891      17.68235       17.683002      17.687097      5530.349     
       114   0             -2181.1129      1165.55        1184.3363      1165.8012      1146.5126     -6.0187194      27.736033      95.485236      17.68235       17.683002      17.687097      5530.349     
       115   0             -2181.1129      1164.572       1183.3367      1164.9651      1145.4143     -5.9825333      27.857909      95.462137      17.68235       17.683002      17.687097      5530.349     
       116   0             -2181.1129      1164.545       1183.3107      1164.988       1145.3363     -5.9942448      27.745687      95.376606      17.68235       17.683002      17.687097      5530.349     
       117   0             -2181.1129      1164.7464      1183.4538      1165.2091      1145.5762     -6.0418509      27.694068      95.442788      17.68235       17.683002      17.687097      5530.349     
       118   0             -2181.1129      1164.8715      1183.5521      1165.3539      1145.7086     -6.0399127      27.696888      95.499181      17.68235       17.683002      17.687097      5530.349     
       119   0             -2181.1129      1164.88        1183.5511      1165.3633      1145.7258     -6.0254983      27.696964      95.506063      17.68235       17.683002      17.687097      5530.349     
       120   0             -2181.1129      1164.7602      1183.4365      1165.2462      1145.5979     -6.0173196      27.708999      95.487541      17.68235       17.683002      17.687097      5530.349     
       121   0             -2181.1129      1164.7832      1183.4671      1165.2625      1145.62       -6.0230146      27.710379      95.488071      17.68235       17.683002      17.687097      5530.349     
       122   0             -2181.1129      1164.8239      1183.5164      1165.3015      1145.6536     -6.019589       27.704272      95.506992      17.68235       17.683002      17.687097      5530.349     
       123   0             -2181.1129      1164.8003      1183.4926      1165.2777      1145.6305     -6.0168783      27.691524      95.511941      17.68235       17.683002      17.687097      5530.349     
       124   0             -2181.1129      1164.7733      1183.4666      1165.255       1145.5982     -6.0175652      27.693535      95.511793      17.68235       17.683002      17.687097      5530.349     
       125   0             -2181.1129      1164.768       1183.4611      1165.2495      1145.5933     -6.0174056      27.695243      95.513102      17.68235       17.683002      17.687097      5530.349     
       126   0             -2181.1129      1164.7727      1183.464       1165.2533      1145.6008     -6.018447       27.693321      95.515633      17.68235       17.683002      17.687097      5530.349     
       127   0             -2181.1129      1164.7777      1183.4679      1165.259       1145.6061     -6.0186893      27.692671      95.515249      17.68235       17.683002      17.687097      5530.349     
       128   0             -2181.1129      1164.7762      1183.4644      1165.2589      1145.6053     -6.0182831      27.69203       95.515717      17.68235       17.683002      17.687097      5530.349     
       129   0             -2181.1129      1164.7751      1183.4625      1165.2587      1145.6041     -6.0183406      27.692566      95.515499      17.68235       17.683002      17.687097      5530.349     
       130   0             -2181.1129      1164.7756      1183.4631      1165.2593      1145.6046     -6.0180789      27.692818      95.515642      17.68235       17.683002      17.687097      5530.349     
       131   0             -2181.1129      1164.7762      1183.4637      1165.2598      1145.605      -6.0179296      27.692692      95.515586      17.68235       17.683002      17.687097      5530.349     
       132   0             -2181.1129      1164.7766      1183.464       1165.2601      1145.6057     -6.0179659      27.693006      95.515373      17.68235       17.683002      17.687097      5530.349     
       133   0             -2181.1129      1164.776       1183.4633      1165.2594      1145.6052     -6.0180716      27.693216      95.515339      17.68235       17.683002      17.687097      5530.349     
[...]
       155   0             -2181.1129      1166.6019      1184.9845      1167.6915      1147.1297     -4.8405617      27.692558      95.517347      17.68235       17.682984      17.687097      5530.3435    
       156   0             -2181.1129      1166.6019      1184.9845      1167.6915      1147.1297     -4.8405617      27.692558      95.517347      17.68235       17.682984      17.687097      5530.3435    
       157   0             -2181.1129      1166.6019      1184.9845      1167.6915      1147.1297     -4.8405617      27.692558      95.517347      17.68235       17.682984      17.687097      5530.3435    
       158   0             -2181.1129      1166.6019      1184.9845      1167.6915      1147.1297     -4.8405617      27.692558      95.517347      17.68235       17.682984      17.687097      5530.3435    
       159   0             -2181.1129      1166.6019      1184.9845      1167.6915      1147.1297     -4.8405617      27.692558      95.517347      17.68235       17.682984      17.687097      5530.3435    
       160   0             -2181.1129      1166.6019      1184.9845      1167.6915      1147.1297     -4.8405617      27.692558      95.517347      17.68235       17.682984      17.687097      5530.3435    
       161   0             -2181.1129      1166.6019      1184.9845      1167.6915      1147.1297     -4.8405617      27.692558      95.517347      17.68235       17.682984      17.687097      5530.3435    
Loop time of 0.143205 on 1 procs for 61 steps with 500 atoms

98.2% CPU use with 1 MPI tasks x 1 OpenMP threads

Minimization stats:
  Stopping criterion = force tolerance
  Energy initial, next-to-last, final = 
     -2180.86480718281  -2181.11287874278  -2181.11287874279
  Force two-norm initial, final = 2.0174545 6.0964299e-11
  Force max component initial, final = 0.180653 7.8134027e-12
  Final line search alpha, max atom move = 1 7.8134027e-12
  Iterations, force evaluations = 61 120

MPI task timing breakdown:
Section |  min time  |  avg time  |  max time  |%varavg| %total
---------------------------------------------------------------
Pair    | 0.14063    | 0.14063    | 0.14063    |   0.0 | 98.20
Neigh   | 0          | 0          | 0          |   0.0 |  0.00
Comm    | 0.000693   | 0.000693   | 0.000693   |   0.0 |  0.48
Output  | 0.000893   | 0.000893   | 0.000893   |   0.0 |  0.62
Modify  | 0          | 0          | 0          |   0.0 |  0.00
Other   |            | 0.000985   |            |       |  0.69

Nlocal:            500 ave         500 max         500 min
Histogram: 1 0 0 0 0 0 0 0 0 0
Nghost:           1956 ave        1956 max        1956 min
Histogram: 1 0 0 0 0 0 0 0 0 0
Neighs:          33500 ave       33500 max       33500 min
Histogram: 1 0 0 0 0 0 0 0 0 0

Total # of neighbors = 33500
Ave neighs/atom = 67
Neighbor list builds = 0
Dangerous builds = 0
OMP_NUM_THREADS environment is not set. Defaulting to 1 thread. (src/comm.cpp:98)
  using 1 OpenMP thread(s) per MPI task
Loaded 1 plugins from F:\Lammps\LAMMPS 64-bit 2Aug2023\plugins

The 'box' command has been removed and will be ignored

Reading restart file ...
  restart file = 2 Aug 2023, LAMMPS = 2 Aug 2023
  restoring atom style atomic from restart
  triclinic box = (0.05382483 0.05350794 0.051451507) to (17.736175 17.736492 17.738548) with tilt (0 0 0)
  1 by 1 by 1 MPI processor grid
  pair style eam/alloy stores no restart info
  500 atoms
  read_restart CPU = 0.000 seconds
Changing box ...
  triclinic box = (0.05382483 0.05350794 0.051451507) to (17.736175 17.736492 17.738548) with tilt (1.7682984e-05 0 0)
Neighbor list info ...
  update: every = 1 steps, delay = 0 steps, check = yes
  max neighbors/atom: 2000, page size: 100000
  master list distance cutoff = 6.80375
  ghost atom cutoff = 6.80375
  1 neighbor lists, perpetual/occasional/extra = 1 0 0
  (1) pair eam/alloy, perpetual
      attributes: half, newton on
      pair build: half/nsq/newton
      stencil: none
      bin: none
Setting up cg style minimization ...
  Unit style    : metal
  Current step  : 100
Per MPI rank memory allocation (min/avg/max) = 4.482 | 4.482 | 4.482 Mbytes
   Step          Temp          PotEng         Press           Pxx            Pyy            Pzz            Pxy            Pxz            Pyz             Lx             Ly             Lz           Volume    
       100   0             -2180.8648     -277.99717     -277.30022     -276.17842     -280.51286      88.238356      67.968441     -88.209795      17.68235       17.682984      17.687097      5530.3435    
       101   0             -2181.0245      600.25318      589.98569      598.82949      611.94435      68.402072      60.814708     -7.3189627      17.68235       17.682984      17.687097      5530.3435    
       102   0             -2181.0862      1152.2682      1148.937       1142.607       1165.2606      29.912119      50.108616      68.31592       17.68235       17.682984      17.687097      5530.3435    
       103   0             -2181.105       1110.0532      1130.8018      1096.0797      1103.2781      8.3194847      31.543357      82.841554      17.68235       17.682984      17.687097      5530.3435    
       104   0             -2181.1101      1172.3724      1196.7736      1164.3852      1155.9585     -2.5900971      28.878886      96.909849      17.68235       17.682984      17.687097      5530.3435    
       105   0             -2181.1118      1221.8393      1242.8164      1220.2324      1202.4691     -6.3740627      25.563458      101.25293      17.68235       17.682984      17.687097      5530.3435    
       106   0             -2181.1126      1161.5156      1181.3128      1163.4482      1139.7857     -8.3802023      26.348765      95.993266      17.68235       17.682984      17.687097      5530.3435    
       107   0             -2181.1127      1155.6432      1175.2914      1156.2122      1135.4259     -7.6126983      26.380935      95.237459      17.68235       17.682984      17.687097      5530.3435    
       108   0             -2181.1128      1170.0864      1188.8555      1169.5345      1151.8692     -7.8941966      27.501609      96.158229      17.68235       17.682984      17.687097      5530.3435    
       109   0             -2181.1128      1170.5284      1188.284       1170.9424      1152.359      -7.7630067      28.088029      96.289121      17.68235       17.682984      17.687097      5530.3435    
       110   0             -2181.1129      1167.7236      1185.6648      1168.4869      1149.019      -7.5895705      27.801407      96.073461      17.68235       17.682984      17.687097      5530.3435    
       111   0             -2181.1129      1164.9982      1183.0822      1165.898       1146.0144     -7.0764966      27.382678      95.484364      17.68235       17.682984      17.687097      5530.3435    
       112   0             -2181.1129      1165.1886      1183.3122      1166.2661      1145.9873     -6.7434943      27.473678      95.28803       17.68235       17.682984      17.687097      5530.3435    
       113   0             -2181.1129      1167.3835      1185.7864      1168.2718      1148.0924     -7.1080485      27.504561      95.405128      17.68235       17.682984      17.687097      5530.3435    
       114   0             -2181.1129      1167.3773      1185.8602      1168.2389      1148.0327     -7.2015458      27.739803      95.483515      17.68235       17.682984      17.687097      5530.3435    
       115   0             -2181.1129      1166.3992      1184.8605      1167.4027      1146.9343     -7.165389       27.861692      95.460427      17.68235       17.682984      17.687097      5530.3435    
       116   0             -2181.1129      1166.372       1184.8344      1167.4255      1146.8562     -7.1771242      27.749479      95.374884      17.68235       17.682984      17.687097      5530.3435    
       117   0             -2181.1129      1166.5734      1184.9775      1167.6466      1147.0961     -7.2247204      27.697864      95.441067      17.68235       17.682984      17.687097      5530.3435    
       118   0             -2181.1129      1166.6986      1185.0758      1167.7914      1147.2285     -7.2227847      27.700675      95.497456      17.68235       17.682984      17.687097      5530.3435    
       119   0             -2181.1129      1166.7071      1185.0748      1167.8009      1147.2457     -7.2083738      27.70075       95.504346      17.68235       17.682984      17.687097      5530.3435    
       120   0             -2181.1129      1166.5873      1184.9602      1167.6838      1147.1178     -7.2001892      27.712791      95.485825      17.68235       17.682984      17.687097      5530.3435    
       121   0             -2181.1129      1166.6102      1184.9908      1167.7001      1147.1399     -7.2058877      27.714172      95.486352      17.68235       17.682984      17.687097      5530.3435    
       122   0             -2181.1129      1166.6509      1185.0401      1167.7391      1147.1735     -7.2024628      27.708062      95.505274      17.68235       17.682984      17.687097      5530.3435    
       123   0             -2181.1129      1166.6273      1185.0163      1167.7153      1147.1504     -7.1997525      27.695313      95.510223      17.68235       17.682984      17.687097      5530.3435    
       124   0             -2181.1129      1166.6004      1184.9903      1167.6926      1147.1182     -7.2004402      27.697324      95.510075      17.68235       17.682984      17.687097      5530.3435    
       125   0             -2181.1129      1166.595       1184.9848      1167.6871      1147.1132     -7.2002805      27.699032      95.511384      17.68235       17.682984      17.687097      5530.3435    
       126   0             -2181.1129      1166.5998      1184.9877      1167.6909      1147.1207     -7.2013217      27.697111      95.513915      17.68235       17.682984      17.687097      5530.3435    
       127   0             -2181.1129      1166.6047      1184.9916      1167.6966      1147.126      -7.2015643      27.696461      95.513531      17.68235       17.682984      17.687097      5530.3435    
       128   0             -2181.1129      1166.6032      1184.9881      1167.6964      1147.1252     -7.2011579      27.695819      95.513998      17.68235       17.682984      17.687097      5530.3435    
       129   0             -2181.1129      1166.6021      1184.9862      1167.6963      1147.124      -7.2012154      27.696355      95.51378       17.68235       17.682984      17.687097      5530.3435    
       130   0             -2181.1129      1166.6027      1184.9868      1167.6968      1147.1245     -7.2009536      27.696607      95.513923      17.68235       17.682984      17.687097      5530.3435    
       131   0             -2181.1129      1166.6032      1184.9874      1167.6974      1147.125      -7.2008044      27.696482      95.513867      17.68235       17.682984      17.687097      5530.3435    
       132   0             -2181.1129      1166.6037      1184.9877      1167.6977      1147.1257     -7.2008407      27.696795      95.513655      17.68235       17.682984      17.687097      5530.3435    
       133   0             -2181.1129      1166.603       1184.987       1167.697       1147.1251     -7.2009464      27.697006      95.51362       17.68235       17.682984      17.687097      5530.3435    
       134   0             -2181.1129      1166.603       1184.987       1167.6968      1147.1252     -7.2009169      27.696892      95.51362       17.68235       17.682984      17.687097      5530.3435    
       135   0             -2181.1129      1166.6032      1184.9872      1167.6971      1147.1253     -7.2009788      27.696908      95.513688      17.68235       17.682984      17.687097      5530.3435    
       136   0             -2181.1129      1166.6032      1184.9872      1167.697       1147.1253     -7.2009565      27.696917      95.513673      17.68235       17.682984      17.687097      5530.3435    
       137   0             -2181.1129      1166.6031      1184.9872      1167.6969      1147.1252     -7.2009526      27.696903      95.513663      17.68235       17.682984      17.687097      5530.3435    
       138   0             -2181.1129      1166.6031      1184.9872      1167.6969      1147.1252     -7.2009505      27.696892      95.513662      17.68235       17.682984      17.687097      5530.3435    
       139   0             -2181.1129      1166.6031      1184.9872      1167.6969      1147.1252     -7.2009505      27.696885      95.51366       17.68235       17.682984      17.687097      5530.3435    
       140   0             -2181.1129      1166.6031      1184.9872      1167.6969      1147.1252     -7.2009465      27.696885      95.513656      17.68235       17.682984      17.687097      5530.3435    
       141   0             -2181.1129      1166.6031      1184.9872      1167.6969      1147.1253     -7.2009459      27.696881      95.513652      17.68235       17.682984      17.687097      5530.3435    
       142   0             -2181.1129      1166.6031      1184.9872      1167.6969      1147.1252     -7.2009478      27.696878      95.513651      17.68235       17.682984      17.687097      5530.3435    
       143   0             -2181.1129      1166.6031      1184.9872      1167.6969      1147.1252     -7.2009494      27.696879      95.51365       17.68235       17.682984      17.687097      5530.3435    
       144   0             -2181.1129      1166.6031      1184.9872      1167.6969      1147.1252     -7.2009486      27.696878      95.513647      17.68235       17.682984      17.687097      5530.3435    
       145   0             -2181.1129      1166.6031      1184.9872      1167.6969      1147.1252     -7.2009481      27.696878      95.513646      17.68235       17.682984      17.687097      5530.3435    
       146   0             -2181.1129      1166.6031      1184.9872      1167.6969      1147.1252     -7.2009482      27.696879      95.513646      17.68235       17.682984      17.687097      5530.3435    
       147   0             -2181.1129      1166.6031      1184.9872      1167.6969      1147.1252     -7.2009478      27.696879      95.513646      17.68235       17.682984      17.687097      5530.3435    
       148   0             -2181.1129      1166.6031      1184.9872      1167.6969      1147.1252     -7.2009484      27.696879      95.513646      17.68235       17.682984      17.687097      5530.3435    
       149   0             -2181.1129      1166.6031      1184.9872      1167.6969      1147.1252     -7.2009484      27.696879      95.513646      17.68235       17.682984      17.687097      5530.3435    
       150   0             -2181.1129      1166.6031      1184.9872      1167.6969      1147.1252     -7.2009481      27.696879      95.513647      17.68235       17.682984      17.687097      5530.3435    
       151   0             -2181.1129      1166.6031      1184.9872      1167.6969      1147.1252     -7.2009479      27.696879      95.513647      17.68235       17.682984      17.687097      5530.3435    
       152   0             -2181.1129      1166.6031      1184.9872      1167.6969      1147.1252     -7.2009481      27.696879      95.513647      17.68235       17.682984      17.687097      5530.3435    
       153   0             -2181.1129      1166.6031      1184.9872      1167.6969      1147.1252     -7.2009482      27.696879      95.513647      17.68235       17.682984      17.687097      5530.3435    
       154   0             -2181.1129      1166.6031      1184.9872      1167.6969      1147.1252     -7.2009482      27.696879      95.513647      17.68235       17.682984      17.687097      5530.3435    
       155   0             -2181.1129      1166.6031      1184.9872      1167.6969      1147.1252     -7.2009482      27.696879      95.513647      17.68235       17.682984      17.687097      5530.3435    
       156   0             -2181.1129      1166.6031      1184.9872      1167.6969      1147.1252     -7.2009482      27.696879      95.513647      17.68235       17.682984      17.687097      5530.3435    
       157   0             -2181.1129      1166.6031      1184.9872      1167.6969      1147.1252     -7.2009482      27.696879      95.513647      17.68235       17.682984      17.687097      5530.3435    
       158   0             -2181.1129      1166.6031      1184.9872      1167.6969      1147.1252     -7.2009482      27.696879      95.513647      17.68235       17.682984      17.687097      5530.3435    
       159   0             -2181.1129      1166.6031      1184.9872      1167.6969      1147.1252     -7.2009482      27.696879      95.513647      17.68235       17.682984      17.687097      5530.3435    
       160   0             -2181.1129      1166.6031      1184.9872      1167.6969      1147.1252     -7.2009482      27.696879      95.513647      17.68235       17.682984      17.687097      5530.3435    
       161   0             -2181.1129      1166.6031      1184.9872      1167.6969      1147.1252     -7.2009482      27.696879      95.513647      17.68235       17.682984      17.687097      5530.3435    
Loop time of 0.143268 on 1 procs for 61 steps with 500 atoms

109.1% CPU use with 1 MPI tasks x 1 OpenMP threads

Minimization stats:
  Stopping criterion = force tolerance
  Energy initial, next-to-last, final = 
     -2180.86480780017  -2181.11287870122  -2181.11287870121
  Force two-norm initial, final = 2.0174536 6.0951485e-11
  Force max component initial, final = 0.1806528 7.7906735e-12
  Final line search alpha, max atom move = 1 7.7906735e-12
  Iterations, force evaluations = 61 120

MPI task timing breakdown:
Section |  min time  |  avg time  |  max time  |%varavg| %total
---------------------------------------------------------------
Pair    | 0.14061    | 0.14061    | 0.14061    |   0.0 | 98.15
Neigh   | 0          | 0          | 0          |   0.0 |  0.00
Comm    | 0.00069    | 0.00069    | 0.00069    |   0.0 |  0.48
Output  | 0.00093    | 0.00093    | 0.00093    |   0.0 |  0.65
Modify  | 0          | 0          | 0          |   0.0 |  0.00
Other   |            | 0.001033   |            |       |  0.72

Nlocal:            500 ave         500 max         500 min
Histogram: 1 0 0 0 0 0 0 0 0 0
Nghost:           1956 ave        1956 max        1956 min
Histogram: 1 0 0 0 0 0 0 0 0 0
Neighs:          33500 ave       33500 max       33500 min
Histogram: 1 0 0 0 0 0 0 0 0 0

Total # of neighbors = 33500
Ave neighs/atom = 67
Neighbor list builds = 0
Dangerous builds = 0
=========================================
Components of the Elastic Constant Tensor
=========================================
Elastic Constant C11all = 243.908714877005 GPa
Elastic Constant C22all = 243.488416089996 GPa
Elastic Constant C33all = 243.614376263999 GPa
Elastic Constant C12all = 152.235881174245 GPa
Elastic Constant C13all = 152.769286921001 GPa
Elastic Constant C23all = 152.217142973248 GPa
Elastic Constant C44all = 117.899462442851 GPa
Elastic Constant C55all = 118.080280477135 GPa
Elastic Constant C66all = 118.019322993655 GPa
Elastic Constant C14all = -0.2825996861784 GPa
Elastic Constant C15all = -0.129941702418932 GPa
Elastic Constant C16all = -0.13450739459995 GPa
Elastic Constant C24all = 0.00362588629559468 GPa
Elastic Constant C25all = 0.161483078606466 GPa
Elastic Constant C26all = -0.268123475103038 GPa
Elastic Constant C34all = 0.0643321176257814 GPa
Elastic Constant C35all = -0.106106866580489 GPa
Elastic Constant C36all = 0.224095728420252 GPa
Elastic Constant C45all = 0.0664364848902324 GPa
Elastic Constant C46all = 0.18362079217286 GPa
Elastic Constant C56all = -0.216076769442565 GPa
=========================================
Average properties for a cubic crystal
=========================================
Bulk Modulus = 182.828458818665 GPa
Shear Modulus 1 = 117.99968863788 GPa
Shear Modulus 2 = 45.631532693751 GPa
Poisson Ratio = 0.384791531790295
Total wall time: 0:00:02
