LAMMPS (2 Aug 2023 - Update 3)
OMP_NUM_THREADS environment is not set. Defaulting to 1 thread. (src/comm.cpp:98)
  using 1 OpenMP thread(s) per MPI task
Loaded 1 plugins from F:\Lammps\LAMMPS 64-bit 2Aug2023\plugins
Reading data file ...
  orthogonal box = (0 0 0) to (17.79 17.79 17.79)
  1 by 1 by 1 MPI processor grid
  reading atoms ...
  500 atoms
  read_data CPU = 0.002 seconds
Changing box ...
  triclinic box = (0 0 0) to (17.79 17.79 17.79) with tilt (0 0 0)
Neighbor list info ...
  update: every = 1 steps, delay = 0 steps, check = yes
  max neighbors/atom: 2000, page size: 100000
  master list distance cutoff = 6.80375
  ghost atom cutoff = 6.80375
  1 neighbor lists, perpetual/occasional/extra = 1 0 0
  (1) pair eam/alloy, perpetual
      attributes: half, newton on
      pair build: half/nsq/newton
      stencil: none
      bin: none
Setting up cg style minimization ...
  Unit style    : metal
  Current step  : 0
WARNING: Energy due to 3 extra global DOFs will be included in minimizer energies
 (src/min.cpp:228)
Per MPI rank memory allocation (min/avg/max) = 4.492 | 4.492 | 4.492 Mbytes
   Step          Temp          PotEng         Press           Pxx            Pyy            Pzz            Pxy            Pxz            Pyz             Lx             Ly             Lz           Volume    
         0   0             -2179.8226     -34122.42      -34128.091     -34076.84      -34162.329     -47.139049     -57.443767     -7.7591196      17.79          17.79          17.79          5630.2521    
         1   0             -2179.8583     -33580.002     -33585.044     -33535.017     -33619.944     -48.239077     -57.427439     -7.5921688      17.788223      17.788225      17.788221      5628.5652    
         2   0             -2179.8933     -33037.153     -33041.571     -32992.765     -33077.124     -49.338504     -57.408157     -7.4233866      17.786446      17.786451      17.786442      5626.8786    
         3   0             -2179.9278     -32493.868     -32497.664     -32450.077     -32533.863     -50.437257     -57.385537     -7.2524908      17.784669      17.784676      17.784663      5625.1925    
         4   0             -2179.9617     -31950.159     -31953.336     -31906.967     -31990.174     -51.535631     -57.359724     -7.0795329      17.782892      17.782902      17.782884      5623.5066    
         5   0             -2179.9951     -31406.101     -31408.658     -31363.509     -31446.135     -52.635258     -57.331488     -6.9046398      17.781115      17.781128      17.781105      5621.8212    
         6   0             -2180.0278     -30861.744     -30863.682     -30819.759     -30901.793     -53.737289     -57.301616     -6.7288033      17.779338      17.779353      17.779326      5620.1361    
         7   0             -2180.06       -30317.095     -30318.412     -30275.72      -30357.154     -54.842018     -57.269978     -6.552046       17.777561      17.777579      17.777547      5618.4514    
         8   0             -2180.0916     -29772.107     -29772.807     -29731.346     -29812.168     -55.949201     -57.234472     -6.3738706      17.775784      17.775805      17.775768      5616.7671    
         9   0             -2180.1226     -29226.717     -29226.803     -29186.572     -29266.775     -57.056141     -57.194459     -6.1946524      17.774008      17.774031      17.773989      5615.0832    
        10   0             -2180.153      -28680.893     -28680.369     -28641.364     -28720.946     -58.160198     -57.150828     -6.0146201      17.772231      17.772257      17.77221       5613.3996    
        11   0             -2180.1829     -28134.653     -28133.52      -28095.74      -28174.699     -59.261637     -57.104324     -5.8341897      17.770454      17.770483      17.770431      5611.7164    
        12   0             -2180.2122     -27588.046     -27586.301     -27549.748     -27628.088     -60.36172      -57.056884     -5.6533726      17.768678      17.768709      17.768652      5610.0336    
        13   0             -2180.2409     -27041.105     -27038.748     -27003.423     -27081.145     -61.462648     -57.00764      -5.4723635      17.766902      17.766935      17.766873      5608.3512    
        14   0             -2180.269      -26493.885     -26490.913     -26456.819     -26533.922     -62.567861     -56.953686     -5.2907         17.765126      17.765161      17.765094      5606.6692    
        15   0             -2180.2965     -25946.339     -25942.757     -25909.893     -25986.366     -63.676287     -56.893343     -5.1091421      17.763349      17.763387      17.763315      5604.9875    
        16   0             -2180.3235     -25398.419     -25394.231     -25362.596     -25438.429     -64.78785      -56.825978     -4.928202       17.761573      17.761613      17.761536      5603.3063    
        17   0             -2180.3498     -24850.095     -24845.306     -24814.9       -24890.079     -65.89998      -56.753156     -4.7470354      17.759798      17.759839      17.759757      5601.6254    
        18   0             -2180.3756     -24301.353     -24295.965     -24266.787     -24341.306     -67.009977     -56.67833      -4.5657242      17.758022      17.758066      17.757978      5599.9449    
        19   0             -2180.4008     -23752.285     -23746.302     -23718.347     -23792.205     -68.117119     -56.602966     -4.3824649      17.756246      17.756292      17.756199      5598.2649    
        20   0             -2180.4254     -23202.911     -23196.337     -23169.6       -23242.796     -69.221404     -56.527253     -4.1972814      17.75447       17.754519      17.75442       5596.5852    
        21   0             -2180.4495     -22653.265     -22646.103     -22620.582     -22693.11      -70.325366     -56.449129     -4.0100794      17.752695      17.752745      17.752641      5594.9059    
        22   0             -2180.473      -22103.265     -22095.521     -22071.214     -22143.062     -71.43183      -56.365888     -3.8216963      17.75092       17.750972      17.750862      5593.227     
        23   0             -2180.4958     -21552.948     -21544.626     -21521.531     -21592.687     -72.53929      -56.277152     -3.6326964      17.749145      17.749199      17.749083      5591.5486    
        24   0             -2180.5181     -21002.308     -20993.416     -20971.53      -21041.98      -73.647367     -56.183017     -3.4432427      17.74737       17.747426      17.747304      5589.8705    
        25   0             -2180.5398     -20451.398     -20441.938     -20421.257     -20490.999     -74.75328      -56.086684     -3.2541973      17.745595      17.745653      17.745525      5588.1929    
        26   0             -2180.561      -19900.219     -19890.193     -19870.72      -19939.742     -75.857604     -55.989106     -3.0659649      17.74382       17.74388       17.743746      5586.5156    
        27   0             -2180.5815     -19348.718     -19338.127     -19319.867     -19388.161     -76.962198     -55.890818     -2.8781026      17.742045      17.742107      17.741967      5584.8388    
        28   0             -2180.6015     -18796.903     -18785.748     -18768.703     -18836.258     -78.068334     -55.791113     -2.6899546      17.740271      17.740334      17.740188      5583.1624    
        29   0             -2180.6209     -18244.799     -18233.084     -18217.252     -18284.062     -79.177337     -55.686545     -2.4989353      17.738497      17.738562      17.738409      5581.4865    
        30   0             -2180.6397     -17692.426     -17680.155     -17665.532     -17731.591     -80.289316     -55.576988     -2.3047469      17.736723      17.736789      17.73663       5579.8109    
        31   0             -2180.6579     -17139.821     -17126.999     -17113.58      -17178.882     -81.402467     -55.462165     -2.1069872      17.734949      17.735017      17.734851      5578.1359    
        32   0             -2180.6756     -16586.934     -16573.569     -16561.351     -16625.882     -82.515205     -55.343479     -1.9072993      17.733175      17.733245      17.733072      5576.4612    
        33   0             -2180.6926     -16033.731     -16019.829     -16008.806     -16072.56      -83.62389      -55.224095     -1.7073823      17.731402      17.731472      17.731293      5574.787     
        34   0             -2180.7091     -15480.214     -15465.783     -15455.945     -15518.916     -84.728614     -55.104037     -1.5074336      17.729629      17.729701      17.729514      5573.1133    
        35   0             -2180.725      -14926.389     -14911.435     -14902.774     -14964.958     -85.830167     -54.983337     -1.3078138      17.727856      17.727929      17.727735      5571.44      
        36   0             -2180.7403     -14372.336     -14356.866     -14349.378     -14410.764     -86.932733     -54.859082     -1.1071681      17.726083      17.726157      17.725956      5569.7672    
        37   0             -2180.755      -13818.085     -13802.105     -13795.79      -13856.359     -88.03846      -54.730383     -0.90517578     17.724311      17.724386      17.724177      5568.0949    
        38   0             -2180.7692     -13263.649     -13247.167     -13242.024     -13301.756     -89.147584     -54.597288     -0.70172207     17.722539      17.722615      17.722398      5566.4231    
        39   0             -2180.7827     -12709         -12692.027     -12688.051     -12746.923     -90.259177     -54.460353     -0.49595975     17.720767      17.720844      17.720619      5564.7518    
        40   0             -2180.7957     -12154.075     -12136.621     -12133.805     -12191.8       -91.370172     -54.320502     -0.28900067     17.718996      17.719073      17.71884       5563.081     
        41   0             -2180.8081     -11598.848     -11580.923     -11579.258     -11636.364     -92.481257     -54.177208     -0.079994544    17.717225      17.717302      17.717061      5561.4108    
        42   0             -2180.8199     -11043.345     -11024.958     -11024.433     -11080.643     -93.592497     -54.030114      0.13109558     17.715454      17.715532      17.715282      5559.7411    
        43   0             -2180.8312     -10487.652     -10468.817     -10469.416     -10524.723     -94.704196     -53.880139      0.34465021     17.713684      17.713762      17.713503      5558.0719    
        44   0             -2180.8418     -9931.8085     -9912.5386     -9914.2465     -9968.6405     -95.818193     -53.727013      0.56070059     17.711915      17.711993      17.711724      5556.4034    
        45   0             -2180.8519     -9375.8659     -9356.1778     -9358.9801     -9412.4399     -96.932274     -53.570357      0.77920138     17.710146      17.710223      17.709945      5554.7355    
        46   0             -2180.8614     -8819.7724     -8799.6832     -8803.5698     -8856.0641     -98.046243     -53.408688      0.99940717     17.708377      17.708454      17.708166      5553.0683    
        47   0             -2180.8703     -8263.5371     -8243.0656     -8248.0243     -8299.5214     -99.159863     -53.241229      1.221452       17.70661       17.706686      17.706387      5551.4017    
        48   0             -2180.8787     -7707.162      -7686.3284     -7692.3454     -7742.8122     -100.2726      -53.068897      1.4444939      17.704843      17.704918      17.704608      5549.7359    
        49   0             -2180.8864     -7150.6624     -7129.488      -7136.5443     -7185.955      -101.38664     -52.892519      1.6680313      17.703077      17.703151      17.702829      5548.0708    
        50   0             -2180.8936     -6594.0366     -6572.5444     -6580.6233     -6628.942      -102.50386     -52.713897      1.8914636      17.701312      17.701384      17.70105       5546.4066    
        51   0             -2180.9002     -6037.3114     -6015.5265     -6024.6076     -6071.8001     -103.62411     -52.532678      2.1148238      17.699548      17.699618      17.699271      5544.7433    
        52   0             -2180.9062     -5480.555      -5458.5069     -5468.5676     -5514.5905     -104.74677     -52.34812       2.3382144      17.697786      17.697853      17.697492      5543.0811    
        53   0             -2180.9116     -4923.8823     -4901.6074     -4912.6146     -4957.4251     -105.86992     -52.158996      2.5618997      17.696025      17.696089      17.695713      5541.42      
        54   0             -2180.9165     -4367.4037     -4344.9495     -4356.8666     -4400.395      -106.99123     -51.965217      2.7856973      17.694266      17.694326      17.693934      5539.7602    
        55   0             -2180.9208     -3811.1733     -3788.599      -3801.3807     -3843.5403     -108.11069     -51.766294      3.009682       17.692509      17.692564      17.692155      5538.102     
        56   0             -2180.9245     -3255.2208     -3232.6041     -3246.1948     -3286.8635     -109.22785     -51.561709      3.2338411      17.690756      17.690805      17.690376      5536.4457    
        57   0             -2180.9276     -2699.608      -2677.0439     -2691.3681     -2730.412      -110.34325     -51.351379      3.4584435      17.689006      17.689048      17.688597      5534.7917    
        58   0             -2180.9302     -2144.5546     -2122.1722     -2137.125      -2174.3666     -111.45791     -51.13511       3.6829482      17.687262      17.687294      17.686818      5533.1408    
        59   0             -2180.9322     -1590.4878     -1568.4713     -1583.8973     -1619.0949     -112.57235     -50.912116      3.9073487      17.685526      17.685546      17.685039      5531.4943    
        60   0             -2180.9337     -1038.3357     -1016.9866     -1032.6393     -1065.3814     -113.68561     -50.680715      4.1319935      17.683802      17.683806      17.68326       5529.8547    
        61   0             -2180.9347     -490.13975     -470.05373     -485.45451     -514.91101     -114.79504     -50.436859      4.3570243      17.682104      17.682081      17.681481      5528.2283    
        62   0             -2180.9353      46.042874      63.11344       49.379566      25.635615     -115.88931     -50.16463       4.5832663      17.68048       17.680404      17.679702      5526.6402    
        63   0             -2180.9413     -233.70184     -260.45783     -238.75516     -201.89252     -115.557       -49.49334       4.6200292      17.682259      17.681507      17.679629      5527.518     
        64   0             -2180.9424      283.60064      265.23138      279.47738      306.09316     -116.64526     -49.127957      4.8438094      17.68048       17.679852      17.678182      5525.9922    
        65   0             -2180.9444     -167.79896     -172.4066      -168.55088     -162.43941     -115.8213      -49.051455      4.6885644      17.681649      17.681238      17.679961      5527.3471    
        66   0             -2180.9466      349.80751      354.014        350.10091      345.30761     -116.95561     -48.537887      4.9329953      17.67987       17.679589      17.678534      5525.8294    
        67   0             -2180.9484     -192.60286     -187.05777     -191.27242     -199.4784      -115.93946     -48.524791      4.7478652      17.681564      17.681309      17.680313      5527.4527    
        68   0             -2180.9514      355.54721      358.64102      355.63693      352.36369     -117.16697     -47.891158      5.0289373      17.679914      17.679614      17.678534      5525.8511    
        69   0             -2180.9533     -189.08597     -188.64615     -188.76288     -189.84888     -116.15015     -47.867076      4.8482218      17.681693      17.681358      17.680227      5527.4817    
        70   0             -2180.9565      367.14963      366.13662      366.39451      368.91777     -117.40846     -47.187035      5.1375034      17.680002      17.679637      17.678448      5525.8587    
        71   0             -2180.9585     -188.00116     -189.93994     -188.17083     -185.89272     -116.37489     -47.158004      4.9528203      17.681781      17.681407      17.680216      5527.5209    
        72   0             -2180.9619      375.40797      375.4827       374.84722      375.89398     -117.66023     -46.44094       5.2466177      17.680002      17.679652      17.678498      5525.8788    
        73   0             -2180.9639     -177.49721     -177.5593      -177.3137      -177.61862     -116.63359     -46.407944      5.0629243      17.681758      17.681412      17.680277      5527.5344    
        74   0             -2180.9675      392.65978      393.62601      392.25815      392.09518     -117.94344     -45.657298      5.364198       17.679979      17.679641      17.678516      5525.8743    
        75   0             -2180.9695     -163.69477     -163.46362     -163.46554     -164.15514     -116.91095     -45.626605      5.1797979      17.681758      17.681415      17.680292      5527.5398    
        76   0             -2180.9733      406.92979      407.34133      406.39836      407.04968     -118.23624     -44.834862      5.4873628      17.679997      17.679648      17.678513      5525.8809    
        77   0             -2180.9752     -149.16996     -149.56625     -149.08828     -148.85535     -117.20339     -44.811662      5.3023735      17.681776      17.68142       17.680285      5527.5451    
        78   0             -2180.9794      424.14269      424.57947      423.58768      424.26091     -118.55229     -43.968265      5.6171247      17.679997      17.679646      17.678516      5525.8814    
        79   0             -2180.9812     -132.92949     -133.12048     -132.83408     -132.8339      -117.51651     -43.953919      5.430856       17.681775      17.68142       17.680295      5527.5477    
        80   0             -2180.9858      441.99114      442.5962       441.44499      441.93224     -118.89203     -43.04417       5.755038       17.679996      17.679644      17.678525      5525.8833    
        81   0             -2180.9875     -115.38778     -115.45921     -115.2925      -115.41164     -117.85409     -43.040677      5.5675683      17.681775      17.681418      17.680303      5527.5498    
        82   0             -2180.9926      462.664        463.1766       462.06929      462.7461      -119.26785     -42.039686      5.905318       17.679996      17.679639      17.678524      5525.8816    
        83   0             -2180.9943     -94.922258     -95.097817     -94.878816     -94.790142     -118.22783     -42.047906      5.7165309      17.681775      17.681413      17.680301      5527.5477    
        84   0             -2181.0002      484.51961      485.16382      483.91927      484.47574     -119.69281     -40.911241      6.0731579      17.679996      17.679637      17.678533      5525.8836    
        85   0             -2181.0018     -73.516748     -73.541433     -73.475058     -73.533752     -118.64966     -40.933436      5.8827681      17.681775      17.681411      17.680311      5527.55      
        86   0             -2181.0091      511.48626      511.98855      510.81906      511.65119     -120.20798     -39.56678       6.2733217      17.679999      17.679632      17.678533      5525.8831    
        87   0             -2181.0105     -46.901357     -47.066873     -46.926797     -46.7104       -119.16213     -39.603119      6.0815739      17.681778      17.681406      17.680311      5527.5494    
        88   0             -2181.0212      545.45176      546.56274      544.85479      544.93775     -120.932       -37.693938      6.5502403      17.679999      17.679633      17.678564      5525.8929    
        89   0             -2181.0225     -13.116746     -12.712876     -13.081274     -13.556089     -119.88292     -37.74695       6.3571689      17.681778      17.681407      17.680339      5527.5585    
        90   0             -2181.0545      605.73672      599.46958      603.60743      614.13313     -123.00287     -32.299544      7.3471024      17.680296      17.679789      17.67856       5526.0332    
        91   0             -2181.0557      52.415521      46.425731      51.097685      59.723146     -121.96032     -32.368123      7.1562434      17.682037      17.68154       17.680339      5527.6811    
        92   0             -2181.0578     -433.74724     -430.96097     -432.67973     -437.60103     -121.16009     -32.148499      7.0219217      17.68342       17.683062      17.682118      5529.1455    
        93   0             -2181.059       122.64215      127.59224      123.37289      116.96131     -122.32727     -31.773422      7.2556158      17.681641      17.681309      17.680406      5527.506     
        94   0             -2181.0629     -387.70255     -389.57682     -387.59942     -385.9314      -121.5915      -31.276921      7.1662646      17.68342       17.682983      17.68192       5529.0589    
        95   0             -2181.0643      173.12813      170.9875       172.40989      175.987       -122.7877      -30.84929       7.4105176      17.681678      17.681229      17.680141      5527.4095    
        96   0             -2181.0685     -361.54512     -362.52102     -361.31855     -360.79579     -122.02897     -30.310327      7.3134777      17.683382      17.682952      17.68192       5529.0372    
        97   0             -2181.0702      202.46351      202.8019       202.17269      202.41594     -123.25705     -29.820452      7.5659181      17.681603      17.681186      17.680172      5527.3821    
        98   0             -2181.0743     -338.13735     -337.45801     -337.61539     -339.33866     -122.49017     -29.283619      7.4677915      17.683341      17.68293       17.681951      5529.0271    
        99   0             -2181.0763      231.52765      232.80742      231.39074      230.38478     -123.75434     -28.732529      7.7310091      17.681562      17.681152      17.680172      5527.3589    
       100   0             -2181.0804     -309.59956     -309.99263     -309.32148     -309.48457     -122.99105     -28.193926      7.6349351      17.683341      17.682905      17.681906      5529.0054    
Loop time of 0.117722 on 1 procs for 100 steps with 500 atoms

106.2% CPU use with 1 MPI tasks x 1 OpenMP threads

Minimization stats:
  Stopping criterion = max iterations
  Energy initial, next-to-last, final = 
     -2179.82260883297  -2181.07630593958  -2181.08044163883
  Force two-norm initial, final = 207.71666 2.8035066
  Force max component initial, final = 120.05077 1.0762165
  Final line search alpha, max atom move = 0.0003066584 0.00033003084
  Iterations, force evaluations = 100 100

MPI task timing breakdown:
Section |  min time  |  avg time  |  max time  |%varavg| %total
---------------------------------------------------------------
Pair    | 0.10964    | 0.10964    | 0.10964    |   0.0 | 93.13
Neigh   | 0          | 0          | 0          |   0.0 |  0.00
Comm    | 0.000607   | 0.000607   | 0.000607   |   0.0 |  0.52
Output  | 0.001461   | 0.001461   | 0.001461   |   0.0 |  1.24
Modify  | 0          | 0          | 0          |   0.0 |  0.00
Other   |            | 0.006018   |            |       |  5.11

Nlocal:            500 ave         500 max         500 min
Histogram: 1 0 0 0 0 0 0 0 0 0
Nghost:           1956 ave        1956 max        1956 min
Histogram: 1 0 0 0 0 0 0 0 0 0
Neighs:          33500 ave       33500 max       33500 min
Histogram: 1 0 0 0 0 0 0 0 0 0

Total # of neighbors = 33500
Ave neighs/atom = 67
Neighbor list builds = 0
Dangerous builds = 0
Displacing atoms ...
System init for write_restart ...
OMP_NUM_THREADS environment is not set. Defaulting to 1 thread. (src/comm.cpp:98)
  using 1 OpenMP thread(s) per MPI task
Loaded 1 plugins from F:\Lammps\LAMMPS 64-bit 2Aug2023\plugins

The 'box' command has been removed and will be ignored

Reading restart file ...
  restart file = 2 Aug 2023, LAMMPS = 2 Aug 2023
  restoring atom style atomic from restart
  triclinic box = (0.05332951 0.053547421 0.054047047) to (17.73667 17.736453 17.735953) with tilt (0 0 0)
  1 by 1 by 1 MPI processor grid
  pair style eam/alloy stores no restart info
  500 atoms
  read_restart CPU = 0.000 seconds
Changing box ...
  triclinic box = (0.05332951 0.053547421 0.054047047) to (17.736653 17.736453 17.735953) with tilt (0 0 0)
  triclinic box = (0.05332951 0.053547421 0.054047047) to (17.736653 17.736453 17.735953) with tilt (0 0 0)
  triclinic box = (0.05332951 0.053547421 0.054047047) to (17.736653 17.736453 17.735953) with tilt (0 0 0)
Neighbor list info ...
  update: every = 1 steps, delay = 0 steps, check = yes
  max neighbors/atom: 2000, page size: 100000
  master list distance cutoff = 6.80375
  ghost atom cutoff = 6.80375
  1 neighbor lists, perpetual/occasional/extra = 1 0 0
  (1) pair eam/alloy, perpetual
      attributes: half, newton on
      pair build: half/nsq/newton
      stencil: none
      bin: none
Setting up cg style minimization ...
  Unit style    : metal
  Current step  : 100
Per MPI rank memory allocation (min/avg/max) = 4.483 | 4.483 | 4.483 Mbytes
   Step          Temp          PotEng         Press           Pxx            Pyy            Pzz            Pxy            Pxz            Pyz             Lx             Ly             Lz           Volume    
       100   0             -2181.0804     -307.7128      -307.51449     -307.73027     -307.89364     -123.04357     -28.207529      7.6649107      17.683323      17.682905      17.681906      5528.9999    
       101   0             -2181.2559      641.25559      650.49692      625.67454      647.5953      -141.83016      20.542919      14.92506       17.683323      17.682905      17.681906      5528.9999    
       102   0             -2181.3187      1139.038       1182.8303      1084.3415      1149.9422     -183.42147      54.865755      14.089688      17.683323      17.682905      17.681906      5528.9999    
       103   0             -2181.3308      1074.6842      1110.0312      1001.0853      1112.9362     -193.90094      46.295006      6.7868484      17.683323      17.682905      17.681906      5528.9999    
       104   0             -2181.3366      1046.9908      1081.0206      964.19462      1095.7572     -202.57735      43.58226       4.5782217      17.683323      17.682905      17.681906      5528.9999    
       105   0             -2181.3382      1155.7364      1186.4283      1072.0451      1208.7359     -202.4355       49.429644      4.5627943      17.683323      17.682905      17.681906      5528.9999    
       106   0             -2181.3388      1138.9681      1164.2125      1057.3681      1195.3237     -204.81127      45.506468      5.9495292      17.683323      17.682905      17.681906      5528.9999    
       107   0             -2181.339       1118.4819      1142.5098      1037.5719      1175.3639     -203.45676      45.311414      8.4590436      17.683323      17.682905      17.681906      5528.9999    
       108   0             -2181.3391      1123.5033      1147.0914      1043.2438      1180.1748     -202.53436      45.067472      8.1935851      17.683323      17.682905      17.681906      5528.9999    
       109   0             -2181.3391      1126.3972      1150.4287      1045.9172      1182.8457     -203.49721      45.752545      8.0513147      17.683323      17.682905      17.681906      5528.9999    
       110   0             -2181.3391      1125.2545      1150.3366      1044.3354      1181.0916     -203.52624      45.165671      7.9697115      17.683323      17.682905      17.681906      5528.9999    
       111   0             -2181.3391      1126.84        1151.7457      1046.1108      1182.6635     -203.6263       45.175046      8.0997602      17.683323      17.682905      17.681906      5528.9999    
       112   0             -2181.3391      1125.3204      1150.1999      1044.8942      1180.8672     -203.62833      44.715706      7.9687934      17.683323      17.682905      17.681906      5528.9999    
       113   0             -2181.3392      1124.4252      1149.5384      1043.9223      1179.815      -203.71477      44.503034      7.7561917      17.683323      17.682905      17.681906      5528.9999    
       114   0             -2181.3392      1125.6255      1150.8426      1045.0252      1181.0088     -203.53938      44.544222      7.951724       17.683323      17.682905      17.681906      5528.9999    
       115   0             -2181.3392      1125.3339      1150.6793      1044.6004      1180.722      -203.51983      44.640205      7.9992699      17.683323      17.682905      17.681906      5528.9999    
       116   0             -2181.3392      1124.9543      1150.3213      1044.1734      1180.3682     -203.5747       44.639808      8.0131198      17.683323      17.682905      17.681906      5528.9999    
       117   0             -2181.3392      1124.9386      1150.2855      1044.1685      1180.362      -203.589        44.619601      7.97854        17.683323      17.682905      17.681906      5528.9999    
       118   0             -2181.3392      1124.8448      1150.2073      1044.1019      1180.2251     -203.55528      44.665166      7.9704211      17.683323      17.682905      17.681906      5528.9999    
       119   0             -2181.3392      1124.9991      1150.371       1044.2597      1180.3665     -203.57642      44.682111      7.9395888      17.683323      17.682905      17.681906      5528.9999    
       120   0             -2181.3392      1125.078       1150.46        1044.3436      1180.4305     -203.58417      44.691857      7.9514781      17.683323      17.682905      17.681906      5528.9999    
       121   0             -2181.3392      1125.0234      1150.4113      1044.2754      1180.3836     -203.57914      44.697494      7.9543125      17.683323      17.682905      17.681906      5528.9999    
       122   0             -2181.3392      1125.0351      1150.4247      1044.2774      1180.4033     -203.56546      44.698152      7.9412797      17.683323      17.682905      17.681906      5528.9999    
       123   0             -2181.3392      1125.0352      1150.4309      1044.2731      1180.4016     -203.56864      44.696305      7.9395709      17.683323      17.682905      17.681906      5528.9999    
       124   0             -2181.3392      1125.0297      1150.4267      1044.2662      1180.3962     -203.57411      44.696559      7.937261       17.683323      17.682905      17.681906      5528.9999    
       125   0             -2181.3392      1125.0319      1150.4267      1044.2708      1180.3982     -203.57397      44.696763      7.9374186      17.683323      17.682905      17.681906      5528.9999    
       126   0             -2181.3392      1125.0302      1150.4233      1044.2714      1180.3958     -203.57145      44.697705      7.9379896      17.683323      17.682905      17.681906      5528.9999    
       127   0             -2181.3392      1125.0275      1150.4221      1044.2682      1180.3923     -203.57146      44.698504      7.9378319      17.683323      17.682905      17.681906      5528.9999    
       128   0             -2181.3392      1125.0272      1150.4228      1044.267       1180.3918     -203.57125      44.698799      7.9374968      17.683323      17.682905      17.681906      5528.9999    
       129   0             -2181.3392      1125.0274      1150.4235      1044.2665      1180.3922     -203.57155      44.699         7.937688       17.683323      17.682905      17.681906      5528.9999    
       130   0             -2181.3392      1125.0269      1150.423       1044.2661      1180.3918     -203.57199      44.698637      7.9375121      17.683323      17.682905      17.681906      5528.9999    
       131   0             -2181.3392      1125.0266      1150.4227      1044.2658      1180.3914     -203.57172      44.69856       7.9375739      17.683323      17.682905      17.681906      5528.9999    
       132   0             -2181.3392      1125.0262      1150.4222      1044.2654      1180.3908     -203.5715       44.698541      7.9376512      17.683323      17.682905      17.681906      5528.9999    
       133   0             -2181.3392      1125.0264      1150.4226      1044.2656      1180.391      -203.57141      44.698401      7.9377191      17.683323      17.682905      17.681906      5528.9999    
       134   0             -2181.3392      1125.0266      1150.4228      1044.2657      1180.3913     -203.57154      44.698344      7.9377205      17.683323      17.682905      17.681906      5528.9999    
       135   0             -2181.3392      1125.0267      1150.4229      1044.2658      1180.3914     -203.57161      44.698439      7.937706       17.683323      17.682905      17.681906      5528.9999    
       136   0             -2181.3392      1125.0267      1150.4229      1044.2658      1180.3915     -203.5716       44.69846       7.9376999      17.683323      17.682905      17.681906      5528.9999    
       137   0             -2181.3392      1125.0267      1150.4229      1044.2658      1180.3915     -203.57161      44.698448      7.9376928      17.683323      17.682905      17.681906      5528.9999    
       138   0             -2181.3392      1125.0268      1150.4229      1044.2658      1180.3915     -203.57161      44.69846       7.9377063      17.683323      17.682905      17.681906      5528.9999    
       139   0             -2181.3392      1125.0268      1150.423       1044.2658      1180.3915     -203.5716       44.698467      7.9377147      17.683323      17.682905      17.681906      5528.9999    
       140   0             -2181.3392      1125.0268      1150.423       1044.2658      1180.3915     -203.5716       44.698468      7.9377133      17.683323      17.682905      17.681906      5528.9999    
       141   0             -2181.3392      1125.0268      1150.4229      1044.2658      1180.3915     -203.57161      44.698465      7.9377157      17.683323      17.682905      17.681906      5528.9999    
       142   0             -2181.3392      1125.0268      1150.4229      1044.2658      1180.3915     -203.57161      44.698462      7.9377138      17.683323      17.682905      17.681906      5528.9999    
       143   0             -2181.3392      1125.0268      1150.4229      1044.2658      1180.3915     -203.57161      44.698463      7.9377131      17.683323      17.682905      17.681906      5528.9999    
       144   0             -2181.3392      1125.0268      1150.423       1044.2658      1180.3915     -203.57161      44.698463      7.937712       17.683323      17.682905      17.681906      5528.9999    
       145   0             -2181.3392      1125.0268      1150.423       1044.2658      1180.3915     -203.57161      44.698463      7.937711       17.683323      17.682905      17.681906      5528.9999    
       146   0             -2181.3392      1125.0268      1150.4229      1044.2658      1180.3915     -203.57161      44.698463      7.9377112      17.683323      17.682905      17.681906      5528.9999    
       147   0             -2181.3392      1125.0268      1150.4229      1044.2658      1180.3915     -203.57161      44.698462      7.9377109      17.683323      17.682905      17.681906      5528.9999    
       148   0             -2181.3392      1125.0268      1150.4229      1044.2658      1180.3915     -203.57161      44.698462      7.9377113      17.683323      17.682905      17.681906      5528.9999    
       149   0             -2181.3392      1125.0268      1150.423       1044.2658      1180.3915     -203.57161      44.698462      7.9377114      17.683323      17.682905      17.681906      5528.9999    
       150   0             -2181.3392      1125.0268      1150.423       1044.2658      1180.3915     -203.57161      44.698462      7.9377113      17.683323      17.682905      17.681906      5528.9999    
       151   0             -2181.3392      1125.0268      1150.4229      1044.2658      1180.3915     -203.57161      44.698462      7.9377113      17.683323      17.682905      17.681906      5528.9999    
       152   0             -2181.3392      1125.0268      1150.423       1044.2658      1180.3915     -203.57161      44.698462      7.9377113      17.683323      17.682905      17.681906      5528.9999    
       153   0             -2181.3392      1125.0268      1150.423       1044.2658      1180.3915     -203.57161      44.698462      7.9377113      17.683323      17.682905      17.681906      5528.9999    
       154   0             -2181.3392      1125.0268      1150.423       1044.2658      1180.3915     -203.57161      44.698462      7.9377113      17.683323      17.682905      17.681906      5528.9999    
       155   0             -2181.3392      1125.0268      1150.423       1044.2658      1180.3915     -203.57161      44.698462      7.9377113      17.683323      17.682905      17.681906      5528.9999    
       156   0             -2181.3392      1125.0268      1150.423       1044.2658      1180.3915     -203.57161      44.698462      7.9377114      17.683323      17.682905      17.681906      5528.9999    
       157   0             -2181.3392      1125.0268      1150.423       1044.2658      1180.3915     -203.57161      44.698462      7.9377114      17.683323      17.682905      17.681906      5528.9999    
       158   0             -2181.3392      1125.0268      1150.423       1044.2658      1180.3915     -203.57161      44.698462      7.9377114      17.683323      17.682905      17.681906      5528.9999    
       159   0             -2181.3392      1125.0268      1150.423       1044.2658      1180.3915     -203.57161      44.698462      7.9377114      17.683323      17.682905      17.681906      5528.9999    
       160   0             -2181.3392      1125.0268      1150.423       1044.2658      1180.3915     -203.57161      44.698462      7.9377114      17.683323      17.682905      17.681906      5528.9999    
Loop time of 0.139645 on 1 procs for 60 steps with 500 atoms

100.7% CPU use with 1 MPI tasks x 1 OpenMP threads

Minimization stats:
  Stopping criterion = force tolerance
  Energy initial, next-to-last, final = 
      -2181.0804336485  -2181.33915463624  -2181.33915463625
  Force two-norm initial, final = 2.0961033 8.1208249e-11
  Force max component initial, final = 0.17136519 9.5995283e-12
  Final line search alpha, max atom move = 1 9.5995283e-12
  Iterations, force evaluations = 60 118

MPI task timing breakdown:
Section |  min time  |  avg time  |  max time  |%varavg| %total
---------------------------------------------------------------
Pair    | 0.13712    | 0.13712    | 0.13712    |   0.0 | 98.19
Neigh   | 0          | 0          | 0          |   0.0 |  0.00
Comm    | 0.000706   | 0.000706   | 0.000706   |   0.0 |  0.51
Output  | 0.000886   | 0.000886   | 0.000886   |   0.0 |  0.63
Modify  | 0          | 0          | 0          |   0.0 |  0.00
Other   |            | 0.000931   |            |       |  0.67

Nlocal:            500 ave         500 max         500 min
Histogram: 1 0 0 0 0 0 0 0 0 0
Nghost:           1956 ave        1956 max        1956 min
Histogram: 1 0 0 0 0 0 0 0 0 0
Neighs:          33500 ave       33500 max       33500 min
Histogram: 1 0 0 0 0 0 0 0 0 0

Total # of neighbors = 33500
Ave neighs/atom = 67
Neighbor list builds = 0
Dangerous builds = 0
OMP_NUM_THREADS environment is not set. Defaulting to 1 thread. (src/comm.cpp:98)
  using 1 OpenMP thread(s) per MPI task
Loaded 1 plugins from F:\Lammps\LAMMPS 64-bit 2Aug2023\plugins

The 'box' command has been removed and will be ignored

Reading restart file ...
  restart file = 2 Aug 2023, LAMMPS = 2 Aug 2023
  restoring atom style atomic from restart
  triclinic box = (0.05332951 0.053547421 0.054047047) to (17.73667 17.736453 17.735953) with tilt (0 0 0)
  1 by 1 by 1 MPI processor grid
  pair style eam/alloy stores no restart info
  500 atoms
  read_restart CPU = 0.000 seconds
Changing box ...
  triclinic box = (0.05332951 0.053547421 0.054047047) to (17.736688 17.736453 17.735953) with tilt (0 0 0)
  triclinic box = (0.05332951 0.053547421 0.054047047) to (17.736688 17.736453 17.735953) with tilt (0 0 0)
  triclinic box = (0.05332951 0.053547421 0.054047047) to (17.736688 17.736453 17.735953) with tilt (0 0 0)
Neighbor list info ...
  update: every = 1 steps, delay = 0 steps, check = yes
  max neighbors/atom: 2000, page size: 100000
  master list distance cutoff = 6.80375
  ghost atom cutoff = 6.80375
  1 neighbor lists, perpetual/occasional/extra = 1 0 0
  (1) pair eam/alloy, perpetual
      attributes: half, newton on
      pair build: half/nsq/newton
      stencil: none
      bin: none
Setting up cg style minimization ...
  Unit style    : metal
  Current step  : 100
Per MPI rank memory allocation (min/avg/max) = 4.483 | 4.483 | 4.483 Mbytes
   Step          Temp          PotEng         Press           Pxx            Pyy            Pzz            Pxy            Pxz            Pyz             Lx             Ly             Lz           Volume    
       100   0             -2181.0804     -311.44758     -312.47292     -310.85018     -311.01965     -123.03593     -28.210093      7.6637195      17.683359      17.682905      17.681906      5529.0109    
       101   0             -2181.256       637.53063      645.5521       622.56368      644.4761      -141.82351      20.539499      14.924545      17.683359      17.682905      17.681906      5529.0109    
       102   0             -2181.3187      1135.3702      1177.9406      1081.2929      1146.8772     -183.41384      54.864398      14.090234      17.683359      17.682905      17.681906      5529.0109    
       103   0             -2181.3308      1070.96        1105.0867      997.97826      1109.815      -193.89744      46.290246      6.7865277      17.683359      17.682905      17.681906      5529.0109    
       104   0             -2181.3366      1043.318       1076.1287      961.13998      1092.6852     -202.57242      43.581303      4.5789144      17.683359      17.682905      17.681906      5529.0109    
       105   0             -2181.3382      1152.0668      1181.538       1068.9945      1205.668      -202.43067      49.428365      4.5628198      17.683359      17.682905      17.681906      5529.0109    
       106   0             -2181.3388      1135.2842      1159.3085      1054.3028      1192.2413     -204.80678      45.505244      5.9500987      17.683359      17.682905      17.681906      5529.0109    
       107   0             -2181.339       1114.806       1137.6142      1034.5143      1172.2895     -203.45167      45.310263      8.4593697      17.683359      17.682905      17.681906      5529.0109    
       108   0             -2181.3391      1119.8285      1142.1966      1040.1874      1177.1016     -202.52955      45.066169      8.1937922      17.683359      17.682905      17.681906      5529.0109    
       109   0             -2181.3391      1122.7199      1145.532       1042.8581      1179.7697     -203.49241      45.751272      8.0516639      17.683359      17.682905      17.681906      5529.0109    
       110   0             -2181.3391      1121.5795      1145.442       1041.2786      1178.0178     -203.52128      45.164315      7.9699954      17.683359      17.682905      17.681906      5529.0109    
       111   0             -2181.3391      1123.1649      1146.8509      1043.054       1179.5898     -203.62133      45.173748      8.100077       17.683359      17.682905      17.681906      5529.0109    
       112   0             -2181.3392      1121.6437      1145.3036      1041.8357      1177.7918     -203.62339      44.714373      7.9690522      17.683359      17.682905      17.681906      5529.0109    
       113   0             -2181.3392      1120.7496      1144.6432      1040.865       1176.7408     -203.70979      44.501721      7.7564654      17.683359      17.682905      17.681906      5529.0109    
       114   0             -2181.3392      1121.9498      1145.9473      1041.9678      1177.9345     -203.53446      44.542932      7.9520094      17.683359      17.682905      17.681906      5529.0109    
       115   0             -2181.3392      1121.6578      1145.7835      1041.5426      1177.6472     -203.51492      44.638936      7.9995387      17.683359      17.682905      17.681906      5529.0109    
       116   0             -2181.3392      1121.2784      1145.4257      1041.1158      1177.2936     -203.56975      44.638503      8.0133871      17.683359      17.682905      17.681906      5529.0109    
       117   0             -2181.3392      1121.2626      1145.3897      1041.1108      1177.2874     -203.58404      44.6183        7.9788109      17.683359      17.682905      17.681906      5529.0109    
       118   0             -2181.3392      1121.1687      1145.3116      1041.0442      1177.1504     -203.55033      44.663863      7.9706876      17.683359      17.682905      17.681906      5529.0109    
       119   0             -2181.3392      1121.3231      1145.4754      1041.2021      1177.292      -203.57146      44.680806      7.9398546      17.683359      17.682905      17.681906      5529.0109    
       120   0             -2181.3392      1121.402       1145.5643      1041.286       1177.3559     -203.57921      44.690553      7.9517523      17.683359      17.682905      17.681906      5529.0109    
       121   0             -2181.3392      1121.3474      1145.5156      1041.2177      1177.3089     -203.57419      44.69619       7.9545757      17.683359      17.682905      17.681906      5529.0109    
       122   0             -2181.3392      1121.3592      1145.529       1041.2198      1177.3287     -203.56051      44.696846      7.9415481      17.683359      17.682905      17.681906      5529.0109    
       123   0             -2181.3392      1121.3592      1145.5351      1041.2154      1177.327      -203.56369      44.695001      7.9398387      17.683359      17.682905      17.681906      5529.0109    
       124   0             -2181.3392      1121.3537      1145.531       1041.2086      1177.3216     -203.56916      44.695256      7.9375298      17.683359      17.682905      17.681906      5529.0109    
       125   0             -2181.3392      1121.3559      1145.531       1041.2131      1177.3236     -203.56902      44.695459      7.9376878      17.683359      17.682905      17.681906      5529.0109    
       126   0             -2181.3392      1121.3542      1145.5275      1041.2138      1177.3212     -203.56649      44.696401      7.9382589      17.683359      17.682905      17.681906      5529.0109    
       127   0             -2181.3392      1121.3516      1145.5264      1041.2106      1177.3177     -203.5665       44.6972        7.9381008      17.683359      17.682905      17.681906      5529.0109    
       128   0             -2181.3392      1121.3512      1145.5271      1041.2093      1177.3172     -203.5663       44.697495      7.937766       17.683359      17.682905      17.681906      5529.0109    
       129   0             -2181.3392      1121.3514      1145.5278      1041.2088      1177.3176     -203.5666       44.697696      7.9379572      17.683359      17.682905      17.681906      5529.0109    
       130   0             -2181.3392      1121.3509      1145.5272      1041.2084      1177.3172     -203.56703      44.697333      7.9377812      17.683359      17.682905      17.681906      5529.0109    
       131   0             -2181.3392      1121.3506      1145.527       1041.2082      1177.3168     -203.56677      44.697256      7.9378432      17.683359      17.682905      17.681906      5529.0109    
       132   0             -2181.3392      1121.3502      1145.5265      1041.2078      1177.3162     -203.56655      44.697237      7.9379204      17.683359      17.682905      17.681906      5529.0109    
       133   0             -2181.3392      1121.3504      1145.5269      1041.2079      1177.3164     -203.56646      44.697098      7.9379884      17.683359      17.682905      17.681906      5529.0109    
       134   0             -2181.3392      1121.3506      1145.5271      1041.2081      1177.3167     -203.56658      44.69704       7.9379897      17.683359      17.682905      17.681906      5529.0109    
       135   0             -2181.3392      1121.3507      1145.5272      1041.2082      1177.3168     -203.56665      44.697135      7.9379753      17.683359      17.682905      17.681906      5529.0109    
       136   0             -2181.3392      1121.3507      1145.5271      1041.2082      1177.3169     -203.56665      44.697156      7.9379692      17.683359      17.682905      17.681906      5529.0109    
       137   0             -2181.3392      1121.3507      1145.5272      1041.2081      1177.3169     -203.56665      44.697144      7.9379621      17.683359      17.682905      17.681906      5529.0109    
       138   0             -2181.3392      1121.3508      1145.5272      1041.2082      1177.3169     -203.56665      44.697156      7.9379756      17.683359      17.682905      17.681906      5529.0109    
       139   0             -2181.3392      1121.3508      1145.5272      1041.2082      1177.3169     -203.56665      44.697163      7.937984       17.683359      17.682905      17.681906      5529.0109    
       140   0             -2181.3392      1121.3508      1145.5272      1041.2082      1177.3169     -203.56665      44.697164      7.9379826      17.683359      17.682905      17.681906      5529.0109    
       141   0             -2181.3392      1121.3508      1145.5272      1041.2082      1177.3169     -203.56665      44.697161      7.937985       17.683359      17.682905      17.681906      5529.0109    
       142   0             -2181.3392      1121.3508      1145.5272      1041.2082      1177.3169     -203.56665      44.697158      7.9379831      17.683359      17.682905      17.681906      5529.0109    
       143   0             -2181.3392      1121.3508      1145.5272      1041.2082      1177.3169     -203.56666      44.697159      7.9379824      17.683359      17.682905      17.681906      5529.0109    
       144   0             -2181.3392      1121.3508      1145.5272      1041.2082      1177.3169     -203.56665      44.697159      7.9379813      17.683359      17.682905      17.681906      5529.0109    
       145   0             -2181.3392      1121.3508      1145.5272      1041.2082      1177.3169     -203.56666      44.697159      7.9379803      17.683359      17.682905      17.681906      5529.0109    
       146   0             -2181.3392      1121.3508      1145.5272      1041.2082      1177.3169     -203.56665      44.697159      7.9379805      17.683359      17.682905      17.681906      5529.0109    
       147   0             -2181.3392      1121.3508      1145.5272      1041.2082      1177.3169     -203.56665      44.697159      7.9379802      17.683359      17.682905      17.681906      5529.0109    
       148   0             -2181.3392      1121.3508      1145.5272      1041.2082      1177.3169     -203.56665      44.697158      7.9379806      17.683359      17.682905      17.681906      5529.0109    
       149   0             -2181.3392      1121.3508      1145.5272      1041.2082      1177.3169     -203.56665      44.697158      7.9379807      17.683359      17.682905      17.681906      5529.0109    
       150   0             -2181.3392      1121.3508      1145.5272      1041.2082      1177.3169     -203.56665      44.697158      7.9379806      17.683359      17.682905      17.681906      5529.0109    
       151   0             -2181.3392      1121.3508      1145.5272      1041.2082      1177.3169     -203.56665      44.697158      7.9379806      17.683359      17.682905      17.681906      5529.0109    
       152   0             -2181.3392      1121.3508      1145.5272      1041.2082      1177.3169     -203.56665      44.697158      7.9379806      17.683359      17.682905      17.681906      5529.0109    
       153   0             -2181.3392      1121.3508      1145.5272      1041.2082      1177.3169     -203.56665      44.697158      7.9379806      17.683359      17.682905      17.681906      5529.0109    
       154   0             -2181.3392      1121.3508      1145.5272      1041.2082      1177.3169     -203.56665      44.697158      7.9379806      17.683359      17.682905      17.681906      5529.0109    
       155   0             -2181.3392      1121.3508      1145.5272      1041.2082      1177.3169     -203.56665      44.697158      7.9379806      17.683359      17.682905      17.681906      5529.0109    
       156   0             -2181.3392      1121.3508      1145.5272      1041.2082      1177.3169     -203.56665      44.697158      7.9379806      17.683359      17.682905      17.681906      5529.0109    
       157   0             -2181.3392      1121.3508      1145.5272      1041.2082      1177.3169     -203.56665      44.697158      7.9379807      17.683359      17.682905      17.681906      5529.0109    
       158   0             -2181.3392      1121.3508      1145.5272      1041.2082      1177.3169     -203.56665      44.697158      7.9379807      17.683359      17.682905      17.681906      5529.0109    
       159   0             -2181.3392      1121.3508      1145.5272      1041.2082      1177.3169     -203.56665      44.697158      7.9379807      17.683359      17.682905      17.681906      5529.0109    
       160   0             -2181.3392      1121.3508      1145.5272      1041.2082      1177.3169     -203.56665      44.697158      7.9379807      17.683359      17.682905      17.681906      5529.0109    
Loop time of 0.146277 on 1 procs for 60 steps with 500 atoms

96.1% CPU use with 1 MPI tasks x 1 OpenMP threads

Minimization stats:
  Stopping criterion = force tolerance
  Energy initial, next-to-last, final = 
     -2181.08043150899  -2181.33916255939   -2181.3391625594
  Force two-norm initial, final = 2.0961529 8.1208471e-11
  Force max component initial, final = 0.17137068 9.5870439e-12
  Final line search alpha, max atom move = 1 9.5870439e-12
  Iterations, force evaluations = 60 118

MPI task timing breakdown:
Section |  min time  |  avg time  |  max time  |%varavg| %total
---------------------------------------------------------------
Pair    | 0.14336    | 0.14336    | 0.14336    |   0.0 | 98.00
Neigh   | 0          | 0          | 0          |   0.0 |  0.00
Comm    | 0.000768   | 0.000768   | 0.000768   |   0.0 |  0.53
Output  | 0.001036   | 0.001036   | 0.001036   |   0.0 |  0.71
Modify  | 0          | 0          | 0          |   0.0 |  0.00
Other   |            | 0.001116   |            |       |  0.76

Nlocal:            500 ave         500 max         500 min
Histogram: 1 0 0 0 0 0 0 0 0 0
Nghost:           1956 ave        1956 max        1956 min
Histogram: 1 0 0 0 0 0 0 0 0 0
Neighs:          33500 ave       33500 max       33500 min
Histogram: 1 0 0 0 0 0 0 0 0 0

Total # of neighbors = 33500
Ave neighs/atom = 67
Neighbor list builds = 0
Dangerous builds = 0
OMP_NUM_THREADS environment is not set. Defaulting to 1 thread. (src/comm.cpp:98)
  using 1 OpenMP thread(s) per MPI task
Loaded 1 plugins from F:\Lammps\LAMMPS 64-bit 2Aug2023\plugins

The 'box' command has been removed and will be ignored

Reading restart file ...
  restart file = 2 Aug 2023, LAMMPS = 2 Aug 2023
  restoring atom style atomic from restart
  triclinic box = (0.05332951 0.053547421 0.054047047) to (17.73667 17.736453 17.735953) with tilt (0 0 0)
  1 by 1 by 1 MPI processor grid
  pair style eam/alloy stores no restart info
  500 atoms
  read_restart CPU = 0.000 seconds
Changing box ...
  triclinic box = (0.05332951 0.053547421 0.054047047) to (17.73667 17.736435 17.735953) with tilt (0 0 0)
  triclinic box = (0.05332951 0.053547421 0.054047047) to (17.73667 17.736435 17.735953) with tilt (0 0 0)
Neighbor list info ...
  update: every = 1 steps, delay = 0 steps, check = yes
  max neighbors/atom: 2000, page size: 100000
  master list distance cutoff = 6.80375
  ghost atom cutoff = 6.80375
  1 neighbor lists, perpetual/occasional/extra = 1 0 0
  (1) pair eam/alloy, perpetual
      attributes: half, newton on
      pair build: half/nsq/newton
      stencil: none
      bin: none
Setting up cg style minimization ...
  Unit style    : metal
  Current step  : 100
Per MPI rank memory allocation (min/avg/max) = 4.483 | 4.483 | 4.483 Mbytes
   Step          Temp          PotEng         Press           Pxx            Pyy            Pzz            Pxy            Pxz            Pyz             Lx             Ly             Lz           Volume    
       100   0             -2181.0804     -307.7164      -308.43375     -306.81772     -307.89772     -123.04344     -28.208803      7.6647017      17.683341      17.682887      17.681906      5528.9999    
       101   0             -2181.2559      641.24682      649.57583      626.57889      647.58574     -141.82993      20.541105      14.924621      17.683341      17.682887      17.681906      5528.9999    
       102   0             -2181.3187      1139.0411      1181.9197      1085.2595      1149.9442     -183.42167      54.863965      14.087765      17.683341      17.682887      17.681906      5528.9999    
       103   0             -2181.3308      1074.6789      1109.1125      1001.995       1112.9291     -193.90121      46.292929      6.7844536      17.683341      17.682887      17.681906      5528.9999    
       104   0             -2181.3366      1046.9862      1080.1022      965.10544      1095.7511     -202.57678      43.580421      4.5759622      17.683341      17.682887      17.681906      5528.9999    
       105   0             -2181.3382      1155.7316      1185.5083      1072.9571      1208.7294     -202.43481      49.427711      4.5601181      17.683341      17.682887      17.681906      5528.9999    
       106   0             -2181.3388      1138.9624      1163.2923      1058.2785      1195.3163     -204.81068      45.504671      5.9469235      17.683341      17.682887      17.681906      5528.9999    
       107   0             -2181.339       1118.4771      1141.5907      1038.4832      1175.3574     -203.45605      45.309545      8.4564766      17.683341      17.682887      17.681906      5528.9999    
       108   0             -2181.3391      1123.4989      1146.1726      1044.1555      1180.1686     -202.53372      45.06563       8.1909549      17.683341      17.682887      17.681906      5528.9999    
       109   0             -2181.3391      1126.3924      1149.5097      1046.8284      1182.8391     -203.49651      45.750684      8.0487232      17.683341      17.682887      17.681906      5528.9999    
       110   0             -2181.3391      1125.2498      1149.4178      1045.2466      1181.0851     -203.52551      45.163787      7.9671099      17.683341      17.682887      17.681906      5528.9999    
       111   0             -2181.3391      1126.8354      1150.827       1047.0222      1182.6571     -203.62555      45.173198      8.0971952      17.683341      17.682887      17.681906      5528.9999    
       112   0             -2181.3391      1125.3156      1149.281       1045.8052      1180.8606     -203.62758      44.71383       7.9661892      17.683341      17.682887      17.681906      5528.9999    
       113   0             -2181.3392      1124.4205      1148.6196      1044.8334      1179.8085     -203.71402      44.501175      7.7536029      17.683341      17.682887      17.681906      5528.9999    
       114   0             -2181.3392      1125.6208      1149.9238      1045.9362      1181.0023     -203.53863      44.542358      7.9491292      17.683341      17.682887      17.681906      5528.9999    
       115   0             -2181.3392      1125.329       1149.7603      1045.5113      1180.7154     -203.51908      44.63835       7.996668       17.683341      17.682887      17.681906      5528.9999    
       116   0             -2181.3392      1124.9495      1149.4024      1045.0844      1180.3616     -203.57395      44.63795       8.0105201      17.683341      17.682887      17.681906      5528.9999    
       117   0             -2181.3392      1124.9338      1149.3665      1045.0795      1180.3555     -203.58824      44.617743      7.9759395      17.683341      17.682887      17.681906      5528.9999    
       118   0             -2181.3392      1124.8399      1149.2884      1045.0129      1180.2185     -203.55452      44.663307      7.9678227      17.683341      17.682887      17.681906      5528.9999    
       119   0             -2181.3392      1124.9942      1149.4521      1045.1707      1180.3599     -203.57566      44.680248      7.9369833      17.683341      17.682887      17.681906      5528.9999    
       120   0             -2181.3392      1125.0732      1149.5411      1045.2546      1180.4239     -203.58341      44.689995      7.9488772      17.683341      17.682887      17.681906      5528.9999    
       121   0             -2181.3392      1125.0186      1149.4924      1045.1864      1180.377      -203.57838      44.695633      7.9517089      17.683341      17.682887      17.681906      5528.9999    
       122   0             -2181.3392      1125.0303      1149.5057      1045.1884      1180.3968     -203.5647       44.696291      7.9386772      17.683341      17.682887      17.681906      5528.9999    
       123   0             -2181.3392      1125.0303      1149.5119      1045.184       1180.395      -203.56788      44.694445      7.9369681      17.683341      17.682887      17.681906      5528.9999    
       124   0             -2181.3392      1125.0249      1149.5078      1045.1772      1180.3896     -203.57335      44.694699      7.9346584      17.683341      17.682887      17.681906      5528.9999    
       125   0             -2181.3392      1125.027       1149.5078      1045.1818      1180.3916     -203.57322      44.694903      7.9348164      17.683341      17.682887      17.681906      5528.9999    
       126   0             -2181.3392      1125.0253      1149.5043      1045.1824      1180.3893     -203.57069      44.695845      7.9353874      17.683341      17.682887      17.681906      5528.9999    
       127   0             -2181.3392      1125.0227      1149.5032      1045.1792      1180.3857     -203.5707       44.696644      7.9352296      17.683341      17.682887      17.681906      5528.9999    
       128   0             -2181.3392      1125.0224      1149.5039      1045.1779      1180.3852     -203.5705       44.696939      7.9348946      17.683341      17.682887      17.681906      5528.9999    
       129   0             -2181.3392      1125.0225      1149.5046      1045.1775      1180.3856     -203.57079      44.69714       7.9350857      17.683341      17.682887      17.681906      5528.9999    
       130   0             -2181.3392      1125.0221      1149.504       1045.177       1180.3852     -203.57123      44.696777      7.9349098      17.683341      17.682887      17.681906      5528.9999    
       131   0             -2181.3392      1125.0218      1149.5037      1045.1768      1180.3848     -203.57096      44.6967        7.9349717      17.683341      17.682887      17.681906      5528.9999    
       132   0             -2181.3392      1125.0213      1149.5033      1045.1764      1180.3842     -203.57074      44.696681      7.935049       17.683341      17.682887      17.681906      5528.9999    
       133   0             -2181.3392      1125.0216      1149.5037      1045.1766      1180.3844     -203.57065      44.696541      7.935117       17.683341      17.682887      17.681906      5528.9999    
       134   0             -2181.3392      1125.0218      1149.5039      1045.1767      1180.3847     -203.57078      44.696484      7.9351183      17.683341      17.682887      17.681906      5528.9999    
       135   0             -2181.3392      1125.0219      1149.5039      1045.1768      1180.3849     -203.57085      44.696579      7.9351039      17.683341      17.682887      17.681906      5528.9999    
       136   0             -2181.3392      1125.0219      1149.5039      1045.1768      1180.3849     -203.57084      44.6966        7.9350977      17.683341      17.682887      17.681906      5528.9999    
       137   0             -2181.3392      1125.0219      1149.504       1045.1768      1180.3849     -203.57085      44.696588      7.9350907      17.683341      17.682887      17.681906      5528.9999    
       138   0             -2181.3392      1125.0219      1149.504       1045.1768      1180.385      -203.57085      44.6966        7.9351042      17.683341      17.682887      17.681906      5528.9999    
       139   0             -2181.3392      1125.0219      1149.504       1045.1768      1180.385      -203.57085      44.696606      7.9351125      17.683341      17.682887      17.681906      5528.9999    
       140   0             -2181.3392      1125.0219      1149.504       1045.1768      1180.385      -203.57084      44.696608      7.9351111      17.683341      17.682887      17.681906      5528.9999    
       141   0             -2181.3392      1125.0219      1149.504       1045.1768      1180.3849     -203.57085      44.696605      7.9351135      17.683341      17.682887      17.681906      5528.9999    
       142   0             -2181.3392      1125.0219      1149.504       1045.1768      1180.3849     -203.57085      44.696602      7.9351116      17.683341      17.682887      17.681906      5528.9999    
       143   0             -2181.3392      1125.0219      1149.504       1045.1768      1180.3849     -203.57085      44.696602      7.9351109      17.683341      17.682887      17.681906      5528.9999    
       144   0             -2181.3392      1125.0219      1149.504       1045.1768      1180.3849     -203.57085      44.696603      7.9351098      17.683341      17.682887      17.681906      5528.9999    
       145   0             -2181.3392      1125.0219      1149.504       1045.1768      1180.3849     -203.57085      44.696603      7.9351088      17.683341      17.682887      17.681906      5528.9999    
       146   0             -2181.3392      1125.0219      1149.504       1045.1768      1180.3849     -203.57085      44.696602      7.935109       17.683341      17.682887      17.681906      5528.9999    
       147   0             -2181.3392      1125.0219      1149.504       1045.1768      1180.3849     -203.57085      44.696602      7.9351087      17.683341      17.682887      17.681906      5528.9999    
       148   0             -2181.3392      1125.0219      1149.504       1045.1768      1180.3849     -203.57085      44.696602      7.9351091      17.683341      17.682887      17.681906      5528.9999    
       149   0             -2181.3392      1125.0219      1149.504       1045.1768      1180.3849     -203.57085      44.696602      7.9351093      17.683341      17.682887      17.681906      5528.9999    
       150   0             -2181.3392      1125.0219      1149.504       1045.1768      1180.3849     -203.57085      44.696602      7.9351092      17.683341      17.682887      17.681906      5528.9999    
       151   0             -2181.3392      1125.0219      1149.504       1045.1768      1180.3849     -203.57085      44.696602      7.9351091      17.683341      17.682887      17.681906      5528.9999    
       152   0             -2181.3392      1125.0219      1149.504       1045.1768      1180.3849     -203.57085      44.696602      7.9351091      17.683341      17.682887      17.681906      5528.9999    
       153   0             -2181.3392      1125.0219      1149.504       1045.1768      1180.3849     -203.57085      44.696602      7.9351092      17.683341      17.682887      17.681906      5528.9999    
       154   0             -2181.3392      1125.0219      1149.504       1045.1768      1180.3849     -203.57085      44.696602      7.9351092      17.683341      17.682887      17.681906      5528.9999    
       155   0             -2181.3392      1125.0219      1149.504       1045.1768      1180.3849     -203.57085      44.696602      7.9351092      17.683341      17.682887      17.681906      5528.9999    
       156   0             -2181.3392      1125.0219      1149.504       1045.1768      1180.3849     -203.57085      44.696602      7.9351092      17.683341      17.682887      17.681906      5528.9999    
       157   0             -2181.3392      1125.0219      1149.504       1045.1768      1180.3849     -203.57085      44.696602      7.9351092      17.683341      17.682887      17.681906      5528.9999    
       158   0             -2181.3392      1125.0219      1149.504       1045.1768      1180.3849     -203.57085      44.696602      7.9351092      17.683341      17.682887      17.681906      5528.9999    
       159   0             -2181.3392      1125.0219      1149.504       1045.1768      1180.3849     -203.57085      44.696602      7.9351092      17.683341      17.682887      17.681906      5528.9999    
       160   0             -2181.3392      1125.0219      1149.504       1045.1768      1180.3849     -203.57085      44.696602      7.9351092      17.683341      17.682887      17.681906      5528.9999    
Loop time of 0.141098 on 1 procs for 60 steps with 500 atoms

99.7% CPU use with 1 MPI tasks x 1 OpenMP threads

Minimization stats:
  Stopping criterion = force tolerance
  Energy initial, next-to-last, final = 
     -2181.08043364612  -2181.33915499942  -2181.33915499942
  Force two-norm initial, final = 2.0961038 8.1218574e-11
  Force max component initial, final = 0.17136588 9.5992791e-12
  Final line search alpha, max atom move = 1 9.5992791e-12
  Iterations, force evaluations = 60 118

MPI task timing breakdown:
Section |  min time  |  avg time  |  max time  |%varavg| %total
---------------------------------------------------------------
Pair    | 0.13838    | 0.13838    | 0.13838    |   0.0 | 98.07
Neigh   | 0          | 0          | 0          |   0.0 |  0.00
Comm    | 0.00076    | 0.00076    | 0.00076    |   0.0 |  0.54
Output  | 0.000992   | 0.000992   | 0.000992   |   0.0 |  0.70
Modify  | 0          | 0          | 0          |   0.0 |  0.00
Other   |            | 0.000971   |            |       |  0.69

Nlocal:            500 ave         500 max         500 min
Histogram: 1 0 0 0 0 0 0 0 0 0
Nghost:           1956 ave        1956 max        1956 min
Histogram: 1 0 0 0 0 0 0 0 0 0
Neighs:          33500 ave       33500 max       33500 min
Histogram: 1 0 0 0 0 0 0 0 0 0

Total # of neighbors = 33500
Ave neighs/atom = 67
Neighbor list builds = 0
Dangerous builds = 0
OMP_NUM_THREADS environment is not set. Defaulting to 1 thread. (src/comm.cpp:98)
  using 1 OpenMP thread(s) per MPI task
Loaded 1 plugins from F:\Lammps\LAMMPS 64-bit 2Aug2023\plugins

The 'box' command has been removed and will be ignored

Reading restart file ...
  restart file = 2 Aug 2023, LAMMPS = 2 Aug 2023
  restoring atom style atomic from restart
  triclinic box = (0.05332951 0.053547421 0.054047047) to (17.73667 17.736453 17.735953) with tilt (0 0 0)
  1 by 1 by 1 MPI processor grid
  pair style eam/alloy stores no restart info
  500 atoms
  read_restart CPU = 0.000 seconds
Changing box ...
  triclinic box = (0.05332951 0.053547421 0.054047047) to (17.73667 17.73647 17.735953) with tilt (0 0 0)
  triclinic box = (0.05332951 0.053547421 0.054047047) to (17.73667 17.73647 17.735953) with tilt (0 0 0)
Neighbor list info ...
  update: every = 1 steps, delay = 0 steps, check = yes
  max neighbors/atom: 2000, page size: 100000
  master list distance cutoff = 6.80375
  ghost atom cutoff = 6.80375
  1 neighbor lists, perpetual/occasional/extra = 1 0 0
  (1) pair eam/alloy, perpetual
      attributes: half, newton on
      pair build: half/nsq/newton
      stencil: none
      bin: none
Setting up cg style minimization ...
  Unit style    : metal
  Current step  : 100
Per MPI rank memory allocation (min/avg/max) = 4.483 | 4.483 | 4.483 Mbytes
   Step          Temp          PotEng         Press           Pxx            Pyy            Pzz            Pxy            Pxz            Pyz             Lx             Ly             Lz           Volume    
       100   0             -2181.0804     -311.44399     -311.55366     -311.76273     -311.01557     -123.03606     -28.208819      7.6639284      17.683341      17.682923      17.681906      5529.0109    
       101   0             -2181.256       637.53939      646.47319      621.65934      644.48566     -141.82374      20.541313      14.924983      17.683341      17.682923      17.681906      5529.0109    
       102   0             -2181.3187      1135.3671      1178.8513      1080.3749      1146.8752     -183.41364      54.86619       14.092157      17.683341      17.682923      17.681906      5529.0109    
       103   0             -2181.3308      1070.9654      1106.0054      997.06856      1109.8221     -193.89718      46.292322      6.7889223      17.683341      17.682923      17.681906      5529.0109    
       104   0             -2181.3366      1043.3226      1077.0471      960.22916      1092.6914     -202.57299      43.583143      4.5811736      17.683341      17.682923      17.681906      5529.0109    
       105   0             -2181.3382      1152.0717      1182.458       1068.0826      1205.6745     -202.43136      49.430298      4.5654962      17.683341      17.682923      17.681906      5529.0109    
       106   0             -2181.3388      1135.2899      1160.2287      1053.3923      1192.2487     -204.80737      45.507041      5.9527043      17.683341      17.682923      17.681906      5529.0109    
       107   0             -2181.339       1114.8107      1138.5332      1033.603       1172.296      -203.45238      45.312132      8.4619364      17.683341      17.682923      17.681906      5529.0109    
       108   0             -2181.3391      1119.833       1143.1154      1039.2757      1177.1078     -202.53019      45.068011      8.1964235      17.683341      17.682923      17.681906      5529.0109    
       109   0             -2181.3391      1122.7247      1146.451       1041.9469      1179.7763     -203.49311      45.753132      8.0542555      17.683341      17.682923      17.681906      5529.0109    
       110   0             -2181.3391      1121.5842      1146.3608      1040.3674      1178.0244     -203.52201      45.166199      7.9725971      17.683341      17.682923      17.681906      5529.0109    
       111   0             -2181.3391      1123.1695      1147.7696      1042.1427      1179.5962     -203.62208      45.175596      8.1026425      17.683341      17.682923      17.681906      5529.0109    
       112   0             -2181.3392      1121.6485      1146.2225      1040.9247      1177.7984     -203.62413      44.71625       7.9716563      17.683341      17.682923      17.681906      5529.0109    
       113   0             -2181.3392      1120.7543      1145.562       1039.9539      1176.7472     -203.71054      44.50358       7.7590542      17.683341      17.682923      17.681906      5529.0109    
       114   0             -2181.3392      1121.9546      1146.8661      1041.0567      1177.941      -203.53521      44.544796      7.9546042      17.683341      17.682923      17.681906      5529.0109    
       115   0             -2181.3392      1121.6626      1146.7025      1040.6316      1177.6538     -203.51568      44.640791      8.0021406      17.683341      17.682923      17.681906      5529.0109    
       116   0             -2181.3392      1121.2832      1146.3446      1040.2047      1177.3002     -203.5705       44.640362      8.0159866      17.683341      17.682923      17.681906      5529.0109    
       117   0             -2181.3392      1121.2675      1146.3086      1040.1998      1177.2939     -203.5848       44.620158      7.9814113      17.683341      17.682923      17.681906      5529.0109    
       118   0             -2181.3392      1121.1736      1146.2305      1040.1332      1177.157      -203.55109      44.665722      7.9732863      17.683341      17.682923      17.681906      5529.0109    
       119   0             -2181.3392      1121.328       1146.3943      1040.2911      1177.2985     -203.57222      44.682668      7.9424599      17.683341      17.682923      17.681906      5529.0109    
       120   0             -2181.3392      1121.4069      1146.4833      1040.375       1177.3624     -203.57997      44.692414      7.954353       17.683341      17.682923      17.681906      5529.0109    
       121   0             -2181.3392      1121.3523      1146.4345      1040.3067      1177.3155     -203.57494      44.69805       7.9571793      17.683341      17.682923      17.681906      5529.0109    
       122   0             -2181.3392      1121.364       1146.4479      1040.3088      1177.3353     -203.56126      44.698707      7.9441504      17.683341      17.682923      17.681906      5529.0109    
       123   0             -2181.3392      1121.364       1146.4541      1040.3044      1177.3336     -203.56445      44.696862      7.9424411      17.683341      17.682923      17.681906      5529.0109    
       124   0             -2181.3392      1121.3586      1146.4499      1040.2976      1177.3282     -203.56992      44.697116      7.9401322      17.683341      17.682923      17.681906      5529.0109    
       125   0             -2181.3392      1121.3607      1146.4499      1040.3022      1177.3302     -203.56978      44.69732       7.9402899      17.683341      17.682923      17.681906      5529.0109    
       126   0             -2181.3392      1121.359       1146.4465      1040.3028      1177.3278     -203.56725      44.698261      7.940861       17.683341      17.682923      17.681906      5529.0109    
       127   0             -2181.3392      1121.3564      1146.4454      1040.2996      1177.3243     -203.56726      44.69906       7.940703       17.683341      17.682923      17.681906      5529.0109    
       128   0             -2181.3392      1121.3561      1146.446       1040.2983      1177.3238     -203.56706      44.699355      7.9403681      17.683341      17.682923      17.681906      5529.0109    
       129   0             -2181.3392      1121.3562      1146.4467      1040.2979      1177.3241     -203.56735      44.699556      7.9405593      17.683341      17.682923      17.681906      5529.0109    
       130   0             -2181.3392      1121.3558      1146.4462      1040.2974      1177.3237     -203.56779      44.699193      7.9403833      17.683341      17.682923      17.681906      5529.0109    
       131   0             -2181.3392      1121.3555      1146.4459      1040.2972      1177.3234     -203.56753      44.699116      7.9404452      17.683341      17.682923      17.681906      5529.0109    
       132   0             -2181.3392      1121.355       1146.4455      1040.2968      1177.3228     -203.5673       44.699097      7.9405225      17.683341      17.682923      17.681906      5529.0109    
       133   0             -2181.3392      1121.3553      1146.4458      1040.297       1177.323      -203.56722      44.698957      7.9405905      17.683341      17.682923      17.681906      5529.0109    
       134   0             -2181.3392      1121.3555      1146.446       1040.2971      1177.3232     -203.56734      44.6989        7.9405918      17.683341      17.682923      17.681906      5529.0109    
       135   0             -2181.3392      1121.3556      1146.4461      1040.2972      1177.3234     -203.56741      44.698995      7.9405774      17.683341      17.682923      17.681906      5529.0109    
       136   0             -2181.3392      1121.3556      1146.4461      1040.2972      1177.3235     -203.56741      44.699016      7.9405712      17.683341      17.682923      17.681906      5529.0109    
[...]
       153   0             -2181.3392      1123.1868      1147.973       1042.7353      1178.852      -202.38746      44.698247      7.9371759      17.683341      17.682905      17.681906      5529.0054    
       154   0             -2181.3392      1123.1868      1147.973       1042.7353      1178.852      -202.38746      44.698247      7.9371759      17.683341      17.682905      17.681906      5529.0054    
       155   0             -2181.3392      1123.1868      1147.973       1042.7353      1178.852      -202.38746      44.698247      7.9371759      17.683341      17.682905      17.681906      5529.0054    
       156   0             -2181.3392      1123.1868      1147.973       1042.7353      1178.852      -202.38746      44.698247      7.9371759      17.683341      17.682905      17.681906      5529.0054    
       157   0             -2181.3392      1123.1868      1147.973       1042.7353      1178.852      -202.38746      44.698247      7.9371759      17.683341      17.682905      17.681906      5529.0054    
       158   0             -2181.3392      1123.1868      1147.973       1042.7353      1178.852      -202.38746      44.698247      7.9371759      17.683341      17.682905      17.681906      5529.0054    
       159   0             -2181.3392      1123.1868      1147.973       1042.7353      1178.852      -202.38746      44.698247      7.937176       17.683341      17.682905      17.681906      5529.0054    
       160   0             -2181.3392      1123.1868      1147.973       1042.7353      1178.852      -202.38746      44.698247      7.937176       17.683341      17.682905      17.681906      5529.0054    
Loop time of 0.139083 on 1 procs for 60 steps with 500 atoms

101.1% CPU use with 1 MPI tasks x 1 OpenMP threads

Minimization stats:
  Stopping criterion = force tolerance
  Energy initial, next-to-last, final = 
     -2181.08043300557   -2181.3391593025   -2181.3391593025
  Force two-norm initial, final = 2.0961287 8.1218021e-11
  Force max component initial, final = 0.17136753 9.6267699e-12
  Final line search alpha, max atom move = 1 9.6267699e-12
  Iterations, force evaluations = 60 118

MPI task timing breakdown:
Section |  min time  |  avg time  |  max time  |%varavg| %total
---------------------------------------------------------------
Pair    | 0.13658    | 0.13658    | 0.13658    |   0.0 | 98.20
Neigh   | 0          | 0          | 0          |   0.0 |  0.00
Comm    | 0.00068    | 0.00068    | 0.00068    |   0.0 |  0.49
Output  | 0.000882   | 0.000882   | 0.000882   |   0.0 |  0.63
Modify  | 0          | 0          | 0          |   0.0 |  0.00
Other   |            | 0.000938   |            |       |  0.67

Nlocal:            500 ave         500 max         500 min
Histogram: 1 0 0 0 0 0 0 0 0 0
Nghost:           1956 ave        1956 max        1956 min
Histogram: 1 0 0 0 0 0 0 0 0 0
Neighs:          33500 ave       33500 max       33500 min
Histogram: 1 0 0 0 0 0 0 0 0 0

Total # of neighbors = 33500
Ave neighs/atom = 67
Neighbor list builds = 0
Dangerous builds = 0
OMP_NUM_THREADS environment is not set. Defaulting to 1 thread. (src/comm.cpp:98)
  using 1 OpenMP thread(s) per MPI task
Loaded 1 plugins from F:\Lammps\LAMMPS 64-bit 2Aug2023\plugins

The 'box' command has been removed and will be ignored

Reading restart file ...
  restart file = 2 Aug 2023, LAMMPS = 2 Aug 2023
  restoring atom style atomic from restart
  triclinic box = (0.05332951 0.053547421 0.054047047) to (17.73667 17.736453 17.735953) with tilt (0 0 0)
  1 by 1 by 1 MPI processor grid
  pair style eam/alloy stores no restart info
  500 atoms
  read_restart CPU = 0.000 seconds
Changing box ...
  triclinic box = (0.05332951 0.053547421 0.054047047) to (17.73667 17.736453 17.735953) with tilt (1.7682905e-05 0 0)
Neighbor list info ...
  update: every = 1 steps, delay = 0 steps, check = yes
  max neighbors/atom: 2000, page size: 100000
  master list distance cutoff = 6.80375
  ghost atom cutoff = 6.80375
  1 neighbor lists, perpetual/occasional/extra = 1 0 0
  (1) pair eam/alloy, perpetual
      attributes: half, newton on
      pair build: half/nsq/newton
      stencil: none
      bin: none
Setting up cg style minimization ...
  Unit style    : metal
  Current step  : 100
Per MPI rank memory allocation (min/avg/max) = 4.483 | 4.483 | 4.483 Mbytes
   Step          Temp          PotEng         Press           Pxx            Pyy            Pzz            Pxy            Pxz            Pyz             Lx             Ly             Lz           Volume    
       100   0             -2181.0804     -309.57664     -309.99013     -309.28654     -309.45324     -124.23083     -28.209135      7.664734       17.683341      17.682905      17.681906      5529.0054    
       101   0             -2181.2559      639.39371      648.02494      624.11976      646.03642     -143.0121       20.540619      14.925316      17.683341      17.682905      17.681906      5529.0054    
       102   0             -2181.3187      1137.2114      1180.3929      1082.8243      1148.4171     -184.60043      54.864793      14.090581      17.683341      17.682905      17.681906      5529.0054    
       103   0             -2181.3308      1072.8244      1107.5614      999.5337       1111.3782     -195.08157      46.292232      6.7874584      17.683341      17.682905      17.681906      5529.0054    
       104   0             -2181.3366      1045.1566      1078.5769      962.66934      1094.2237     -203.7562       43.581277      4.5793785      17.683341      17.682905      17.681906      5529.0054    
       105   0             -2181.3382      1153.9037      1183.9852      1070.5216      1207.2043     -203.61516      49.428517      4.5635897      17.683341      17.682905      17.681906      5529.0054    
       106   0             -2181.3388      1137.1273      1161.7616      1055.8364      1193.7838     -205.99077      45.505449      5.9505229      17.683341      17.682905      17.681906      5529.0054    
       107   0             -2181.339       1116.6459      1140.064       1036.0448      1173.8289     -204.63589      45.310432      8.4598834      17.683341      17.682905      17.681906      5529.0054    
       108   0             -2181.3391      1121.668       1144.6461      1041.7175      1178.6405     -203.71374      45.066397      8.1943409      17.683341      17.682905      17.681906      5529.0054    
       109   0             -2181.3391      1124.5605      1147.9824      1044.3894      1181.3098     -204.67649      45.751461      8.0521872      17.683341      17.682905      17.681906      5529.0054    
       110   0             -2181.3391      1123.419       1147.8913      1042.8087      1179.5569     -204.70542      45.164546      7.9705263      17.683341      17.682905      17.681906      5529.0054    
       111   0             -2181.3391      1125.0045      1149.3004      1044.5842      1181.1289     -204.8055       45.17396       8.1005867      17.683341      17.682905      17.681906      5529.0054    
       112   0             -2181.3392      1123.484       1147.7538      1043.3667      1179.3316     -204.80753      44.714607      7.9695877      17.683341      17.682905      17.681906      5529.0054    
       113   0             -2181.3392      1122.5895      1147.0929      1042.3954      1178.2801     -204.89393      44.501952      7.7569998      17.683341      17.682905      17.681906      5529.0054    
       114   0             -2181.3392      1123.7897      1148.397       1043.4982      1179.4739     -204.71857      44.543138      7.9525368      17.683341      17.682905      17.681906      5529.0054    
       115   0             -2181.3392      1123.4978      1148.2334      1043.0731      1179.1868     -204.69903      44.639138      8.0000725      17.683341      17.682905      17.681906      5529.0054    
       116   0             -2181.3392      1123.1183      1147.8755      1042.6463      1178.8331     -204.75388      44.638719      8.0139228      17.683341      17.682905      17.681906      5529.0054    
       117   0             -2181.3392      1123.1026      1147.8397      1042.6414      1178.8269     -204.76818      44.618512      7.9793436      17.683341      17.682905      17.681906      5529.0054    
       118   0             -2181.3392      1123.0087      1147.7615      1042.5748      1178.6899     -204.73447      44.664078      7.9712263      17.683341      17.682905      17.681906      5529.0054    
       119   0             -2181.3392      1123.1631      1147.9253      1042.7326      1178.8314     -204.75561      44.681019      7.9403919      17.683341      17.682905      17.681906      5529.0054    
       120   0             -2181.3392      1123.242       1148.0143      1042.8165      1178.8954     -204.76336      44.690767      7.9522869      17.683341      17.682905      17.681906      5529.0054    
       121   0             -2181.3392      1123.1874      1147.9655      1042.7483      1178.8484     -204.75833      44.696403      7.9551128      17.683341      17.682905      17.681906      5529.0054    
       122   0             -2181.3392      1123.1991      1147.9789      1042.7503      1178.8682     -204.74465      44.697062      7.9420842      17.683341      17.682905      17.681906      5529.0054    
       123   0             -2181.3392      1123.1992      1147.9851      1042.746       1178.8665     -204.74783      44.695216      7.9403748      17.683341      17.682905      17.681906      5529.0054    
       124   0             -2181.3392      1123.1937      1147.9809      1042.7391      1178.8611     -204.7533       44.69547       7.9380655      17.683341      17.682905      17.681906      5529.0054    
       125   0             -2181.3392      1123.1959      1147.9809      1042.7437      1178.8631     -204.75317      44.695674      7.9382234      17.683341      17.682905      17.681906      5529.0054    
       126   0             -2181.3392      1123.1942      1147.9775      1042.7443      1178.8607     -204.75064      44.696616      7.9387945      17.683341      17.682905      17.681906      5529.0054    
       127   0             -2181.3392      1123.1915      1147.9763      1042.7411      1178.8572     -204.75065      44.697415      7.9386364      17.683341      17.682905      17.681906      5529.0054    
       128   0             -2181.3392      1123.1912      1147.977       1042.7399      1178.8567     -204.75044      44.69771       7.9383015      17.683341      17.682905      17.681906      5529.0054    
       129   0             -2181.3392      1123.1914      1147.9777      1042.7394      1178.8571     -204.75074      44.69791       7.9384927      17.683341      17.682905      17.681906      5529.0054    
       130   0             -2181.3392      1123.1909      1147.9772      1042.739       1178.8567     -204.75118      44.697548      7.9383167      17.683341      17.682905      17.681906      5529.0054    
       131   0             -2181.3392      1123.1906      1147.9769      1042.7387      1178.8563     -204.75091      44.697471      7.9383787      17.683341      17.682905      17.681906      5529.0054    
       132   0             -2181.3392      1123.1902      1147.9764      1042.7383      1178.8557     -204.75069      44.697452      7.9384559      17.683341      17.682905      17.681906      5529.0054    
       133   0             -2181.3392      1123.1904      1147.9768      1042.7385      1178.8559     -204.7506       44.697312      7.9385239      17.683341      17.682905      17.681906      5529.0054    
       134   0             -2181.3392      1123.1906      1147.977       1042.7386      1178.8562     -204.75073      44.697255      7.9385252      17.683341      17.682905      17.681906      5529.0054    
       135   0             -2181.3392      1123.1907      1147.9771      1042.7387      1178.8563     -204.7508       44.697349      7.9385108      17.683341      17.682905      17.681906      5529.0054    
       136   0             -2181.3392      1123.1907      1147.9771      1042.7387      1178.8564     -204.75079      44.697371      7.9385046      17.683341      17.682905      17.681906      5529.0054    
       137   0             -2181.3392      1123.1907      1147.9771      1042.7387      1178.8564     -204.7508       44.697359      7.9384976      17.683341      17.682905      17.681906      5529.0054    
       138   0             -2181.3392      1123.1908      1147.9771      1042.7387      1178.8564     -204.7508       44.697371      7.9385111      17.683341      17.682905      17.681906      5529.0054    
       139   0             -2181.3392      1123.1908      1147.9772      1042.7387      1178.8564     -204.7508       44.697377      7.9385194      17.683341      17.682905      17.681906      5529.0054    
       140   0             -2181.3392      1123.1908      1147.9772      1042.7387      1178.8564     -204.75079      44.697378      7.938518       17.683341      17.682905      17.681906      5529.0054    
       141   0             -2181.3392      1123.1908      1147.9771      1042.7387      1178.8564     -204.7508       44.697376      7.9385204      17.683341      17.682905      17.681906      5529.0054    
       142   0             -2181.3392      1123.1908      1147.9771      1042.7387      1178.8564     -204.7508       44.697373      7.9385185      17.683341      17.682905      17.681906      5529.0054    
       143   0             -2181.3392      1123.1908      1147.9771      1042.7387      1178.8564     -204.7508       44.697373      7.9385178      17.683341      17.682905      17.681906      5529.0054    
       144   0             -2181.3392      1123.1908      1147.9772      1042.7387      1178.8564     -204.7508       44.697374      7.9385167      17.683341      17.682905      17.681906      5529.0054    
       145   0             -2181.3392      1123.1908      1147.9772      1042.7387      1178.8564     -204.7508       44.697374      7.9385157      17.683341      17.682905      17.681906      5529.0054    
       146   0             -2181.3392      1123.1908      1147.9772      1042.7387      1178.8564     -204.7508       44.697373      7.9385159      17.683341      17.682905      17.681906      5529.0054    
       147   0             -2181.3392      1123.1908      1147.9772      1042.7387      1178.8564     -204.7508       44.697373      7.9385156      17.683341      17.682905      17.681906      5529.0054    
       148   0             -2181.3392      1123.1908      1147.9772      1042.7387      1178.8564     -204.7508       44.697373      7.938516       17.683341      17.682905      17.681906      5529.0054    
       149   0             -2181.3392      1123.1908      1147.9772      1042.7387      1178.8564     -204.7508       44.697373      7.9385162      17.683341      17.682905      17.681906      5529.0054    
       150   0             -2181.3392      1123.1908      1147.9772      1042.7387      1178.8564     -204.7508       44.697372      7.9385161      17.683341      17.682905      17.681906      5529.0054    
       151   0             -2181.3392      1123.1908      1147.9772      1042.7387      1178.8564     -204.7508       44.697373      7.938516       17.683341      17.682905      17.681906      5529.0054    
       152   0             -2181.3392      1123.1908      1147.9772      1042.7387      1178.8564     -204.7508       44.697373      7.938516       17.683341      17.682905      17.681906      5529.0054    
       153   0             -2181.3392      1123.1908      1147.9772      1042.7387      1178.8564     -204.7508       44.697373      7.9385161      17.683341      17.682905      17.681906      5529.0054    
       154   0             -2181.3392      1123.1908      1147.9772      1042.7387      1178.8564     -204.7508       44.697373      7.9385161      17.683341      17.682905      17.681906      5529.0054    
       155   0             -2181.3392      1123.1908      1147.9772      1042.7387      1178.8564     -204.7508       44.697373      7.9385161      17.683341      17.682905      17.681906      5529.0054    
       156   0             -2181.3392      1123.1908      1147.9772      1042.7387      1178.8564     -204.7508       44.697373      7.9385161      17.683341      17.682905      17.681906      5529.0054    
       157   0             -2181.3392      1123.1908      1147.9772      1042.7387      1178.8564     -204.7508       44.697373      7.9385161      17.683341      17.682905      17.681906      5529.0054    
       158   0             -2181.3392      1123.1908      1147.9772      1042.7387      1178.8564     -204.7508       44.697373      7.9385161      17.683341      17.682905      17.681906      5529.0054    
       159   0             -2181.3392      1123.1908      1147.9772      1042.7387      1178.8564     -204.7508       44.697373      7.9385161      17.683341      17.682905      17.681906      5529.0054    
       160   0             -2181.3392      1123.1908      1147.9772      1042.7387      1178.8564     -204.7508       44.697373      7.9385161      17.683341      17.682905      17.681906      5529.0054    
Loop time of 0.139275 on 1 procs for 60 steps with 500 atoms

101.0% CPU use with 1 MPI tasks x 1 OpenMP threads

Minimization stats:
  Stopping criterion = force tolerance
  Energy initial, next-to-last, final = 
     -2181.08043215638   -2181.3391578975   -2181.3391578975
  Force two-norm initial, final = 2.0961275 8.1217145e-11
  Force max component initial, final = 0.17136833 9.5930966e-12
  Final line search alpha, max atom move = 1 9.5930966e-12
  Iterations, force evaluations = 60 118

MPI task timing breakdown:
Section |  min time  |  avg time  |  max time  |%varavg| %total
---------------------------------------------------------------
Pair    | 0.13672    | 0.13672    | 0.13672    |   0.0 | 98.17
Neigh   | 0          | 0          | 0          |   0.0 |  0.00
Comm    | 0.000684   | 0.000684   | 0.000684   |   0.0 |  0.49
Output  | 0.000914   | 0.000914   | 0.000914   |   0.0 |  0.66
Modify  | 0          | 0          | 0          |   0.0 |  0.00
Other   |            | 0.000956   |            |       |  0.69

Nlocal:            500 ave         500 max         500 min
Histogram: 1 0 0 0 0 0 0 0 0 0
Nghost:           1956 ave        1956 max        1956 min
Histogram: 1 0 0 0 0 0 0 0 0 0
Neighs:          33500 ave       33500 max       33500 min
Histogram: 1 0 0 0 0 0 0 0 0 0

Total # of neighbors = 33500
Ave neighs/atom = 67
Neighbor list builds = 0
Dangerous builds = 0
=========================================
Components of the Elastic Constant Tensor
=========================================
Elastic Constant C11all = 244.786655813004 GPa
Elastic Constant C22all = 243.980217745004 GPa
Elastic Constant C33all = 244.618632987491 GPa
Elastic Constant C12all = 152.887195550008 GPa
Elastic Constant C13all = 153.728907563505 GPa
Elastic Constant C23all = 153.066218486252 GPa
Elastic Constant C44all = 118.215404452655 GPa
Elastic Constant C55all = 118.481784933175 GPa
Elastic Constant C66all = 118.1668141236 GPa
Elastic Constant C14all = -0.013860853015295 GPa
Elastic Constant C15all = 0.0607294231176638 GPa
Elastic Constant C16all = -0.227355446096226 GPa
Elastic Constant C24all = -0.274466353820448 GPa
Elastic Constant C25all = -0.123046637267635 GPa
Elastic Constant C26all = -0.171906278851111 GPa
Elastic Constant C34all = -0.343587606909729 GPa
Elastic Constant C35all = -0.160456249617937 GPa
Elastic Constant C36all = -0.230475036427378 GPa
Elastic Constant C45all = -0.0391531802097855 GPa
Elastic Constant C46all = -0.0692429419867153 GPa
Elastic Constant C56all = 0.0437230063701008 GPa
=========================================
Average properties for a cubic crystal
=========================================
Bulk Modulus = 183.638905527225 GPa
Shear Modulus 1 = 118.28800116981 GPa
Shear Modulus 2 = 45.6171974909555 GPa
Poisson Ratio = 0.385294373677299
Total wall time: 0:00:02
