LAMMPS (2 Aug 2023 - Update 3)
OMP_NUM_THREADS environment is not set. Defaulting to 1 thread. (src/comm.cpp:98)
  using 1 OpenMP thread(s) per MPI task
Loaded 1 plugins from F:\Lammps\LAMMPS 64-bit 2Aug2023\plugins
Reading data file ...
  orthogonal box = (0 0 0) to (17.79 17.79 17.79)
  1 by 1 by 1 MPI processor grid
  reading atoms ...
  500 atoms
  read_data CPU = 0.001 seconds
Changing box ...
  triclinic box = (0 0 0) to (17.79 17.79 17.79) with tilt (0 0 0)
Neighbor list info ...
  update: every = 1 steps, delay = 0 steps, check = yes
  max neighbors/atom: 2000, page size: 100000
  master list distance cutoff = 6.80375
  ghost atom cutoff = 6.80375
  1 neighbor lists, perpetual/occasional/extra = 1 0 0
  (1) pair eam/alloy, perpetual
      attributes: half, newton on
      pair build: half/nsq/newton
      stencil: none
      bin: none
Setting up cg style minimization ...
  Unit style    : metal
  Current step  : 0
WARNING: Energy due to 3 extra global DOFs will be included in minimizer energies
 (src/min.cpp:228)
Per MPI rank memory allocation (min/avg/max) = 4.492 | 4.492 | 4.492 Mbytes
   Step          Temp          PotEng         Press           Pxx            Pyy            Pzz            Pxy            Pxz            Pyz             Lx             Ly             Lz           Volume    
         0   0             -2179.7894     -34187.177     -34344.192     -34163.306     -34054.032      46.52818       78.275796     -17.311444      17.79          17.79          17.79          5630.2521    
         1   0             -2179.825      -33648.219     -33804.858     -33624.767     -33515.031      45.7029        78.401403     -16.613532      17.788221      17.78823       17.788236      5628.571     
         2   0             -2179.86       -33108.847     -33265.101     -33085.818     -32975.623      44.879087      78.527734     -15.910272      17.786442      17.786461      17.786472      5626.8902    
         3   0             -2179.8944     -32569.062     -32724.921     -32546.457     -32435.807      44.056419      78.654703     -15.201981      17.784663      17.784691      17.784709      5625.2099    
         4   0             -2179.9283     -32028.876     -32184.332     -32006.698     -31895.598      43.235161      78.782812     -14.489571      17.782884      17.782922      17.782945      5623.53      
         5   0             -2179.9616     -31488.368     -31643.408     -31466.622     -31355.075      42.417904      78.908879     -13.775024      17.781105      17.781153      17.781182      5621.8506    
         6   0             -2179.9943     -30947.593     -31102.203     -30926.283     -30814.293      41.605766      79.032312     -13.058417      17.779326      17.779384      17.77942       5620.1717    
         7   0             -2180.0265     -30406.55      -30560.714     -30385.681     -30273.254      40.79889       79.153178     -12.339971      17.777547      17.777615      17.777657      5618.4932    
         8   0             -2180.0581     -29865.193     -30018.897     -29844.772     -29731.912      39.995969      79.271527     -11.619301      17.775768      17.775846      17.775895      5616.8151    
         9   0             -2180.0891     -29323.456     -29476.688     -29303.48      -29190.199      39.193691      79.390328     -10.895282      17.773989      17.774077      17.774133      5615.1376    
        10   0             -2180.1195     -28781.301     -28934.057     -28761.769     -28648.077      38.390848      79.512197     -10.167877      17.77221       17.772309      17.772371      5613.4604    
        11   0             -2180.1493     -28238.753     -28391.028     -28219.663     -28105.568      37.588105      79.636978     -9.4372046      17.770431      17.770541      17.77061       5611.7838    
        12   0             -2180.1786     -27695.866     -27847.648     -27677.223     -27562.727      36.787582      79.763714     -8.7029741      17.768652      17.768772      17.768849      5610.1076    
        13   0             -2180.2073     -27152.673     -27303.948     -27134.483     -27019.588      35.99042       79.890134     -7.9656887      17.766873      17.767004      17.767088      5608.432     
        14   0             -2180.2354     -26609.226     -26759.978     -26591.498     -26476.204      35.197567      80.012636     -7.2244865      17.765094      17.765236      17.765327      5606.7568    
        15   0             -2180.2629     -26065.484     -26215.693     -26048.218     -25932.54       34.406599      80.132396     -6.4792771      17.763315      17.763468      17.763567      5605.0821    
        16   0             -2180.2899     -25521.393     -25671.048     -25504.589     -25388.542      33.616489      80.249963     -5.7297781      17.761536      17.761701      17.761808      5603.4078    
        17   0             -2180.3163     -24976.929     -25126.02      -24960.584     -24844.184      32.827855      80.366137     -4.9766963      17.759757      17.759933      17.760048      5601.7341    
        18   0             -2180.3421     -24432.08      -24580.598     -24416.193     -24299.449      32.041058      80.484046     -4.2221093      17.757978      17.758166      17.758289      5600.0609    
        19   0             -2180.3674     -23886.936     -24034.872     -23871.516     -23754.422      31.257594      80.602591     -3.4657806      17.756199      17.756399      17.756531      5598.3883    
        20   0             -2180.392      -23341.522     -23488.861     -23326.576     -23209.127      30.477636      80.721852     -2.7077072      17.75442       17.754632      17.754772      5596.7161    
        21   0             -2180.4161     -22795.876     -22942.603     -22781.414     -22663.611      29.700521      80.840939     -1.9466401      17.752641      17.752865      17.753015      5595.0445    
        22   0             -2180.4396     -22249.92      -22396.014     -22235.943     -22117.803      28.924438      80.958892     -1.1811242      17.750862      17.751099      17.751257      5593.3734    
        23   0             -2180.4625     -21703.687     -21849.137     -21690.194     -21571.729      28.149706      81.076295     -0.41253368     17.749083      17.749333      17.7495        5591.7029    
        24   0             -2180.4849     -21157.177     -21301.97      -21144.169     -21025.392      27.376003      81.193705      0.35865455     17.747304      17.747567      17.747744      5590.0329    
        25   0             -2180.5066     -20610.433     -20754.563     -20597.911     -20478.824      26.604372      81.313097      1.131385       17.745525      17.745801      17.745988      5588.3635    
        26   0             -2180.5278     -20063.48      -20206.926     -20051.447     -19932.067      25.836208      81.435003      1.9049833      17.743746      17.744035      17.744233      5586.6946    
        27   0             -2180.5485     -19516.267     -19659.006     -19504.723     -19385.071      25.070695      81.558697      2.6810029      17.741967      17.74227       17.742478      5585.0264    
        28   0             -2180.5685     -18968.797     -19110.807     -18957.744     -18837.842      24.306873      81.6835        3.4602585      17.740188      17.740505      17.740724      5583.3588    
        29   0             -2180.588      -18421.089     -18562.354     -18410.528     -18290.385      23.54341       81.806488      4.2437711      17.738409      17.73874       17.73897       5581.6918    
        30   0             -2180.6069     -17873.169     -18013.671     -17863.105     -17742.73       22.779925      81.927048      5.0320333      17.73663       17.736976      17.737218      5580.0254    
        31   0             -2180.6252     -17325.066     -17464.789     -17315.505     -17194.903      22.016893      82.045301      5.8241066      17.734851      17.735212      17.735465      5578.3597    
        32   0             -2180.6429     -16776.757     -16915.676     -16767.703     -16646.893      21.256669      82.163286      6.6180301      17.733072      17.733448      17.733714      5576.6946    
        33   0             -2180.6601     -16228.206     -16366.298     -16219.661     -16098.66       20.500696      82.284535      7.4124767      17.731293      17.731685      17.731963      5575.0303    
        34   0             -2180.6767     -15679.42      -15816.661     -15671.387     -15550.212      19.749054      82.409317      8.20736        17.729514      17.729922      17.730213      5573.3666    
        35   0             -2180.6927     -15130.409     -15266.778     -15122.891     -15001.559      19.001381      82.537437      9.002893       17.727735      17.728159      17.728464      5571.7037    
        36   0             -2180.7081     -14581.244     -14716.723     -14574.24      -14452.769      18.254842      82.665871      9.8016383      17.725956      17.726397      17.726716      5570.0415    
        37   0             -2180.723      -14031.976     -14166.54      -14025.483     -13903.906      17.507963      82.793265      10.603903      17.724177      17.724635      17.724969      5568.3801    
        38   0             -2180.7372     -13482.623     -13616.244     -13476.636     -13354.988      16.761044      82.919928      11.409459      17.722398      17.722874      17.723223      5566.7196    
        39   0             -2180.7509     -12933.176     -13065.813     -12927.697     -12806.017      16.014837      83.046295      12.21818       17.720619      17.721113      17.721479      5565.0599    
        40   0             -2180.7641     -12383.577     -12515.191     -12378.607     -12256.932      15.270983      83.173715      13.028871      17.71884       17.719353      17.719735      5563.4011    
        41   0             -2180.7766     -11833.8       -11964.355     -11829.34      -11707.705      14.530357      83.300685      13.84203       17.717061      17.717593      17.717993      5561.7433    
        42   0             -2180.7886     -11283.874     -11413.341     -11279.921     -11158.36       13.792785      83.426772      14.657579      17.715282      17.715835      17.716252      5560.0864    
        43   0             -2180.8        -10733.893     -10862.241     -10730.45      -10608.988      13.059514      83.551832      15.475647      17.713503      17.714076      17.714513      5558.4306    
        44   0             -2180.8108     -10183.911     -10311.099     -10180.982     -10059.654      12.330892      83.676666      16.296187      17.711724      17.712319      17.712776      5556.7759    
        45   0             -2180.8211     -9634.0051     -9759.9813     -9631.5958     -9510.4381      11.606088      83.802329      17.118631      17.709945      17.710563      17.71104       5555.1224    
        46   0             -2180.8307     -9084.1576     -9208.8555     -9082.2667     -8961.3507      10.88335       83.928656      17.942402      17.708166      17.708807      17.709307      5553.4703    
        47   0             -2180.8399     -8534.382      -8657.7439     -8533.0038     -8412.3983      10.161488      84.055853      18.767027      17.706387      17.707053      17.707576      5551.8194    
        48   0             -2180.8484     -7984.7239     -8106.6859     -7983.8524     -7863.6334      9.4402393      84.183174      19.592339      17.704608      17.705299      17.705847      5550.1702    
        49   0             -2180.8563     -7435.2213     -7555.7164     -7434.8507     -7315.0969      8.7208916      84.309859      20.418623      17.702829      17.703547      17.704122      5548.5225    
        50   0             -2180.8637     -6885.9233     -7004.8553     -6886.052      -6766.8625      8.0061016      84.434854      21.247275      17.70105       17.701797      17.702399      5546.8767    
        51   0             -2180.8706     -6336.8929     -6454.1652     -6337.5177     -6218.9957      7.2963706      84.557461      22.078706      17.699271      17.700048      17.700681      5545.233     
        52   0             -2180.8768     -5788.249      -5903.7516     -5789.3654     -5671.6299      6.5907673      84.67822       22.912662      17.697492      17.698301      17.698967      5543.5916    
        53   0             -2180.8825     -5240.1503     -5353.7838     -5241.7421     -5124.9248      5.8877596      84.797956      23.748698      17.695713      17.696557      17.697258      5541.9528    
        54   0             -2180.8876     -4692.8203     -4804.4421     -4694.8814     -4579.1374      5.1862539      84.917546      24.585057      17.693934      17.694815      17.695555      5540.3172    
        55   0             -2180.8922     -4146.4518     -4255.8792     -4148.9703     -4034.5061      4.4866793      85.036806      25.421639      17.692155      17.693077      17.69386       5538.6852    
        56   0             -2180.8962     -3601.2479     -3708.2258     -3604.2187     -3491.2992      3.7903138      85.153589      26.258186      17.690376      17.691343      17.692173      5537.0577    
        57   0             -2180.8996     -3057.4882     -3161.6994     -3060.8863     -2949.8788      3.0996347      85.265577      27.094905      17.688597      17.689614      17.690499      5535.4357    
        58   0             -2180.9025     -2515.6909     -2616.7502     -2519.4908     -2410.8317      2.415549       85.37183       27.930753      17.686818      17.687891      17.688839      5533.8209    
        59   0             -2180.9048     -1976.6954     -2074.092      -1980.854      -1875.1402      1.7387623      85.470792      28.765093      17.685039      17.686179      17.6872        5532.2159    
        60   0             -2180.9066     -1442.0601     -1535.0741     -1446.5171     -1344.5891      1.069267       85.561243      29.595873      17.68326       17.68448       17.685592      5530.6251    
        61   0             -2180.908      -914.76948     -1002.1589     -919.43645     -822.71312      0.40869778     85.639355      30.418955      17.681481      17.682803      17.684034      5529.0574    
        62   0             -2180.9088     -402.01788     -481.3462      -406.7098      -317.99765     -0.23773636     85.693056      31.223413      17.679702      17.681171      17.682574      5527.5344    
        63   0             -2180.9095      67.968007      3.8427039      63.764373      136.29694     -0.85070302     85.673035      31.966002      17.677923      17.679668      17.681399      5526.1411    
        64   0             -2180.9118     -111.11632     -117.33172     -111.19632     -104.82091     -0.83613499     85.065269      31.72151       17.677388      17.680181      17.683178      5526.6901    
        65   0             -2180.9138      399.78685      402.79324      399.63935      396.92795     -1.6833608      84.672771      32.634083      17.675609      17.678573      17.68176       5525.1881    
        66   0             -2180.9153     -144.3844      -139.36204     -143.78295     -150.00822     -1.1818464      84.214783      31.857878      17.677304      17.680305      17.683539      5526.8157    
        67   0             -2180.919       400.28831      401.56573      399.94205      399.35714     -2.2716066      83.438847      32.944061      17.675683      17.678621      17.68176       5525.2263    
        68   0             -2180.9206     -149.67472     -149.69649     -149.4533      -149.87437     -1.7796335      82.95005       32.172081      17.677462      17.680376      17.68349       5526.872     
        69   0             -2180.9248      414.59859      413.57943      414.13133      416.08501     -2.9476926      82.061634      33.314439      17.67573       17.678629      17.681711      5525.2282    
        70   0             -2180.9265     -142.23725     -143.30038     -142.03997     -141.3714      -2.4545089      81.550661      32.534646      17.677507      17.680405      17.68349       5526.8949    
        71   0             -2180.9309      422.74451      423.11687      422.36315      422.7535      -3.6591316      80.587056      33.694006      17.675728      17.678656      17.681761      5525.2515    
        72   0             -2180.9326     -133.23551     -132.74971     -132.9595      -133.99731     -3.1640637      80.079265      32.91474       17.677499      17.680429      17.68354       5526.9155    
        73   0             -2180.9373      436.24692      436.34033      435.81727      436.58318     -4.4146516      79.041939      34.104953      17.675744      17.678671      17.681761      5525.2614    
        74   0             -2180.939      -120.4536      -120.55105     -120.24557     -120.56418     -3.9145802      78.540412      33.323544      17.677523      17.680447      17.683536      5526.9271    
        75   0             -2180.9441      453.66563      453.68233      453.2223       454.09228     -5.2275179      77.39047       34.550914      17.675747      17.678678      17.681757      5525.2631    
        76   0             -2180.9457     -103.75941     -103.81235     -103.55789     -103.908       -4.7196994      76.899716      33.765353      17.677526      17.680455      17.683536      5526.9306    
        77   0             -2180.9514      472.54415      472.67824      472.08066      472.87353     -6.1217255      75.576715      35.042634      17.675748      17.678686      17.681757      5525.266     
        78   0             -2180.953      -85.186803     -85.136147     -85.010926     -85.413336     -5.6038069      75.102583      34.252291      17.677527      17.680463      17.683535      5526.9336    
        79   0             -2180.9597      492.47683      492.48102      491.989        492.96045     -7.1401543      73.513229      35.603602      17.67576       17.6787        17.681756      5525.2739    
        80   0             -2180.9612     -65.511481     -65.590982     -65.362262     -65.581198     -6.6100157      73.058478      34.807786      17.677539      17.680477      17.683535      5526.9415    
        81   0             -2180.9696      518.66741      518.91831      518.15525      518.92867     -8.3819188      71.010168      36.292056      17.67576       17.67871       17.681758      5525.2778    
        82   0             -2180.971      -39.54926      -39.389694     -39.427851     -39.830237     -7.8387027      70.574463      35.49063       17.677539      17.680487      17.683537      5526.9452    
        83   0             -2180.984       550.59756      549.95372      550.02911      551.80985     -10.215168      67.315591      37.309868      17.675806      17.678748      17.681758      5525.304     
        84   0             -2180.9853     -7.5646792     -8.2068998     -7.5014898     -6.9856479     -9.6539488      66.905334      36.501639      17.677582      17.680524      17.683537      5526.9701    
        85   0             -2181.0377      608.95868      625.9571       608.72509      592.19385     -17.475639      52.659604      41.286761      17.675803      17.679111      17.682397      5525.616     
        86   0             -2181.0389      63.59332       78.209518      63.903861      48.666582     -16.890438      52.29317       40.496825      17.677582      17.680844      17.684085      5527.2417    
        87   0             -2181.0406     -387.29192     -389.90656     -386.90559     -385.0636      -16.588493      51.63812       39.970421      17.679361      17.682297      17.685192      5528.5982    
        88   0             -2181.0418      151.84016      145.19292      151.54166      158.78589     -17.426754      51.496159      40.901729      17.677743      17.680605      17.683413      5527.0074    
        89   0             -2181.0451     -376.89799     -380.02343     -376.4569      -374.21364     -17.229241      50.35705       40.343437      17.679384      17.682311      17.685192      5528.6097    
        90   0             -2181.0466      178.13998      176.97373      178.02017      179.42605     -18.145859      50.09301       41.323904      17.677605      17.680571      17.683485      5526.9758    
        91   0             -2181.0503     -348.03063     -345.28512     -347.51943     -351.28733     -17.992825      48.867837      40.793775      17.679232      17.682274      17.685264      5528.5733    
        92   0             -2181.052       217.88707      220.97581      217.75926      214.92614     -18.967159      48.52425       41.817806      17.677453      17.680504      17.683493      5526.9101    
        93   0             -2181.0558     -315.75301     -315.32908     -315.37151     -316.55845     -18.818248      47.279811      41.293932      17.679232      17.682234      17.685167      5528.5304    
        94   0             -2181.0578      245.01658      244.37341      244.75304      245.92329     -19.830355      46.85079       42.33691       17.6775        17.680484      17.683388      5526.8855    
        95   0             -2181.0614     -299.79829     -301.32241     -299.44669     -298.62578     -19.653329      45.623996      41.787407      17.679279      17.682246      17.685132      5528.538     
        96   0             -2181.0637      268.34989      267.17836      268.08914      269.78217     -20.727457      45.092242      42.870007      17.6775        17.680476      17.683362      5526.875     
        97   0             -2181.0672     -274.99669     -275.02242     -274.6187      -275.34896     -20.543866      43.875133      42.317336      17.679235      17.682233      17.685141      5528.5226    
        98   0             -2181.0698      292.23566      292.8955       291.98678      291.82469     -21.664075      43.251903      43.425344      17.677456      17.68047       17.683383      5526.8656    
        99   0             -2181.0733     -257.34636     -256.4903      -256.99427     -258.55452     -21.46511       42.045967      42.862084      17.679228      17.682246      17.685162      5528.5312    
       100   0             -2181.0762      311.53578      312.10204      311.23367      311.27163     -22.644865      41.316959      44.006652      17.677467      17.680482      17.683383      5526.873     
Loop time of 0.116749 on 1 procs for 100 steps with 500 atoms

107.1% CPU use with 1 MPI tasks x 1 OpenMP threads

Minimization stats:
  Stopping criterion = max iterations
  Energy initial, next-to-last, final = 
     -2179.78936405333  -2181.07329802347   -2181.0761534895
  Force two-norm initial, final = 208.11334 2.8095787
  Force max component initial, final = 120.68986 1.0834819
  Final line search alpha, max atom move = 0.00017880593 0.00019373298
  Iterations, force evaluations = 100 100

MPI task timing breakdown:
Section |  min time  |  avg time  |  max time  |%varavg| %total
---------------------------------------------------------------
Pair    | 0.1091     | 0.1091     | 0.1091     |   0.0 | 93.45
Neigh   | 0          | 0          | 0          |   0.0 |  0.00
Comm    | 0.000584   | 0.000584   | 0.000584   |   0.0 |  0.50
Output  | 0.001382   | 0.001382   | 0.001382   |   0.0 |  1.18
Modify  | 0          | 0          | 0          |   0.0 |  0.00
Other   |            | 0.005684   |            |       |  4.87

Nlocal:            500 ave         500 max         500 min
Histogram: 1 0 0 0 0 0 0 0 0 0
Nghost:           1956 ave        1956 max        1956 min
Histogram: 1 0 0 0 0 0 0 0 0 0
Neighs:          33500 ave       33500 max       33500 min
Histogram: 1 0 0 0 0 0 0 0 0 0

Total # of neighbors = 33500
Ave neighs/atom = 67
Neighbor list builds = 0
Dangerous builds = 0
Displacing atoms ...
System init for write_restart ...
OMP_NUM_THREADS environment is not set. Defaulting to 1 thread. (src/comm.cpp:98)
  using 1 OpenMP thread(s) per MPI task
Loaded 1 plugins from F:\Lammps\LAMMPS 64-bit 2Aug2023\plugins

The 'box' command has been removed and will be ignored

Reading restart file ...
  restart file = 2 Aug 2023, LAMMPS = 2 Aug 2023
  restoring atom style atomic from restart
  triclinic box = (0.056266609 0.054758791 0.053308668) to (17.733733 17.735241 17.736691) with tilt (0 0 0)
  1 by 1 by 1 MPI processor grid
  pair style eam/alloy stores no restart info
  500 atoms
  read_restart CPU = 0.000 seconds
Changing box ...
  triclinic box = (0.056266609 0.054758791 0.053308668) to (17.733716 17.735241 17.736691) with tilt (0 0 0)
  triclinic box = (0.056266609 0.054758791 0.053308668) to (17.733716 17.735241 17.736691) with tilt (0 0 0)
  triclinic box = (0.056266609 0.054758791 0.053308668) to (17.733716 17.735241 17.736691) with tilt (0 0 0)
Neighbor list info ...
  update: every = 1 steps, delay = 0 steps, check = yes
  max neighbors/atom: 2000, page size: 100000
  master list distance cutoff = 6.80375
  ghost atom cutoff = 6.80375
  1 neighbor lists, perpetual/occasional/extra = 1 0 0
  (1) pair eam/alloy, perpetual
      attributes: half, newton on
      pair build: half/nsq/newton
      stencil: none
      bin: none
Setting up cg style minimization ...
  Unit style    : metal
  Current step  : 100
Per MPI rank memory allocation (min/avg/max) = 4.482 | 4.482 | 4.482 Mbytes
   Step          Temp          PotEng         Press           Pxx            Pyy            Pzz            Pxy            Pxz            Pyz             Lx             Ly             Lz           Volume    
       100   0             -2181.0762      313.40106      314.50616      312.84622      312.85078     -22.623504      41.320704      44.05035       17.677449      17.680482      17.683383      5526.8675    
       101   0             -2181.2429      1164.8847      1170.7975      1170.7703      1153.0862     -65.532279     -28.158174      68.397743      17.677449      17.680482      17.683383      5526.8675    
       102   0             -2181.3089      1730.7497      1745.1968      1736.8924      1710.1599     -91.062168     -78.597749      92.053529      17.677449      17.680482      17.683383      5526.8675    
       103   0             -2181.3251      1574.3584      1586.9415      1576.4659      1559.6679     -82.856864     -74.231261      83.193013      17.677449      17.680482      17.683383      5526.8675    
       104   0             -2181.3306      1678.6183      1688.4434      1685.7371      1661.6744     -91.561898     -82.716422      86.66199       17.677449      17.680482      17.683383      5526.8675    
       105   0             -2181.332       1742.5336      1749.4896      1754.1299      1723.9813     -96.965638     -88.767126      87.70282       17.677449      17.680482      17.683383      5526.8675    
       106   0             -2181.3327      1692.4227      1696.4532      1705.3136      1675.5014     -94.72981      -90.032924      85.166124      17.677449      17.680482      17.683383      5526.8675    
       107   0             -2181.3329      1686.5832      1689.819       1700.4035      1669.5272     -96.061642     -90.691165      84.580574      17.677449      17.680482      17.683383      5526.8675    
       108   0             -2181.3329      1690.643       1693.6213      1704.3403      1673.9673     -95.180853     -90.731474      85.287939      17.677449      17.680482      17.683383      5526.8675    
       109   0             -2181.3329      1692.2726      1695.4301      1706.1825      1675.2051     -95.016206     -90.718374      85.018818      17.677449      17.680482      17.683383      5526.8675    
       110   0             -2181.333       1693.2389      1696.7025      1706.9113      1676.1028     -94.951465     -90.09606       84.763041      17.677449      17.680482      17.683383      5526.8675    
       111   0             -2181.333       1691.1777      1694.5151      1705.0522      1673.9657     -94.882564     -89.776364      84.80415       17.677449      17.680482      17.683383      5526.8675    
       112   0             -2181.333       1690.9045      1694.1673      1704.8646      1673.6817     -94.94924      -89.812884      84.811654      17.677449      17.680482      17.683383      5526.8675    
       113   0             -2181.333       1692.1334      1695.0455      1706.4364      1674.9183     -95.1717       -89.949045      84.513889      17.677449      17.680482      17.683383      5526.8675    
       114   0             -2181.333       1692.1242      1694.9561      1706.4118      1675.0049     -95.088776     -90.072155      84.454714      17.677449      17.680482      17.683383      5526.8675    
       115   0             -2181.333       1691.9021      1694.7585      1706.1664      1674.7812     -95.180664     -90.057229      84.41786       17.677449      17.680482      17.683383      5526.8675    
       116   0             -2181.333       1691.635       1694.4759      1705.8593      1674.5698     -95.143716     -90.029106      84.435657      17.677449      17.680482      17.683383      5526.8675    
       117   0             -2181.333       1691.5694      1694.4103      1705.7769      1674.5209     -95.123478     -90.001392      84.46308       17.677449      17.680482      17.683383      5526.8675    
       118   0             -2181.333       1691.7866      1694.671       1705.9582      1674.7307     -95.150632     -90.020288      84.491596      17.677449      17.680482      17.683383      5526.8675    
       119   0             -2181.333       1691.8153      1694.7231      1705.9706      1674.7522     -95.176169     -90.018364      84.504531      17.677449      17.680482      17.683383      5526.8675    
       120   0             -2181.333       1691.7608      1694.6653      1705.9162      1674.7009     -95.172541     -90.016408      84.496365      17.677449      17.680482      17.683383      5526.8675    
       121   0             -2181.333       1691.7367      1694.6239      1705.8916      1674.6945     -95.155555     -89.995853      84.503522      17.677449      17.680482      17.683383      5526.8675    
       122   0             -2181.333       1691.7502      1694.6237      1705.9066      1674.7202     -95.153378     -90.005198      84.507107      17.677449      17.680482      17.683383      5526.8675    
       123   0             -2181.333       1691.7528      1694.6214      1705.9133      1674.7239     -95.155955     -90.011709      84.514388      17.677449      17.680482      17.683383      5526.8675    
       124   0             -2181.333       1691.7519      1694.6174      1705.9149      1674.7234     -95.154404     -90.011156      84.508947      17.677449      17.680482      17.683383      5526.8675    
       125   0             -2181.333       1691.7438      1694.6083      1705.907       1674.7162     -95.153956     -90.009759      84.507217      17.677449      17.680482      17.683383      5526.8675    
       126   0             -2181.333       1691.7429      1694.6069      1705.9069      1674.7148     -95.153215     -90.012355      84.506835      17.677449      17.680482      17.683383      5526.8675    
       127   0             -2181.333       1691.7496      1694.6139      1705.9142      1674.7206     -95.152152     -90.012763      84.506943      17.677449      17.680482      17.683383      5526.8675    
       128   0             -2181.333       1691.7509      1694.6153      1705.9152      1674.7223     -95.15116      -90.013079      84.507028      17.677449      17.680482      17.683383      5526.8675    
       129   0             -2181.333       1691.7504      1694.6147      1705.9146      1674.7217     -95.15106      -90.012921      84.506977      17.677449      17.680482      17.683383      5526.8675    
       130   0             -2181.333       1691.7497      1694.6139      1705.9136      1674.7215     -95.150853     -90.012722      84.506981      17.677449      17.680482      17.683383      5526.8675    
       131   0             -2181.333       1691.7496      1694.6137      1705.9135      1674.7217     -95.150921     -90.012847      84.50691       17.677449      17.680482      17.683383      5526.8675    
       132   0             -2181.333       1691.7501      1694.6141      1705.9138      1674.7224     -95.150858     -90.012847      84.50698       17.677449      17.680482      17.683383      5526.8675    
       133   0             -2181.333       1691.75        1694.6138      1705.9136      1674.7224     -95.15094      -90.012792      84.506963      17.677449      17.680482      17.683383      5526.8675    
       134   0             -2181.333       1691.7496      1694.6134      1705.9131      1674.7221     -95.150959     -90.012804      84.50696       17.677449      17.680482      17.683383      5526.8675    
       135   0             -2181.333       1691.7494      1694.6133      1705.913       1674.722      -95.151061     -90.012833      84.506979      17.677449      17.680482      17.683383      5526.8675    
       136   0             -2181.333       1691.7496      1694.6135      1705.9131      1674.7222     -95.151072     -90.012881      84.50697       17.677449      17.680482      17.683383      5526.8675    
       137   0             -2181.333       1691.7497      1694.6136      1705.9132      1674.7223     -95.151063     -90.012853      84.506962      17.677449      17.680482      17.683383      5526.8675    
       138   0             -2181.333       1691.7497      1694.6136      1705.9131      1674.7223     -95.151056     -90.012841      84.50697       17.677449      17.680482      17.683383      5526.8675    
       139   0             -2181.333       1691.7496      1694.6135      1705.9131      1674.7223     -95.151062     -90.012832      84.506975      17.677449      17.680482      17.683383      5526.8675    
       140   0             -2181.333       1691.7496      1694.6135      1705.9131      1674.7222     -95.151059     -90.012838      84.506975      17.677449      17.680482      17.683383      5526.8675    
       141   0             -2181.333       1691.7496      1694.6135      1705.9131      1674.7223     -95.151058     -90.012836      84.506974      17.677449      17.680482      17.683383      5526.8675    
       142   0             -2181.333       1691.7496      1694.6136      1705.9131      1674.7223     -95.151059     -90.012834      84.506976      17.677449      17.680482      17.683383      5526.8675    
       143   0             -2181.333       1691.7496      1694.6135      1705.9131      1674.7223     -95.151061     -90.012836      84.506976      17.677449      17.680482      17.683383      5526.8675    
       144   0             -2181.333       1691.7496      1694.6135      1705.9131      1674.7223     -95.15106      -90.012837      84.506976      17.677449      17.680482      17.683383      5526.8675    
       145   0             -2181.333       1691.7496      1694.6135      1705.9131      1674.7223     -95.15106      -90.012837      84.506975      17.677449      17.680482      17.683383      5526.8675    
       146   0             -2181.333       1691.7496      1694.6135      1705.9131      1674.7223     -95.151061     -90.012837      84.506974      17.677449      17.680482      17.683383      5526.8675    
       147   0             -2181.333       1691.7496      1694.6135      1705.9131      1674.7223     -95.151061     -90.012837      84.506974      17.677449      17.680482      17.683383      5526.8675    
       148   0             -2181.333       1691.7496      1694.6135      1705.9131      1674.7223     -95.151061     -90.012837      84.506974      17.677449      17.680482      17.683383      5526.8675    
       149   0             -2181.333       1691.7496      1694.6135      1705.9131      1674.7223     -95.151061     -90.012837      84.506974      17.677449      17.680482      17.683383      5526.8675    
       150   0             -2181.333       1691.7496      1694.6135      1705.9131      1674.7223     -95.151061     -90.012837      84.506974      17.677449      17.680482      17.683383      5526.8675    
       151   0             -2181.333       1691.7496      1694.6135      1705.9131      1674.7223     -95.151061     -90.012837      84.506974      17.677449      17.680482      17.683383      5526.8675    
       152   0             -2181.333       1691.7496      1694.6135      1705.9131      1674.7223     -95.151061     -90.012837      84.506974      17.677449      17.680482      17.683383      5526.8675    
       153   0             -2181.333       1691.7496      1694.6135      1705.9131      1674.7223     -95.151061     -90.012837      84.506974      17.677449      17.680482      17.683383      5526.8675    
       154   0             -2181.333       1691.7496      1694.6135      1705.9131      1674.7223     -95.151061     -90.012837      84.506974      17.677449      17.680482      17.683383      5526.8675    
       155   0             -2181.333       1691.7496      1694.6135      1705.9131      1674.7223     -95.151061     -90.012837      84.506974      17.677449      17.680482      17.683383      5526.8675    
       156   0             -2181.333       1691.7496      1694.6135      1705.9131      1674.7223     -95.151061     -90.012837      84.506974      17.677449      17.680482      17.683383      5526.8675    
       157   0             -2181.333       1691.7496      1694.6135      1705.9131      1674.7223     -95.151061     -90.012837      84.506974      17.677449      17.680482      17.683383      5526.8675    
       158   0             -2181.333       1691.7496      1694.6135      1705.9131      1674.7223     -95.151061     -90.012837      84.506974      17.677449      17.680482      17.683383      5526.8675    
       159   0             -2181.333       1691.7496      1694.6135      1705.9131      1674.7223     -95.151061     -90.012837      84.506974      17.677449      17.680482      17.683383      5526.8675    
       160   0             -2181.333       1691.7496      1694.6135      1705.9131      1674.7223     -95.151061     -90.012837      84.506974      17.677449      17.680482      17.683383      5526.8675    
Loop time of 0.139919 on 1 procs for 60 steps with 500 atoms

100.5% CPU use with 1 MPI tasks x 1 OpenMP threads

Minimization stats:
  Stopping criterion = force tolerance
  Energy initial, next-to-last, final = 
       -2181.076153296  -2181.33296848116  -2181.33296848117
  Force two-norm initial, final = 2.094197 8.9005697e-11
  Force max component initial, final = 0.18641967 1.2379937e-11
  Final line search alpha, max atom move = 1 1.2379937e-11
  Iterations, force evaluations = 60 118

MPI task timing breakdown:
Section |  min time  |  avg time  |  max time  |%varavg| %total
---------------------------------------------------------------
Pair    | 0.13735    | 0.13735    | 0.13735    |   0.0 | 98.16
Neigh   | 0          | 0          | 0          |   0.0 |  0.00
Comm    | 0.000681   | 0.000681   | 0.000681   |   0.0 |  0.49
Output  | 0.00093    | 0.00093    | 0.00093    |   0.0 |  0.66
Modify  | 0          | 0          | 0          |   0.0 |  0.00
Other   |            | 0.000957   |            |       |  0.68

Nlocal:            500 ave         500 max         500 min
Histogram: 1 0 0 0 0 0 0 0 0 0
Nghost:           1956 ave        1956 max        1956 min
Histogram: 1 0 0 0 0 0 0 0 0 0
Neighs:          33500 ave       33500 max       33500 min
Histogram: 1 0 0 0 0 0 0 0 0 0

Total # of neighbors = 33500
Ave neighs/atom = 67
Neighbor list builds = 0
Dangerous builds = 0
OMP_NUM_THREADS environment is not set. Defaulting to 1 thread. (src/comm.cpp:98)
  using 1 OpenMP thread(s) per MPI task
Loaded 1 plugins from F:\Lammps\LAMMPS 64-bit 2Aug2023\plugins

The 'box' command has been removed and will be ignored

Reading restart file ...
  restart file = 2 Aug 2023, LAMMPS = 2 Aug 2023
  restoring atom style atomic from restart
  triclinic box = (0.056266609 0.054758791 0.053308668) to (17.733733 17.735241 17.736691) with tilt (0 0 0)
  1 by 1 by 1 MPI processor grid
  pair style eam/alloy stores no restart info
  500 atoms
  read_restart CPU = 0.000 seconds
Changing box ...
  triclinic box = (0.056266609 0.054758791 0.053308668) to (17.733751 17.735241 17.736691) with tilt (0 0 0)
  triclinic box = (0.056266609 0.054758791 0.053308668) to (17.733751 17.735241 17.736691) with tilt (0 0 0)
  triclinic box = (0.056266609 0.054758791 0.053308668) to (17.733751 17.735241 17.736691) with tilt (0 0 0)
Neighbor list info ...
  update: every = 1 steps, delay = 0 steps, check = yes
  max neighbors/atom: 2000, page size: 100000
  master list distance cutoff = 6.80375
  ghost atom cutoff = 6.80375
  1 neighbor lists, perpetual/occasional/extra = 1 0 0
  (1) pair eam/alloy, perpetual
      attributes: half, newton on
      pair build: half/nsq/newton
      stencil: none
      bin: none
Setting up cg style minimization ...
  Unit style    : metal
  Current step  : 100
Per MPI rank memory allocation (min/avg/max) = 4.482 | 4.482 | 4.482 Mbytes
   Step          Temp          PotEng         Press           Pxx            Pyy            Pzz            Pxy            Pxz            Pyz             Lx             Ly             Lz           Volume    
       100   0             -2181.0762      309.67362      309.56018      309.72892      309.73175     -22.61903       41.3197        44.046555      17.677484      17.680482      17.683383      5526.8785    
       101   0             -2181.2429      1161.1861      1165.8846      1167.6786      1149.995      -65.524161     -28.162703      68.395368      17.677484      17.680482      17.683383      5526.8785    
       102   0             -2181.309       1727.0709      1740.3019      1733.82        1707.0908     -91.055099     -78.605279      92.052343      17.677484      17.680482      17.683383      5526.8785    
       103   0             -2181.3251      1570.6845      1582.0549      1573.3957      1556.603      -82.849891     -74.241595      83.19202       17.677484      17.680482      17.683383      5526.8785    
       104   0             -2181.3306      1674.9596      1683.5702      1682.6827      1658.6259     -91.556305     -82.727708      86.661411      17.677484      17.680482      17.683383      5526.8785    
       105   0             -2181.332       1738.8604      1744.6012      1751.0609      1720.9191     -96.958436     -88.777894      87.702442      17.677484      17.680482      17.683383      5526.8785    
       106   0             -2181.3327      1688.7472      1691.5634      1702.2423      1672.4361     -94.722302     -90.043076      85.165456      17.677484      17.680482      17.683383      5526.8785    
       107   0             -2181.3329      1682.9093      1684.9308      1697.3337      1666.4634     -96.054204     -90.701235      84.580014      17.677484      17.680482      17.683383      5526.8785    
       108   0             -2181.3329      1686.9694      1688.7335      1701.2708      1670.9038     -95.173415     -90.741748      85.287316      17.677484      17.680482      17.683383      5526.8785    
       109   0             -2181.3329      1688.5997      1690.5432      1703.1136      1672.1423     -95.009008     -90.728733      85.018177      17.677484      17.680482      17.683383      5526.8785    
       110   0             -2181.333       1689.5656      1691.8154      1703.8421      1673.0395     -94.944266     -90.106283      84.76239       17.677484      17.680482      17.683383      5526.8785    
       111   0             -2181.333       1687.5038      1689.6274      1701.9822      1670.9017     -94.875266     -89.786596      84.803509      17.677484      17.680482      17.683383      5526.8785    
       112   0             -2181.333       1687.2312      1689.2803      1701.7951      1670.6182     -94.942003     -89.823165      84.811021      17.677484      17.680482      17.683383      5526.8785    
       113   0             -2181.333       1688.4604      1690.1589      1703.3672      1671.8551     -95.164463     -89.959358      84.513278      17.677484      17.680482      17.683383      5526.8785    
       114   0             -2181.333       1688.451       1690.0693      1703.3424      1671.9414     -95.081541     -90.082437      84.454119      17.677484      17.680482      17.683383      5526.8785    
       115   0             -2181.333       1688.2287      1689.8715      1703.0969      1671.7177     -95.173439     -90.067495      84.417246      17.677484      17.680482      17.683383      5526.8785    
       116   0             -2181.333       1687.9616      1689.5889      1702.7897      1671.5062     -95.136486     -90.039372      84.435043      17.677484      17.680482      17.683383      5526.8785    
       117   0             -2181.333       1687.8961      1689.5234      1702.7074      1671.4573     -95.116256     -90.011682      84.462473      17.677484      17.680482      17.683383      5526.8785    
       118   0             -2181.333       1688.1133      1689.7842      1702.8887      1671.6671     -95.143416     -90.030577      84.49099       17.677484      17.680482      17.683383      5526.8785    
       119   0             -2181.333       1688.142       1689.8362      1702.9011      1671.6886     -95.16895      -90.028644      84.50392       17.677484      17.680482      17.683383      5526.8785    
       120   0             -2181.333       1688.0875      1689.7784      1702.8467      1671.6373     -95.16532      -90.026682      84.495756      17.677484      17.680482      17.683383      5526.8785    
       121   0             -2181.333       1688.0634      1689.737       1702.8222      1671.631      -95.148334     -90.006132      84.502914      17.677484      17.680482      17.683383      5526.8785    
       122   0             -2181.333       1688.0768      1689.7368      1702.8371      1671.6566     -95.146158     -90.015479      84.506499      17.677484      17.680482      17.683383      5526.8785    
       123   0             -2181.333       1688.0795      1689.7345      1702.8438      1671.6603     -95.148734     -90.02199       84.51378       17.677484      17.680482      17.683383      5526.8785    
       124   0             -2181.333       1688.0786      1689.7305      1702.8454      1671.6599     -95.147183     -90.021436      84.508338      17.677484      17.680482      17.683383      5526.8785    
       125   0             -2181.333       1688.0705      1689.7214      1702.8376      1671.6526     -95.146735     -90.020038      84.506609      17.677484      17.680482      17.683383      5526.8785    
       126   0             -2181.333       1688.0695      1689.72        1702.8374      1671.6512     -95.145994     -90.022635      84.506226      17.677484      17.680482      17.683383      5526.8785    
       127   0             -2181.333       1688.0762      1689.727       1702.8448      1671.657      -95.144931     -90.023043      84.506334      17.677484      17.680482      17.683383      5526.8785    
       128   0             -2181.333       1688.0776      1689.7284      1702.8457      1671.6587     -95.143939     -90.023359      84.50642       17.677484      17.680482      17.683383      5526.8785    
       129   0             -2181.333       1688.077       1689.7278      1702.8452      1671.6582     -95.143839     -90.023201      84.506368      17.677484      17.680482      17.683383      5526.8785    
       130   0             -2181.333       1688.0764      1689.727       1702.8441      1671.6579     -95.143632     -90.023001      84.506372      17.677484      17.680482      17.683383      5526.8785    
       131   0             -2181.333       1688.0763      1689.7268      1702.844       1671.6582     -95.1437       -90.023127      84.506302      17.677484      17.680482      17.683383      5526.8785    
       132   0             -2181.333       1688.0768      1689.7272      1702.8443      1671.6588     -95.143637     -90.023127      84.506371      17.677484      17.680482      17.683383      5526.8785    
       133   0             -2181.333       1688.0766      1689.7269      1702.8442      1671.6588     -95.143719     -90.023072      84.506354      17.677484      17.680482      17.683383      5526.8785    
       134   0             -2181.333       1688.0762      1689.7265      1702.8436      1671.6586     -95.143738     -90.023084      84.506351      17.677484      17.680482      17.683383      5526.8785    
       135   0             -2181.333       1688.0761      1689.7264      1702.8435      1671.6584     -95.14384      -90.023113      84.50637       17.677484      17.680482      17.683383      5526.8785    
       136   0             -2181.333       1688.0763      1689.7266      1702.8437      1671.6586     -95.143851     -90.023161      84.506361      17.677484      17.680482      17.683383      5526.8785    
       137   0             -2181.333       1688.0764      1689.7267      1702.8437      1671.6587     -95.143842     -90.023133      84.506353      17.677484      17.680482      17.683383      5526.8785    
       138   0             -2181.333       1688.0764      1689.7267      1702.8437      1671.6587     -95.143835     -90.023121      84.506361      17.677484      17.680482      17.683383      5526.8785    
       139   0             -2181.333       1688.0763      1689.7266      1702.8436      1671.6587     -95.143841     -90.023111      84.506367      17.677484      17.680482      17.683383      5526.8785    
       140   0             -2181.333       1688.0763      1689.7266      1702.8436      1671.6587     -95.143838     -90.023117      84.506366      17.677484      17.680482      17.683383      5526.8785    
       141   0             -2181.333       1688.0763      1689.7266      1702.8436      1671.6587     -95.143837     -90.023116      84.506365      17.677484      17.680482      17.683383      5526.8785    
       142   0             -2181.333       1688.0763      1689.7266      1702.8436      1671.6587     -95.143838     -90.023114      84.506367      17.677484      17.680482      17.683383      5526.8785    
       143   0             -2181.333       1688.0763      1689.7266      1702.8436      1671.6587     -95.14384      -90.023116      84.506368      17.677484      17.680482      17.683383      5526.8785    
       144   0             -2181.333       1688.0763      1689.7266      1702.8436      1671.6587     -95.143839     -90.023116      84.506367      17.677484      17.680482      17.683383      5526.8785    
       145   0             -2181.333       1688.0763      1689.7266      1702.8436      1671.6587     -95.143839     -90.023117      84.506366      17.677484      17.680482      17.683383      5526.8785    
       146   0             -2181.333       1688.0763      1689.7266      1702.8436      1671.6587     -95.14384      -90.023117      84.506366      17.677484      17.680482      17.683383      5526.8785    
       147   0             -2181.333       1688.0763      1689.7266      1702.8436      1671.6587     -95.14384      -90.023117      84.506365      17.677484      17.680482      17.683383      5526.8785    
       148   0             -2181.333       1688.0763      1689.7266      1702.8436      1671.6587     -95.14384      -90.023116      84.506365      17.677484      17.680482      17.683383      5526.8785    
       149   0             -2181.333       1688.0763      1689.7266      1702.8436      1671.6587     -95.14384      -90.023116      84.506365      17.677484      17.680482      17.683383      5526.8785    
       150   0             -2181.333       1688.0763      1689.7266      1702.8436      1671.6587     -95.14384      -90.023116      84.506365      17.677484      17.680482      17.683383      5526.8785    
       151   0             -2181.333       1688.0763      1689.7266      1702.8436      1671.6587     -95.14384      -90.023116      84.506365      17.677484      17.680482      17.683383      5526.8785    
       152   0             -2181.333       1688.0763      1689.7266      1702.8436      1671.6587     -95.14384      -90.023116      84.506365      17.677484      17.680482      17.683383      5526.8785    
       153   0             -2181.333       1688.0763      1689.7266      1702.8436      1671.6587     -95.14384      -90.023116      84.506365      17.677484      17.680482      17.683383      5526.8785    
       154   0             -2181.333       1688.0763      1689.7266      1702.8436      1671.6587     -95.14384      -90.023116      84.506365      17.677484      17.680482      17.683383      5526.8785    
       155   0             -2181.333       1688.0763      1689.7266      1702.8436      1671.6587     -95.14384      -90.023116      84.506365      17.677484      17.680482      17.683383      5526.8785    
       156   0             -2181.333       1688.0763      1689.7266      1702.8436      1671.6587     -95.14384      -90.023116      84.506365      17.677484      17.680482      17.683383      5526.8785    
       157   0             -2181.333       1688.0763      1689.7266      1702.8436      1671.6587     -95.14384      -90.023116      84.506365      17.677484      17.680482      17.683383      5526.8785    
       158   0             -2181.333       1688.0763      1689.7266      1702.8436      1671.6587     -95.14384      -90.023116      84.506365      17.677484      17.680482      17.683383      5526.8785    
       159   0             -2181.333       1688.0763      1689.7266      1702.8436      1671.6587     -95.14384      -90.023116      84.506365      17.677484      17.680482      17.683383      5526.8785    
       160   0             -2181.333       1688.0763      1689.7266      1702.8436      1671.6587     -95.14384      -90.023116      84.506365      17.677484      17.680482      17.683383      5526.8785    
Loop time of 0.140559 on 1 procs for 60 steps with 500 atoms

100.0% CPU use with 1 MPI tasks x 1 OpenMP threads

Minimization stats:
  Stopping criterion = force tolerance
  Energy initial, next-to-last, final = 
     -2181.07615544877   -2181.3329801558   -2181.3329801558
  Force two-norm initial, final = 2.0942453 8.9008246e-11
  Force max component initial, final = 0.18642146 1.2380711e-11
  Final line search alpha, max atom move = 1 1.2380711e-11
  Iterations, force evaluations = 60 118

MPI task timing breakdown:
Section |  min time  |  avg time  |  max time  |%varavg| %total
---------------------------------------------------------------
Pair    | 0.13786    | 0.13786    | 0.13786    |   0.0 | 98.08
Neigh   | 0          | 0          | 0          |   0.0 |  0.00
Comm    | 0.000701   | 0.000701   | 0.000701   |   0.0 |  0.50
Output  | 0.000934   | 0.000934   | 0.000934   |   0.0 |  0.66
Modify  | 0          | 0          | 0          |   0.0 |  0.00
Other   |            | 0.001062   |            |       |  0.76

Nlocal:            500 ave         500 max         500 min
Histogram: 1 0 0 0 0 0 0 0 0 0
Nghost:           1956 ave        1956 max        1956 min
Histogram: 1 0 0 0 0 0 0 0 0 0
Neighs:          33500 ave       33500 max       33500 min
Histogram: 1 0 0 0 0 0 0 0 0 0

Total # of neighbors = 33500
Ave neighs/atom = 67
Neighbor list builds = 0
Dangerous builds = 0
OMP_NUM_THREADS environment is not set. Defaulting to 1 thread. (src/comm.cpp:98)
  using 1 OpenMP thread(s) per MPI task
Loaded 1 plugins from F:\Lammps\LAMMPS 64-bit 2Aug2023\plugins

The 'box' command has been removed and will be ignored

Reading restart file ...
  restart file = 2 Aug 2023, LAMMPS = 2 Aug 2023
  restoring atom style atomic from restart
  triclinic box = (0.056266609 0.054758791 0.053308668) to (17.733733 17.735241 17.736691) with tilt (0 0 0)
  1 by 1 by 1 MPI processor grid
  pair style eam/alloy stores no restart info
  500 atoms
  read_restart CPU = 0.000 seconds
Changing box ...
  triclinic box = (0.056266609 0.054758791 0.053308668) to (17.733733 17.735224 17.736691) with tilt (0 0 0)
  triclinic box = (0.056266609 0.054758791 0.053308668) to (17.733733 17.735224 17.736691) with tilt (0 0 0)
Neighbor list info ...
  update: every = 1 steps, delay = 0 steps, check = yes
  max neighbors/atom: 2000, page size: 100000
  master list distance cutoff = 6.80375
  ghost atom cutoff = 6.80375
  1 neighbor lists, perpetual/occasional/extra = 1 0 0
  (1) pair eam/alloy, perpetual
      attributes: half, newton on
      pair build: half/nsq/newton
      stencil: none
      bin: none
Setting up cg style minimization ...
  Unit style    : metal
  Current step  : 100
Per MPI rank memory allocation (min/avg/max) = 4.482 | 4.482 | 4.482 Mbytes
   Step          Temp          PotEng         Press           Pxx            Pyy            Pzz            Pxy            Pxz            Pyz             Lx             Ly             Lz           Volume    
       100   0             -2181.0762      313.39928      313.59182      313.75689      312.84913     -22.62346       41.320234      44.051865      17.677467      17.680465      17.683383      5526.8675    
       101   0             -2181.2429      1164.8901      1169.8942      1171.6832      1153.093      -65.533286     -28.160052      68.400116      17.677467      17.680465      17.683383      5526.8675    
       102   0             -2181.3089      1730.7565      1744.2935      1737.8069      1710.1692     -91.063271     -78.600142      92.05599       17.677467      17.680465      17.683383      5526.8675    
       103   0             -2181.3251      1574.3597      1586.0342      1577.3727      1559.6721     -82.858541     -74.233838      83.194658      17.677467      17.680465      17.683383      5526.8675    
       104   0             -2181.3306      1678.6087      1687.5235      1686.634       1661.6686     -91.562491     -82.718854      86.66345       17.677467      17.680465      17.683383      5526.8675    
       105   0             -2181.332       1742.5329      1748.5785      1755.0358      1723.9845     -96.966754     -88.769899      87.704666      17.677467      17.680465      17.683383      5526.8675    
       106   0             -2181.3327      1692.4253      1695.546       1706.2223      1675.5077     -94.730806     -90.035787      85.167914      17.677467      17.680465      17.683383      5526.8675    
       107   0             -2181.3329      1686.5842      1688.91        1701.3107      1669.5318     -96.062634     -90.693869      84.582409      17.677467      17.680465      17.683383      5526.8675    
       108   0             -2181.3329      1690.6436      1692.7121      1705.2471      1673.9716     -95.181971     -90.734103      85.289767      17.677467      17.680465      17.683383      5526.8675    
       109   0             -2181.3329      1692.2728      1694.5206      1707.0887      1675.2091     -95.017213     -90.720952      85.020703      17.677467      17.680465      17.683383      5526.8675    
       110   0             -2181.333       1693.2395      1695.7935      1707.8178      1676.1072     -94.952513     -90.098774      84.764921      17.677467      17.680465      17.683383      5526.8675    
       111   0             -2181.333       1691.1788      1693.6066      1705.959       1673.9706     -94.883674     -89.779082      84.806024      17.677467      17.680465      17.683383      5526.8675    
       112   0             -2181.333       1690.9052      1693.2585      1705.7709      1673.6861     -94.950306     -89.815554      84.813509      17.677467      17.680465      17.683383      5526.8675    
       113   0             -2181.333       1692.1339      1694.1366      1707.3425      1674.9226     -95.172769     -89.951707      84.515739      17.677467      17.680465      17.683383      5526.8675    
       114   0             -2181.333       1692.1249      1694.0473      1707.318       1675.0094     -95.089855     -90.074822      84.456571      17.677467      17.680465      17.683383      5526.8675    
       115   0             -2181.333       1691.9028      1693.8498      1707.0727      1674.7858     -95.181748     -90.059918      84.41973       17.677467      17.680465      17.683383      5526.8675    
       116   0             -2181.333       1691.6357      1693.5672      1706.7656      1674.5743     -95.144802     -90.031788      84.437525      17.677467      17.680465      17.683383      5526.8675    
       117   0             -2181.333       1691.57        1693.5016      1706.6831      1674.5254     -95.124566     -90.004071      84.464946      17.677467      17.680465      17.683383      5526.8675    
       118   0             -2181.333       1691.7872      1693.7623      1706.8644      1674.7351     -95.151718     -90.022967      84.493466      17.677467      17.680465      17.683383      5526.8675    
       119   0             -2181.333       1691.816       1693.8144      1706.8768      1674.7567     -95.177255     -90.021043      84.506402      17.677467      17.680465      17.683383      5526.8675    
       120   0             -2181.333       1691.7615      1693.7566      1706.8224      1674.7053     -95.173628     -90.019088      84.498238      17.677467      17.680465      17.683383      5526.8675    
       121   0             -2181.333       1691.7373      1693.7151      1706.7978      1674.699      -95.156644     -89.998533      84.505396      17.677467      17.680465      17.683383      5526.8675    
       122   0             -2181.333       1691.7508      1693.715       1706.8128      1674.7247     -95.154468     -90.007876      84.508979      17.677467      17.680465      17.683383      5526.8675    
       123   0             -2181.333       1691.7535      1693.7126      1706.8195      1674.7284     -95.157043     -90.014388      84.516262      17.677467      17.680465      17.683383      5526.8675    
       124   0             -2181.333       1691.7526      1693.7086      1706.8211      1674.7279     -95.155492     -90.013836      84.51082       17.677467      17.680465      17.683383      5526.8675    
       125   0             -2181.333       1691.7445      1693.6996      1706.8133      1674.7207     -95.155045     -90.012439      84.50909       17.677467      17.680465      17.683383      5526.8675    
       126   0             -2181.333       1691.7435      1693.6982      1706.8131      1674.7192     -95.154304     -90.015034      84.508708      17.677467      17.680465      17.683383      5526.8675    
       127   0             -2181.333       1691.7502      1693.7052      1706.8204      1674.7251     -95.153241     -90.015442      84.508816      17.677467      17.680465      17.683383      5526.8675    
       128   0             -2181.333       1691.7516      1693.7065      1706.8214      1674.7268     -95.152249     -90.015758      84.508901      17.677467      17.680465      17.683383      5526.8675    
       129   0             -2181.333       1691.751       1693.706       1706.8208      1674.7262     -95.152149     -90.015601      84.50885       17.677467      17.680465      17.683383      5526.8675    
       130   0             -2181.333       1691.7503      1693.7052      1706.8198      1674.726      -95.151942     -90.015401      84.508854      17.677467      17.680465      17.683383      5526.8675    
       131   0             -2181.333       1691.7503      1693.705       1706.8197      1674.7262     -95.15201      -90.015527      84.508783      17.677467      17.680465      17.683383      5526.8675    
       132   0             -2181.333       1691.7508      1693.7054      1706.82        1674.7269     -95.151947     -90.015527      84.508853      17.677467      17.680465      17.683383      5526.8675    
       133   0             -2181.333       1691.7506      1693.7051      1706.8199      1674.7269     -95.152029     -90.015471      84.508836      17.677467      17.680465      17.683383      5526.8675    
       134   0             -2181.333       1691.7502      1693.7047      1706.8193      1674.7266     -95.152048     -90.015484      84.508833      17.677467      17.680465      17.683383      5526.8675    
       135   0             -2181.333       1691.7501      1693.7046      1706.8192      1674.7265     -95.15215      -90.015513      84.508852      17.677467      17.680465      17.683383      5526.8675    
       136   0             -2181.333       1691.7503      1693.7047      1706.8193      1674.7267     -95.152161     -90.015561      84.508843      17.677467      17.680465      17.683383      5526.8675    
       137   0             -2181.333       1691.7503      1693.7048      1706.8194      1674.7268     -95.152152     -90.015533      84.508835      17.677467      17.680465      17.683383      5526.8675    
       138   0             -2181.333       1691.7503      1693.7048      1706.8194      1674.7268     -95.152145     -90.01552       84.508843      17.677467      17.680465      17.683383      5526.8675    
       139   0             -2181.333       1691.7503      1693.7048      1706.8193      1674.7267     -95.152151     -90.015511      84.508848      17.677467      17.680465      17.683383      5526.8675    
       140   0             -2181.333       1691.7503      1693.7048      1706.8193      1674.7267     -95.152148     -90.015517      84.508848      17.677467      17.680465      17.683383      5526.8675    
       141   0             -2181.333       1691.7503      1693.7048      1706.8193      1674.7267     -95.152147     -90.015516      84.508847      17.677467      17.680465      17.683383      5526.8675    
       142   0             -2181.333       1691.7503      1693.7048      1706.8193      1674.7267     -95.152148     -90.015513      84.508849      17.677467      17.680465      17.683383      5526.8675    
       143   0             -2181.333       1691.7503      1693.7048      1706.8193      1674.7267     -95.15215      -90.015516      84.508849      17.677467      17.680465      17.683383      5526.8675    
       144   0             -2181.333       1691.7503      1693.7048      1706.8193      1674.7267     -95.152149     -90.015516      84.508849      17.677467      17.680465      17.683383      5526.8675    
       145   0             -2181.333       1691.7503      1693.7048      1706.8193      1674.7267     -95.152149     -90.015517      84.508848      17.677467      17.680465      17.683383      5526.8675    
       146   0             -2181.333       1691.7503      1693.7048      1706.8193      1674.7267     -95.15215      -90.015516      84.508847      17.677467      17.680465      17.683383      5526.8675    
       147   0             -2181.333       1691.7503      1693.7048      1706.8193      1674.7267     -95.15215      -90.015517      84.508847      17.677467      17.680465      17.683383      5526.8675    
       148   0             -2181.333       1691.7503      1693.7048      1706.8193      1674.7267     -95.15215      -90.015516      84.508847      17.677467      17.680465      17.683383      5526.8675    
       149   0             -2181.333       1691.7503      1693.7048      1706.8193      1674.7267     -95.15215      -90.015516      84.508847      17.677467      17.680465      17.683383      5526.8675    
       150   0             -2181.333       1691.7503      1693.7048      1706.8193      1674.7267     -95.15215      -90.015516      84.508847      17.677467      17.680465      17.683383      5526.8675    
       151   0             -2181.333       1691.7503      1693.7048      1706.8193      1674.7267     -95.15215      -90.015516      84.508847      17.677467      17.680465      17.683383      5526.8675    
       152   0             -2181.333       1691.7503      1693.7048      1706.8193      1674.7267     -95.15215      -90.015516      84.508847      17.677467      17.680465      17.683383      5526.8675    
       153   0             -2181.333       1691.7503      1693.7048      1706.8193      1674.7267     -95.15215      -90.015516      84.508847      17.677467      17.680465      17.683383      5526.8675    
       154   0             -2181.333       1691.7503      1693.7048      1706.8193      1674.7267     -95.15215      -90.015516      84.508847      17.677467      17.680465      17.683383      5526.8675    
       155   0             -2181.333       1691.7503      1693.7048      1706.8193      1674.7267     -95.15215      -90.015516      84.508847      17.677467      17.680465      17.683383      5526.8675    
       156   0             -2181.333       1691.7503      1693.7048      1706.8193      1674.7267     -95.15215      -90.015516      84.508847      17.677467      17.680465      17.683383      5526.8675    
       157   0             -2181.333       1691.7503      1693.7048      1706.8193      1674.7267     -95.15215      -90.015516      84.508847      17.677467      17.680465      17.683383      5526.8675    
       158   0             -2181.333       1691.7503      1693.7048      1706.8193      1674.7267     -95.15215      -90.015516      84.508847      17.677467      17.680465      17.683383      5526.8675    
       159   0             -2181.333       1691.7503      1693.7048      1706.8193      1674.7267     -95.15215      -90.015516      84.508847      17.677467      17.680465      17.683383      5526.8675    
       160   0             -2181.333       1691.7503      1693.7048      1706.8193      1674.7267     -95.15215      -90.015516      84.508847      17.677467      17.680465      17.683383      5526.8675    
Loop time of 0.13907 on 1 procs for 60 steps with 500 atoms

89.9% CPU use with 1 MPI tasks x 1 OpenMP threads

Minimization stats:
  Stopping criterion = force tolerance
  Energy initial, next-to-last, final = 
     -2181.07615329856  -2181.33296843906  -2181.33296843905
  Force two-norm initial, final = 2.0941969 8.8994261e-11
  Force max component initial, final = 0.18641818 1.2384793e-11
  Final line search alpha, max atom move = 1 1.2384793e-11
  Iterations, force evaluations = 60 118

MPI task timing breakdown:
Section |  min time  |  avg time  |  max time  |%varavg| %total
---------------------------------------------------------------
Pair    | 0.1365     | 0.1365     | 0.1365     |   0.0 | 98.15
Neigh   | 0          | 0          | 0          |   0.0 |  0.00
Comm    | 0.000677   | 0.000677   | 0.000677   |   0.0 |  0.49
Output  | 0.00091    | 0.00091    | 0.00091    |   0.0 |  0.65
Modify  | 0          | 0          | 0          |   0.0 |  0.00
Other   |            | 0.000981   |            |       |  0.71

Nlocal:            500 ave         500 max         500 min
Histogram: 1 0 0 0 0 0 0 0 0 0
Nghost:           1956 ave        1956 max        1956 min
Histogram: 1 0 0 0 0 0 0 0 0 0
Neighs:          33500 ave       33500 max       33500 min
Histogram: 1 0 0 0 0 0 0 0 0 0

Total # of neighbors = 33500
Ave neighs/atom = 67
Neighbor list builds = 0
Dangerous builds = 0
OMP_NUM_THREADS environment is not set. Defaulting to 1 thread. (src/comm.cpp:98)
  using 1 OpenMP thread(s) per MPI task
Loaded 1 plugins from F:\Lammps\LAMMPS 64-bit 2Aug2023\plugins

The 'box' command has been removed and will be ignored

Reading restart file ...
  restart file = 2 Aug 2023, LAMMPS = 2 Aug 2023
  restoring atom style atomic from restart
  triclinic box = (0.056266609 0.054758791 0.053308668) to (17.733733 17.735241 17.736691) with tilt (0 0 0)
  1 by 1 by 1 MPI processor grid
  pair style eam/alloy stores no restart info
  500 atoms
  read_restart CPU = 0.000 seconds
Changing box ...
  triclinic box = (0.056266609 0.054758791 0.053308668) to (17.733733 17.735259 17.736691) with tilt (0 0 0)
  triclinic box = (0.056266609 0.054758791 0.053308668) to (17.733733 17.735259 17.736691) with tilt (0 0 0)
Neighbor list info ...
  update: every = 1 steps, delay = 0 steps, check = yes
  max neighbors/atom: 2000, page size: 100000
  master list distance cutoff = 6.80375
  ghost atom cutoff = 6.80375
  1 neighbor lists, perpetual/occasional/extra = 1 0 0
  (1) pair eam/alloy, perpetual
      attributes: half, newton on
      pair build: half/nsq/newton
      stencil: none
      bin: none
Setting up cg style minimization ...
  Unit style    : metal
  Current step  : 100
Per MPI rank memory allocation (min/avg/max) = 4.482 | 4.482 | 4.482 Mbytes
   Step          Temp          PotEng         Press           Pxx            Pyy            Pzz            Pxy            Pxz            Pyz             Lx             Ly             Lz           Volume    
       100   0             -2181.0762      309.6754       310.47453      308.81825      309.73341     -22.619074      41.32017       44.04504       17.677467      17.6805        17.683383      5526.8785    
       101   0             -2181.2429      1161.1806      1166.788       1166.7656      1149.9882     -65.523154     -28.160825      68.392996      17.677467      17.6805        17.683383      5526.8785    
       102   0             -2181.309       1727.0641      1741.2053      1732.9055      1707.0814     -91.053996     -78.602886      92.049882      17.677467      17.6805        17.683383      5526.8785    
       103   0             -2181.3251      1570.6833      1582.9622      1572.4888      1556.5988     -82.848214     -74.239019      83.190376      17.677467      17.6805        17.683383      5526.8785    
       104   0             -2181.3306      1674.9692      1684.4901      1681.7858      1658.6317     -91.555713     -82.725276      86.659951      17.677467      17.6805        17.683383      5526.8785    
       105   0             -2181.332       1738.8611      1745.5123      1750.155       1720.916      -96.95732      -88.775121      87.700596      17.677467      17.6805        17.683383      5526.8785    
       106   0             -2181.3327      1688.7447      1692.4706      1701.3337      1672.4297     -94.721306     -90.040213      85.163666      17.677467      17.6805        17.683383      5526.8785    
       107   0             -2181.3329      1682.9084      1685.8398      1696.4265      1666.4588     -96.053212     -90.698531      84.578179      17.677467      17.6805        17.683383      5526.8785    
       108   0             -2181.3329      1686.9687      1689.6427      1700.364       1670.8995     -95.172297     -90.73912       85.285488      17.677467      17.6805        17.683383      5526.8785    
       109   0             -2181.3329      1688.5995      1691.4528      1702.2074      1672.1383     -95.008001     -90.726154      85.016293      17.677467      17.6805        17.683383      5526.8785    
       110   0             -2181.333       1689.565       1692.7244      1702.9356      1673.0351     -94.943218     -90.103569      84.76051       17.677467      17.6805        17.683383      5526.8785    
       111   0             -2181.333       1687.5027      1690.5358      1701.0753      1670.8968     -94.874155     -89.783877      84.801634      17.677467      17.6805        17.683383      5526.8785    
       112   0             -2181.333       1687.2305      1690.1891      1700.8888      1670.6137     -94.940938     -89.820498      84.809166      17.677467      17.6805        17.683383      5526.8785    
       113   0             -2181.333       1688.4599      1691.0679      1702.4611      1671.8508     -95.163395     -89.956695      84.511429      17.677467      17.6805        17.683383      5526.8785    
       114   0             -2181.333       1688.4504      1690.978       1702.4361      1671.937      -95.080461     -90.07977       84.452264      17.677467      17.6805        17.683383      5526.8785    
       115   0             -2181.333       1688.228       1690.7802      1702.1906      1671.7131     -95.172355     -90.064809      84.415376      17.677467      17.6805        17.683383      5526.8785    
       116   0             -2181.333       1687.9609      1690.4976      1701.8834      1671.5016     -95.135399     -90.036689      84.433176      17.677467      17.6805        17.683383      5526.8785    
       117   0             -2181.333       1687.8954      1690.4322      1701.8012      1671.4529     -95.115169     -90.009003      84.460608      17.677467      17.6805        17.683383      5526.8785    
       118   0             -2181.333       1688.1127      1690.6929      1701.9825      1671.6627     -95.142331     -90.027901      84.489119      17.677467      17.6805        17.683383      5526.8785    
       119   0             -2181.333       1688.1413      1690.7449      1701.9948      1671.6842     -95.167863     -90.025965      84.50205       17.677467      17.6805        17.683383      5526.8785    
       120   0             -2181.333       1688.0868      1690.6871      1701.9404      1671.6328     -95.164232     -90.024002      84.493883      17.677467      17.6805        17.683383      5526.8785    
       121   0             -2181.333       1688.0627      1690.6457      1701.9159      1671.6265     -95.147245     -90.003451      84.50104       17.677467      17.6805        17.683383      5526.8785    
       122   0             -2181.333       1688.0762      1690.6455      1701.9309      1671.6522     -95.145069     -90.012801      84.504627      17.677467      17.6805        17.683383      5526.8785    
       123   0             -2181.333       1688.0789      1690.6432      1701.9376      1671.6559     -95.147646     -90.019311      84.511906      17.677467      17.6805        17.683383      5526.8785    
       124   0             -2181.333       1688.0779      1690.6392      1701.9392      1671.6554     -95.146094     -90.018756      84.506465      17.677467      17.6805        17.683383      5526.8785    
       125   0             -2181.333       1688.0699      1690.6301      1701.9313      1671.6481     -95.145647     -90.017359      84.504736      17.677467      17.6805        17.683383      5526.8785    
       126   0             -2181.333       1688.0689      1690.6288      1701.9312      1671.6467     -95.144905     -90.019955      84.504353      17.677467      17.6805        17.683383      5526.8785    
       127   0             -2181.333       1688.0756      1690.6357      1701.9385      1671.6525     -95.143842     -90.020363      84.504461      17.677467      17.6805        17.683383      5526.8785    
       128   0             -2181.333       1688.0769      1690.6371      1701.9395      1671.6542     -95.14285      -90.020679      84.504546      17.677467      17.6805        17.683383      5526.8785    
       129   0             -2181.333       1688.0764      1690.6365      1701.9389      1671.6537     -95.14275      -90.020521      84.504495      17.677467      17.6805        17.683383      5526.8785    
       130   0             -2181.333       1688.0757      1690.6358      1701.9379      1671.6534     -95.142544     -90.020322      84.504499      17.677467      17.6805        17.683383      5526.8785    
       131   0             -2181.333       1688.0757      1690.6356      1701.9378      1671.6537     -95.142611     -90.020447      84.504428      17.677467      17.6805        17.683383      5526.8785    
       132   0             -2181.333       1688.0761      1690.6359      1701.9381      1671.6543     -95.142548     -90.020447      84.504498      17.677467      17.6805        17.683383      5526.8785    
       133   0             -2181.333       1688.076       1690.6357      1701.9379      1671.6544     -95.142631     -90.020392      84.504481      17.677467      17.6805        17.683383      5526.8785    
       134   0             -2181.333       1688.0756      1690.6352      1701.9374      1671.6541     -95.142649     -90.020404      84.504478      17.677467      17.6805        17.683383      5526.8785    
       135   0             -2181.333       1688.0755      1690.6351      1701.9373      1671.6539     -95.142751     -90.020433      84.504497      17.677467      17.6805        17.683383      5526.8785    
       136   0             -2181.333       1688.0756      1690.6353      1701.9374      1671.6541     -95.142762     -90.020481      84.504488      17.677467      17.6805        17.683383      5526.8785    
[...]
       153   0             -2181.333       1689.9096      1692.1667      1704.3737      1673.1884     -93.959392     -90.019448      84.508332      17.677467      17.680482      17.683383      5526.873     
       154   0             -2181.333       1689.9096      1692.1667      1704.3737      1673.1884     -93.959392     -90.019448      84.508332      17.677467      17.680482      17.683383      5526.873     
       155   0             -2181.333       1689.9096      1692.1667      1704.3737      1673.1884     -93.959392     -90.019449      84.508332      17.677467      17.680482      17.683383      5526.873     
       156   0             -2181.333       1689.9096      1692.1667      1704.3737      1673.1884     -93.959392     -90.019449      84.508332      17.677467      17.680482      17.683383      5526.873     
       157   0             -2181.333       1689.9096      1692.1667      1704.3737      1673.1884     -93.959392     -90.019449      84.508332      17.677467      17.680482      17.683383      5526.873     
       158   0             -2181.333       1689.9096      1692.1667      1704.3737      1673.1884     -93.959392     -90.019449      84.508332      17.677467      17.680482      17.683383      5526.873     
       159   0             -2181.333       1689.9096      1692.1667      1704.3737      1673.1884     -93.959392     -90.019449      84.508332      17.677467      17.680482      17.683383      5526.873     
       160   0             -2181.333       1689.9096      1692.1667      1704.3737      1673.1884     -93.959392     -90.019449      84.508332      17.677467      17.680482      17.683383      5526.873     
Loop time of 0.140461 on 1 procs for 60 steps with 500 atoms

100.1% CPU use with 1 MPI tasks x 1 OpenMP threads

Minimization stats:
  Stopping criterion = force tolerance
  Energy initial, next-to-last, final = 
     -2181.07615445262  -2181.33297464884  -2181.33297464884
  Force two-norm initial, final = 2.0942223 8.9013782e-11
  Force max component initial, final = 0.18642103 1.2388972e-11
  Final line search alpha, max atom move = 1 1.2388972e-11
  Iterations, force evaluations = 60 118

MPI task timing breakdown:
Section |  min time  |  avg time  |  max time  |%varavg| %total
---------------------------------------------------------------
Pair    | 0.13787    | 0.13787    | 0.13787    |   0.0 | 98.16
Neigh   | 0          | 0          | 0          |   0.0 |  0.00
Comm    | 0.000671   | 0.000671   | 0.000671   |   0.0 |  0.48
Output  | 0.000912   | 0.000912   | 0.000912   |   0.0 |  0.65
Modify  | 0          | 0          | 0          |   0.0 |  0.00
Other   |            | 0.001005   |            |       |  0.72

Nlocal:            500 ave         500 max         500 min
Histogram: 1 0 0 0 0 0 0 0 0 0
Nghost:           1956 ave        1956 max        1956 min
Histogram: 1 0 0 0 0 0 0 0 0 0
Neighs:          33500 ave       33500 max       33500 min
Histogram: 1 0 0 0 0 0 0 0 0 0

Total # of neighbors = 33500
Ave neighs/atom = 67
Neighbor list builds = 0
Dangerous builds = 0
OMP_NUM_THREADS environment is not set. Defaulting to 1 thread. (src/comm.cpp:98)
  using 1 OpenMP thread(s) per MPI task
Loaded 1 plugins from F:\Lammps\LAMMPS 64-bit 2Aug2023\plugins

The 'box' command has been removed and will be ignored

Reading restart file ...
  restart file = 2 Aug 2023, LAMMPS = 2 Aug 2023
  restoring atom style atomic from restart
  triclinic box = (0.056266609 0.054758791 0.053308668) to (17.733733 17.735241 17.736691) with tilt (0 0 0)
  1 by 1 by 1 MPI processor grid
  pair style eam/alloy stores no restart info
  500 atoms
  read_restart CPU = 0.000 seconds
Changing box ...
  triclinic box = (0.056266609 0.054758791 0.053308668) to (17.733733 17.735241 17.736691) with tilt (1.7680482e-05 0 0)
Neighbor list info ...
  update: every = 1 steps, delay = 0 steps, check = yes
  max neighbors/atom: 2000, page size: 100000
  master list distance cutoff = 6.80375
  ghost atom cutoff = 6.80375
  1 neighbor lists, perpetual/occasional/extra = 1 0 0
  (1) pair eam/alloy, perpetual
      attributes: half, newton on
      pair build: half/nsq/newton
      stencil: none
      bin: none
Setting up cg style minimization ...
  Unit style    : metal
  Current step  : 100
Per MPI rank memory allocation (min/avg/max) = 4.482 | 4.482 | 4.482 Mbytes
   Step          Temp          PotEng         Press           Pxx            Pyy            Pzz            Pxy            Pxz            Pyz             Lx             Ly             Lz           Volume    
       100   0             -2181.0762      311.53975      312.03536      311.28976      311.29413     -23.814726      41.320674      44.048005      17.677467      17.680482      17.683383      5526.873     
       101   0             -2181.2429      1163.0413      1168.3472      1169.2313      1151.5454     -66.716765     -28.159912      68.395688      17.677467      17.680482      17.683383      5526.873     
       102   0             -2181.3089      1728.9136      1742.7528      1735.3609      1708.6271     -92.247414     -78.600405      92.051575      17.677467      17.680482      17.683383      5526.873     
       103   0             -2181.3251      1572.5263      1584.5029      1574.9369      1558.1391     -84.040048     -74.235057      83.191003      17.677467      17.680482      17.683383      5526.873     
       104   0             -2181.3306      1676.7895      1686.0073      1684.2117      1660.1496     -92.747063     -82.720513      86.660239      17.677467      17.680482      17.683383      5526.873     
       105   0             -2181.332       1740.7004      1747.0488      1752.6001      1722.4523     -98.150692     -88.770979      87.700962      17.677467      17.680482      17.683383      5526.873     
       106   0             -2181.3327      1690.5887      1694.0121      1703.783       1673.9711     -95.914185     -90.036542      85.164144      17.677467      17.680482      17.683383      5526.873     
       107   0             -2181.3329      1684.7497      1687.3784      1698.8733      1667.9973     -97.246181     -90.694756      84.578631      17.677467      17.680482      17.683383      5526.873     
       108   0             -2181.3329      1688.8097      1691.181       1702.8103      1672.4377     -96.365416     -90.735155      85.286         17.677467      17.680482      17.683383      5526.873     
       109   0             -2181.3329      1690.4395      1692.99        1704.6527      1673.6757     -96.200769     -90.722066      85.016845      17.677467      17.680482      17.683383      5526.873     
       110   0             -2181.333       1691.4056      1694.2623      1705.3813      1674.5732     -96.135998     -90.099715      84.761075      17.677467      17.680482      17.683383      5526.873     
       111   0             -2181.333       1689.3442      1692.0748      1703.522       1672.4359     -96.067027     -89.780023      84.802172      17.677467      17.680482      17.683383      5526.873     
       112   0             -2181.333       1689.0713      1691.7272      1703.3345      1672.152      -96.133724     -89.81655       84.809679      17.677467      17.680482      17.683383      5526.873     
       113   0             -2181.333       1690.3003      1692.6056      1704.9064      1673.3888     -96.356147     -89.952731      84.511916      17.677467      17.680482      17.683383      5526.873     
       114   0             -2181.333       1690.291       1692.5161      1704.8818      1673.4753     -96.273199     -90.075819      84.452751      17.677467      17.680482      17.683383      5526.873     
       115   0             -2181.333       1690.0688      1692.3184      1704.6364      1673.2516     -96.365097     -90.060894      84.415888      17.677467      17.680482      17.683383      5526.873     
       116   0             -2181.333       1689.8017      1692.0358      1704.3292      1673.0401     -96.328151     -90.032767      84.433688      17.677467      17.680482      17.683383      5526.873     
       117   0             -2181.333       1689.7361      1691.9703      1704.2469      1672.9912     -96.30792      -90.005066      84.461111      17.677467      17.680482      17.683383      5526.873     
       118   0             -2181.333       1689.9534      1692.231       1704.4281      1673.201      -96.335085     -90.023961      84.489631      17.677467      17.680482      17.683383      5526.873     
       119   0             -2181.333       1689.982       1692.2831      1704.4405      1673.2225     -96.360618     -90.022033      84.502563      17.677467      17.680482      17.683383      5526.873     
       120   0             -2181.333       1689.9275      1692.2253      1704.3861      1673.1712     -96.356987     -90.020073      84.494398      17.677467      17.680482      17.683383      5526.873     
       121   0             -2181.333       1689.9034      1692.1838      1704.3616      1673.1649     -96.340002     -89.99952       84.501555      17.677467      17.680482      17.683383      5526.873     
       122   0             -2181.333       1689.9169      1692.1837      1704.3765      1673.1905     -96.337826     -90.008866      84.505141      17.677467      17.680482      17.683383      5526.873     
       123   0             -2181.333       1689.9196      1692.1813      1704.3832      1673.1942     -96.340403     -90.015377      84.512422      17.677467      17.680482      17.683383      5526.873     
       124   0             -2181.333       1689.9186      1692.1773      1704.3848      1673.1938     -96.338851     -90.014824      84.50698       17.677467      17.680482      17.683383      5526.873     
       125   0             -2181.333       1689.9106      1692.1682      1704.377       1673.1865     -96.338404     -90.013427      84.50525       17.677467      17.680482      17.683383      5526.873     
       126   0             -2181.333       1689.9096      1692.1669      1704.3768      1673.1851     -96.337663     -90.016023      84.504868      17.677467      17.680482      17.683383      5526.873     
       127   0             -2181.333       1689.9163      1692.1739      1704.3842      1673.1909     -96.336599     -90.016431      84.504976      17.677467      17.680482      17.683383      5526.873     
       128   0             -2181.333       1689.9177      1692.1752      1704.3852      1673.1926     -96.335607     -90.016747      84.505061      17.677467      17.680482      17.683383      5526.873     
       129   0             -2181.333       1689.9171      1692.1747      1704.3846      1673.192      -96.335508     -90.016589      84.50501       17.677467      17.680482      17.683383      5526.873     
       130   0             -2181.333       1689.9164      1692.1739      1704.3835      1673.1918     -96.335301     -90.016389      84.505014      17.677467      17.680482      17.683383      5526.873     
       131   0             -2181.333       1689.9164      1692.1737      1704.3834      1673.1921     -96.335369     -90.016515      84.504943      17.677467      17.680482      17.683383      5526.873     
       132   0             -2181.333       1689.9168      1692.1741      1704.3838      1673.1927     -96.335305     -90.016515      84.505013      17.677467      17.680482      17.683383      5526.873     
       133   0             -2181.333       1689.9167      1692.1738      1704.3836      1673.1927     -96.335388     -90.01646       84.504996      17.677467      17.680482      17.683383      5526.873     
       134   0             -2181.333       1689.9163      1692.1734      1704.3831      1673.1924     -96.335406     -90.016472      84.504993      17.677467      17.680482      17.683383      5526.873     
       135   0             -2181.333       1689.9162      1692.1733      1704.383       1673.1923     -96.335508     -90.016501      84.505012      17.677467      17.680482      17.683383      5526.873     
       136   0             -2181.333       1689.9163      1692.1734      1704.3831      1673.1925     -96.335519     -90.016549      84.505003      17.677467      17.680482      17.683383      5526.873     
       137   0             -2181.333       1689.9164      1692.1735      1704.3831      1673.1926     -96.335511     -90.016521      84.504995      17.677467      17.680482      17.683383      5526.873     
       138   0             -2181.333       1689.9164      1692.1735      1704.3831      1673.1926     -96.335504     -90.016509      84.505003      17.677467      17.680482      17.683383      5526.873     
       139   0             -2181.333       1689.9164      1692.1735      1704.3831      1673.1926     -96.335509     -90.0165        84.505008      17.677467      17.680482      17.683383      5526.873     
       140   0             -2181.333       1689.9164      1692.1735      1704.3831      1673.1926     -96.335507     -90.016505      84.505008      17.677467      17.680482      17.683383      5526.873     
       141   0             -2181.333       1689.9164      1692.1735      1704.3831      1673.1926     -96.335506     -90.016504      84.505007      17.677467      17.680482      17.683383      5526.873     
       142   0             -2181.333       1689.9164      1692.1735      1704.3831      1673.1926     -96.335506     -90.016502      84.505009      17.677467      17.680482      17.683383      5526.873     
       143   0             -2181.333       1689.9164      1692.1735      1704.3831      1673.1926     -96.335509     -90.016504      84.505009      17.677467      17.680482      17.683383      5526.873     
       144   0             -2181.333       1689.9164      1692.1735      1704.3831      1673.1926     -96.335507     -90.016504      84.505009      17.677467      17.680482      17.683383      5526.873     
       145   0             -2181.333       1689.9164      1692.1735      1704.3831      1673.1926     -96.335508     -90.016505      84.505008      17.677467      17.680482      17.683383      5526.873     
       146   0             -2181.333       1689.9164      1692.1735      1704.3831      1673.1926     -96.335508     -90.016505      84.505007      17.677467      17.680482      17.683383      5526.873     
       147   0             -2181.333       1689.9164      1692.1735      1704.3831      1673.1926     -96.335509     -90.016505      84.505007      17.677467      17.680482      17.683383      5526.873     
       148   0             -2181.333       1689.9164      1692.1735      1704.3831      1673.1926     -96.335508     -90.016505      84.505007      17.677467      17.680482      17.683383      5526.873     
       149   0             -2181.333       1689.9164      1692.1735      1704.3831      1673.1926     -96.335508     -90.016505      84.505007      17.677467      17.680482      17.683383      5526.873     
       150   0             -2181.333       1689.9164      1692.1735      1704.3831      1673.1926     -96.335508     -90.016504      84.505007      17.677467      17.680482      17.683383      5526.873     
       151   0             -2181.333       1689.9164      1692.1735      1704.3831      1673.1926     -96.335508     -90.016504      84.505007      17.677467      17.680482      17.683383      5526.873     
       152   0             -2181.333       1689.9164      1692.1735      1704.3831      1673.1926     -96.335508     -90.016504      84.505007      17.677467      17.680482      17.683383      5526.873     
       153   0             -2181.333       1689.9164      1692.1735      1704.3831      1673.1926     -96.335508     -90.016504      84.505007      17.677467      17.680482      17.683383      5526.873     
       154   0             -2181.333       1689.9164      1692.1735      1704.3831      1673.1926     -96.335508     -90.016504      84.505007      17.677467      17.680482      17.683383      5526.873     
       155   0             -2181.333       1689.9164      1692.1735      1704.3831      1673.1926     -96.335508     -90.016505      84.505007      17.677467      17.680482      17.683383      5526.873     
       156   0             -2181.333       1689.9164      1692.1735      1704.3831      1673.1926     -96.335508     -90.016505      84.505007      17.677467      17.680482      17.683383      5526.873     
       157   0             -2181.333       1689.9164      1692.1735      1704.3831      1673.1926     -96.335508     -90.016505      84.505007      17.677467      17.680482      17.683383      5526.873     
       158   0             -2181.333       1689.9164      1692.1735      1704.3831      1673.1926     -96.335508     -90.016504      84.505007      17.677467      17.680482      17.683383      5526.873     
       159   0             -2181.333       1689.9164      1692.1735      1704.3831      1673.1926     -96.335508     -90.016504      84.505007      17.677467      17.680482      17.683383      5526.873     
       160   0             -2181.333       1689.9164      1692.1735      1704.3831      1673.1926     -96.335508     -90.016505      84.505007      17.677467      17.680482      17.683383      5526.873     
Loop time of 0.143521 on 1 procs for 60 steps with 500 atoms

108.9% CPU use with 1 MPI tasks x 1 OpenMP threads

Minimization stats:
  Stopping criterion = force tolerance
  Energy initial, next-to-last, final = 
     -2181.07615429654  -2181.33297399241  -2181.33297399241
  Force two-norm initial, final = 2.0942201 8.8990614e-11
  Force max component initial, final = 0.18642009 1.2379224e-11
  Final line search alpha, max atom move = 1 1.2379224e-11
  Iterations, force evaluations = 60 118

MPI task timing breakdown:
Section |  min time  |  avg time  |  max time  |%varavg| %total
---------------------------------------------------------------
Pair    | 0.14087    | 0.14087    | 0.14087    |   0.0 | 98.15
Neigh   | 0          | 0          | 0          |   0.0 |  0.00
Comm    | 0.000687   | 0.000687   | 0.000687   |   0.0 |  0.48
Output  | 0.000957   | 0.000957   | 0.000957   |   0.0 |  0.67
Modify  | 0          | 0          | 0          |   0.0 |  0.00
Other   |            | 0.001011   |            |       |  0.70

Nlocal:            500 ave         500 max         500 min
Histogram: 1 0 0 0 0 0 0 0 0 0
Nghost:           1956 ave        1956 max        1956 min
Histogram: 1 0 0 0 0 0 0 0 0 0
Neighs:          33500 ave       33500 max       33500 min
Histogram: 1 0 0 0 0 0 0 0 0 0

Total # of neighbors = 33500
Ave neighs/atom = 67
Neighbor list builds = 0
Dangerous builds = 0
=========================================
Components of the Elastic Constant Tensor
=========================================
Elastic Constant C11all = 244.345025221497 GPa
Elastic Constant C22all = 244.09566574599 GPa
Elastic Constant C33all = 245.163163528006 GPa
Elastic Constant C12all = 153.472566267999 GPa
Elastic Constant C13all = 153.179386993252 GPa
Elastic Constant C23all = 153.629054382749 GPa
Elastic Constant C44all = 118.49637142632 GPa
Elastic Constant C55all = 118.5078938863 GPa
Elastic Constant C66all = 118.805793464455 GPa
Elastic Constant C14all = 0.0262115014290885 GPa
Elastic Constant C15all = 0.522982587720889 GPa
Elastic Constant C16all = -0.351532546218323 GPa
Elastic Constant C24all = 0.20929019596565 GPa
Elastic Constant C25all = 0.250523217152932 GPa
Elastic Constant C26all = -0.469935692737181 GPa
Elastic Constant C34all = 0.15011075956329 GPa
Elastic Constant C35all = 0.482088833646685 GPa
Elastic Constant C36all = -0.214928242008682 GPa
Elastic Constant C45all = 0.136342313872319 GPa
Elastic Constant C46all = 0.170765202639928 GPa
Elastic Constant C56all = -0.147200167772326 GPa
=========================================
Average properties for a cubic crystal
=========================================
Bulk Modulus = 183.796207753721 GPa
Shear Modulus 1 = 118.603352925692 GPa
Shear Modulus 2 = 45.553807808582 GPa
Poisson Ratio = 0.385532158284641
Total wall time: 0:00:02
