LAMMPS (2 Aug 2023 - Update 3)
OMP_NUM_THREADS environment is not set. Defaulting to 1 thread. (src/comm.cpp:98)
  using 1 OpenMP thread(s) per MPI task
Loaded 1 plugins from F:\Lammps\LAMMPS 64-bit 2Aug2023\plugins
Lattice spacing in x,y,z = 3.17 5.4906011 5.1765883
Created triclinic box = (0 0 0) to (6.34 16.471803 20.706353) with tilt (0 0 0)
  1 by 1 by 1 MPI processor grid
Created 96 atoms
  using lattice units in triclinic box = (0 0 0) to (6.34 16.471803 20.706353) with tilt (0 0 0)
  create_atoms CPU = 0.000 seconds
Neighbor list info ...
  update: every = 1 steps, delay = 0 steps, check = yes
  max neighbors/atom: 2000, page size: 100000
  master list distance cutoff = 8.5
  ghost atom cutoff = 8.5
  1 neighbor lists, perpetual/occasional/extra = 1 0 0
  (1) pair eam/alloy, perpetual
      attributes: half, newton on
      pair build: half/nsq/newton
      stencil: none
      bin: none
Setting up cg style minimization ...
  Unit style    : metal
  Current step  : 0
WARNING: Energy due to 3 extra global DOFs will be included in minimizer energies
 (src/min.cpp:228)
Per MPI rank memory allocation (min/avg/max) = 4.472 | 4.472 | 4.472 Mbytes
   Step          Temp          PotEng         Press           Pxx            Pyy            Pzz            Pxy            Pxz            Pyz             Lx             Ly             Lz           Volume    
         0   0             -146.72439      3772.2495      4425.4155      4425.4155      2465.9176      4.1001267e-12  1.1177022e-11 -7.5627415e-12  6.34           16.471803      20.706353      2162.39      
         1   0             -146.72575      3681.9194      4325.0865      4325.0865      2395.5851     -6.0779438e-12  6.9594384e-12 -9.5088338e-13  6.340634       16.47345       20.707507      2162.943     
         2   0             -146.72708      3591.118       4223.9692      4223.9692      2325.4156      8.1241232e-12  1.1633785e-11 -1.4285302e-11  6.341268       16.475098      20.708654      2163.4954    
         3   0             -146.72838      3500.0778      4122.6305      4122.6305      2254.9723      9.5039822e-14 -1.3151456e-12 -8.1682874e-13  6.341902       16.476745      20.709794      2164.0472    
         4   0             -146.72964      3409.5005      4021.7214      4021.7214      2185.0587     -2.6707095e-13  3.800625e-13   1.1386467e-11  6.342536       16.478392      20.710927      2164.5982    
         5   0             -146.73087      3320.0138      3921.937       3921.937       2116.1675      6.9626182e-12  6.4080733e-12 -1.6338533e-11  6.34317        16.480039      20.712052      2165.1486    
         6   0             -146.73207      3228.9018      3820.073       3820.073       2046.5595     -1.6991458e-12  6.242179e-12  -2.4486179e-12  6.343804       16.481686      20.71317       2165.6983    
         7   0             -146.73323      3138.4425      3719.2597      3719.2597      1976.808      -6.2534274e-12 -5.5323716e-12  1.3045722e-11  6.344438       16.483333      20.714279      2166.2473    
         8   0             -146.73437      3048.225       3618.3232      3618.3232      1908.0288     -3.6787634e-12  1.4468777e-12 -1.0825929e-12  6.345072       16.484981      20.71538       2166.7954    
         9   0             -146.73546      2958.4291      3517.496       3517.496       1840.2953      1.3590547e-11 -8.4738947e-12  1.3582853e-11  6.345706       16.486628      20.716472      2167.3427    
        10   0             -146.73653      2868.5093      3416.5005      3416.5005      1772.527      -1.73589e-11    5.8461287e-13 -8.9435513e-12  6.34634        16.488275      20.717556      2167.8892    
        11   0             -146.73756      2778.6041      3315.3793      3315.3793      1705.0537      4.0246108e-12  8.6131797e-13 -2.9428364e-11  6.346974       16.489922      20.718631      2168.4348    
        12   0             -146.73856      2688.9234      3214.6771      3214.6771      1637.4158      3.3008896e-12  2.7268219e-12 -2.2224623e-11  6.347608       16.491569      20.719696      2168.9796    
        13   0             -146.73953      2599.2424      3113.8114      3113.8114      1570.1044      1.1627083e-11  4.2019426e-12  1.5762409e-11  6.348242       16.493217      20.720752      2169.5234    
        14   0             -146.74046      2509.9394      3013.2832      3013.2832      1503.252      -7.2234844e-13 -8.1968618e-13 -2.4805753e-11  6.348876       16.494864      20.721796      2170.0662    
        15   0             -146.74136      2420.0874      2911.7719      2911.7719      1436.7184      1.9411471e-12  9.1679506e-12 -1.2025893e-11  6.34951        16.496511      20.72283       2170.6079    
        16   0             -146.74223      2331.7803      2812.0096      2812.0096      1371.3218      6.2674734e-12  8.3259083e-12  1.0189765e-11  6.350144       16.498158      20.723852      2171.1485    
        17   0             -146.74306      2242.8217      2711.3282      2711.3282      1305.8086     -2.1910231e-12  2.7438981e-12  2.2278814e-11  6.350778       16.499805      20.724863      2171.6879    
        18   0             -146.74387      2153.3007      2609.5744      2609.5744      1240.7532     -4.6624474e-12  5.4250211e-13  2.188433e-11   6.351412       16.501452      20.725861      2172.2261    
        19   0             -146.74464      2064.8459      2509.0414      2509.0414      1176.455       7.009851e-12  -5.1371463e-12 -1.456207e-11   6.352046       16.5031        20.726846      2172.7631    
        20   0             -146.74538      1976.6234      2408.4834      2408.4834      1112.9034      6.343119e-12  -2.2814767e-12 -2.3264923e-11  6.35268        16.504747      20.727818      2173.2988    
        21   0             -146.74608      1888.8568      2308.4282      2308.4282      1049.7139     -1.0294807e-11 -6.4438433e-13 -7.0779993e-12  6.353314       16.506394      20.728776      2173.833     
        22   0             -146.74676      1800.8585      2207.9779      2207.9779      986.61968     -5.4043441e-12  2.1474215e-13  1.3631014e-11  6.353948       16.508041      20.729718      2174.3658    
        23   0             -146.7474       1713.1586      2107.6256      2107.6256      924.22464      1.5795029e-12  8.2808888e-13 -3.6599484e-12  6.354582       16.509688      20.730645      2174.8969    
        24   0             -146.74801      1625.0375      2006.4409      2006.4409      862.2308      -9.9039858e-12 -6.8479572e-12  1.5147272e-11  6.355216       16.511336      20.731554      2175.4263    
        25   0             -146.74859      1537.8585      1906.2713      1906.2713      801.03281     -2.8917941e-12  3.9545028e-12 -2.3338719e-11  6.35585        16.512983      20.732444      2175.9538    
        26   0             -146.74914      1451.0089      1806.3575      1806.3575      740.31157     -2.6459145e-12 -7.0489613e-13  1.8705287e-11  6.356484       16.51463       20.733316      2176.4794    
        27   0             -146.74965      1363.9125      1705.8477      1705.8477      680.0421       2.9312544e-12 -1.021343e-14   1.375749e-11   6.357118       16.516277      20.734165      2177.0028    
        28   0             -146.75014      1277.3107      1605.5771      1605.5771      620.77791     -3.5432121e-12  1.9400873e-12 -1.0343729e-11  6.357752       16.517924      20.734992      2177.5239    
        29   0             -146.75059      1191.6897      1506.1782      1506.1782      562.71249     -7.4063066e-12 -7.339951e-12  -3.6546627e-12  6.358386       16.519571      20.735794      2178.0424    
        30   0             -146.75101      1105.9171      1406.1446      1406.1446      505.46209     -5.2255427e-12  2.6535959e-12 -8.1138798e-12  6.35902        16.521219      20.736568      2178.5582    
        31   0             -146.7514       1021.3416      1307.3531      1307.3531      449.31863     -5.6732775e-12 -2.3264519e-12 -1.1020035e-12  6.359654       16.522866      20.737314      2179.0709    
        32   0             -146.75176      936.15646      1207.341       1207.341       393.78739     -1.2292629e-12  3.2338285e-12 -1.3924845e-11  6.360288       16.524513      20.738027      2179.5803    
        33   0             -146.75209      851.68804      1107.8117      1107.8117      339.44069      7.761428e-12  -2.0397971e-12 -4.946508e-12   6.360922       16.52616       20.738703      2180.086     
        34   0             -146.75239      768.23487      1009.0818      1009.0818      286.54098      4.2621957e-12  1.1410041e-11  2.7928598e-11  6.361556       16.527807      20.739339      2180.5874    
        35   0             -146.75266      685.66815      910.64299      910.64299      235.71846      3.6597604e-12  4.4855002e-12 -1.7401702e-11  6.36219        16.529454      20.739928      2181.084     
        36   0             -146.7529       603.98749      812.5444       812.5444       186.87366     -5.3711963e-12  3.037223e-12  -2.4257016e-12  6.362824       16.531102      20.740465      2181.5752    
        37   0             -146.75312      523.66613      715.50454      715.50454      139.9893      -2.3283597e-12 -3.1893943e-12  2.2356329e-11  6.363458       16.532749      20.740942      2182.0602    
        38   0             -146.7533       443.54212      617.95239      617.95239      94.721573     -4.2532932e-12 -1.2632535e-12  1.6554734e-11  6.364092       16.534396      20.741348      2182.5377    
        39   0             -146.75346      364.15561      520.27026      520.27026      51.926321     -1.223769e-11   3.3306071e-12  1.5603945e-11  6.364726       16.536043      20.741666      2183.0061    
        40   0             -146.75359      287.36503      424.47945      424.47945      13.1362        1.1781977e-11  2.2912228e-12  3.1995653e-11  6.36536        16.53769       20.741873      2183.4628    
        41   0             -146.75369      213.16605      329.97907      329.97907     -20.459999     -5.9152497e-12  5.0905763e-14 -3.6855773e-12  6.365994       16.539338      20.741937      2183.9045    
        42   0             -146.75377      141.60192      236.24291      236.24291     -47.680063     -5.0539669e-12 -3.2878778e-12  2.9305883e-11  6.366628       16.540985      20.741809      2184.326     
        43   0             -146.75382      75.175928      145.41715      145.41715     -65.306512     -6.813747e-12   2.6257606e-12 -1.7413474e-11  6.367262       16.542632      20.74139       2184.7169    
        44   0             -146.75385      16.609202      57.914826      57.914826     -66.002046      1.2439913e-11  9.1480421e-12 -1.0949158e-11  6.367896       16.544279      20.740457      2185.0538    
        45   0             -146.75386     -13.965589     -8.721328      -8.721328      -24.454112      3.9326532e-12  8.9947359e-12 -7.0513032e-12  6.3684508      16.545721      20.738387      2185.2164    
        46   0             -146.75386      1.7061536      3.8327204      3.8327204     -2.5469799      4.1516023e-12 -6.176526e-12  -9.2088237e-12  6.3683959      16.545578      20.737817      2185.1186    
        47   0             -146.75386     -0.068869903   -0.058756566   -0.058756566   -0.089096575    9.1579065e-12  1.8315813e-13 -4.6501814e-12  6.3684283      16.545662      20.737695      2185.1281    
        48   0             -146.75386     -0.0029012471  -0.0059305395  -0.0059305394   0.0031573377  -4.375445e-13   3.9277251e-12 -1.3716511e-11  6.3684281      16.545661      20.737693      2185.1277    
        49   0             -146.75386      0.0013997657   0.00072980202  0.00072980203  0.002739693   -1.5822831e-12 -6.1663249e-12  7.9063275e-12  6.368428       16.545661      20.737693      2185.1277    
        50   0             -146.75386     -2.9842816e-06 -4.3020426e-06 -4.3020574e-06 -3.4874495e-07 -7.1635194e-12  1.0551945e-11 -1.9893012e-11  6.368428       16.545661      20.737693      2185.1277    
        51   0             -146.75386     -3.12852e-07   -1.638212e-07  -1.6378623e-07 -6.1094859e-07  9.1782592e-12  1.7908798e-12  2.6486706e-11  6.368428       16.545661      20.737693      2185.1277    
        52   0             -146.75386      6.0336954e-08  1.2320656e-07  1.233651e-07  -6.5560794e-08 -8.455802e-12  -3.3578997e-13 -1.4886689e-11  6.368428       16.545661      20.737693      2185.1277    
        53   0             -146.75386     -2.2261349e-11 -3.67283e-11   -8.0485295e-11  5.0429548e-11  6.4003604e-12  4.0498306e-12 -2.3729158e-11  6.368428       16.545661      20.737693      2185.1277    
Loop time of 0.014396 on 1 procs for 53 steps with 96 atoms

0.0% CPU use with 1 MPI tasks x 1 OpenMP threads

Minimization stats:
  Stopping criterion = force tolerance
  Energy initial, next-to-last, final = 
     -146.724386219683  -146.753862724566  -146.753862724546
  Force two-norm initial, final = 9.0788294 2.4545072e-13
  Force max component initial, final = 5.9727965 1.0927983e-13
  Final line search alpha, max atom move = 1 1.0927983e-13
  Iterations, force evaluations = 53 61

MPI task timing breakdown:
Section |  min time  |  avg time  |  max time  |%varavg| %total
---------------------------------------------------------------
Pair    | 0.011115   | 0.011115   | 0.011115   |   0.0 | 77.21
Neigh   | 0          | 0          | 0          |   0.0 |  0.00
Comm    | 0.000265   | 0.000265   | 0.000265   |   0.0 |  1.84
Output  | 0.000557   | 0.000557   | 0.000557   |   0.0 |  3.87
Modify  | 0          | 0          | 0          |   0.0 |  0.00
Other   |            | 0.002459   |            |       | 17.08

Nlocal:             96 ave          96 max          96 min
Histogram: 1 0 0 0 0 0 0 0 0 0
Nghost:           1310 ave        1310 max        1310 min
Histogram: 1 0 0 0 0 0 0 0 0 0
Neighs:           6144 ave        6144 max        6144 min
Histogram: 1 0 0 0 0 0 0 0 0 0

Total # of neighbors = 6144
Ave neighs/atom = 64
Neighbor list builds = 0
Dangerous builds = 0
Displacing atoms ...
System init for write_restart ...
OMP_NUM_THREADS environment is not set. Defaulting to 1 thread. (src/comm.cpp:98)
  using 1 OpenMP thread(s) per MPI task
Loaded 1 plugins from F:\Lammps\LAMMPS 64-bit 2Aug2023\plugins

The 'box' command has been removed and will be ignored

Reading restart file ...
  restart file = 2 Aug 2023, LAMMPS = 2 Aug 2023
  restoring atom style atomic from restart
  triclinic box = (-0.014214012 -0.036929088 -0.015669905) to (6.354214 16.508732 20.722023) with tilt (0 0 0)
  1 by 1 by 1 MPI processor grid
  pair style eam/alloy stores no restart info
  96 atoms
  read_restart CPU = 0.000 seconds
Changing box ...
  triclinic box = (-0.014214012 -0.036929088 -0.015669905) to (6.2905297 16.508732 20.722023) with tilt (0 0 0)
  triclinic box = (-0.014214012 -0.036929088 -0.015669905) to (6.2905297 16.508732 20.722023) with tilt (0 0 0)
  triclinic box = (-0.014214012 -0.036929088 -0.015669905) to (6.2905297 16.508732 20.722023) with tilt (0 0 0)
Neighbor list info ...
  update: every = 1 steps, delay = 0 steps, check = yes
  max neighbors/atom: 2000, page size: 100000
  master list distance cutoff = 8.5
  ghost atom cutoff = 8.5
  1 neighbor lists, perpetual/occasional/extra = 1 0 0
  (1) pair eam/alloy, perpetual
      attributes: half, newton on
      pair build: half/nsq/newton
      stencil: none
      bin: none
Setting up cg style minimization ...
  Unit style    : metal
  Current step  : 53
Per MPI rank memory allocation (min/avg/max) = 4.465 | 4.465 | 4.465 Mbytes
   Step          Temp          PotEng         Press           Pxx            Pyy            Pzz            Pxy            Pxz            Pyz             Lx             Ly             Lz           Volume    
        53   0             -146.70708      3582.5947      6800.387       2442.5918      1504.8053     -0.010698565    1.0021134e-06 -0.0091576968   6.3047437      16.545661      20.737693      2163.2764    
        54   0             -146.70778      3559.5065      6684.1775      2518.035       1476.3069     -0.0010443473   1.1550441e-05  0.040072072    6.3047437      16.545661      20.737693      2163.2764    
        55   0             -146.70778      3559.4793      6684.0667      2518.0908      1476.2805     -0.00092653065 -5.1724292e-06 -0.0042985258   6.3047437      16.545661      20.737693      2163.2764    
        56   0             -146.70778      3559.4406      6683.9093      2518.1691      1476.2435     -0.00064768076  3.5430379e-07  0.002334629    6.3047437      16.545661      20.737693      2163.2764    
        57   0             -146.70778      3559.3906      6683.7062      2518.2699      1476.1956     -0.00028693836  2.2709081e-07 -0.00094268192  6.3047437      16.545661      20.737693      2163.2764    
        58   0             -146.70778      3559.368       6683.6148      2518.3152      1476.1741     -0.00010355691 -1.6175451e-08  0.00016100906  6.3047437      16.545661      20.737693      2163.2764    
        59   0             -146.70778      3559.3647      6683.6011      2518.3219      1476.1709     -5.9231091e-05  4.8812489e-08 -8.364973e-06   6.3047437      16.545661      20.737693      2163.2764    
        60   0             -146.70778      3559.364       6683.5985      2518.3232      1476.1703     -3.640745e-05   3.683581e-08  -1.3321615e-05  6.3047437      16.545661      20.737693      2163.2764    
        61   0             -146.70778      3559.3639      6683.5981      2518.3235      1476.1702     -2.0285306e-05  3.2639703e-08  1.623416e-05   6.3047437      16.545661      20.737693      2163.2764    
        62   0             -146.70778      3559.3639      6683.598       2518.3235      1476.1702     -2.2577919e-07  2.0347244e-08 -2.0820673e-05  6.3047437      16.545661      20.737693      2163.2764    
        63   0             -146.70778      3559.3639      6683.5983      2518.3234      1476.1702      2.3379843e-05  1.054372e-08   2.0881428e-05  6.3047437      16.545661      20.737693      2163.2764    
        64   0             -146.70778      3559.364       6683.5985      2518.3232      1476.1703      2.5512198e-05  6.5080981e-09 -2.0672362e-05  6.3047437      16.545661      20.737693      2163.2764    
        65   0             -146.70778      3559.364       6683.5986      2518.3232      1476.1703      1.6471407e-05  4.7368368e-09  1.6966503e-05  6.3047437      16.545661      20.737693      2163.2764    
        66   0             -146.70778      3559.364       6683.5986      2518.3232      1476.1703     -3.4883899e-06  2.3529143e-09 -1.8180971e-05  6.3047437      16.545661      20.737693      2163.2764    
        67   0             -146.70778      3559.364       6683.5985      2518.3232      1476.1703     -1.9504191e-05  1.0382021e-09  1.5630165e-05  6.3047437      16.545661      20.737693      2163.2764    
        68   0             -146.70778      3559.364       6683.5984      2518.3233      1476.1703     -1.8470347e-05  5.3133855e-10 -1.323967e-05   6.3047437      16.545661      20.737693      2163.2764    
        69   0             -146.70778      3559.364       6683.5984      2518.3233      1476.1703     -9.2097677e-06  5.183944e-10   1.1009595e-05  6.3047437      16.545661      20.737693      2163.2764    
        70   0             -146.70778      3559.364       6683.5984      2518.3233      1476.1703      5.4237811e-06  3.8477604e-10 -9.1768477e-06  6.3047437      16.545661      20.737693      2163.2764    
        71   0             -146.70778      3559.364       6683.5984      2518.3233      1476.1703      1.2105355e-05  4.1123865e-10  4.4687315e-06  6.3047437      16.545661      20.737693      2163.2764    
        72   0             -146.70778      3559.364       6683.5985      2518.3233      1476.1703      1.0202238e-05  3.4907074e-10 -1.8115874e-06  6.3047437      16.545661      20.737693      2163.2764    
        73   0             -146.70778      3559.364       6683.5985      2518.3233      1476.1703      4.579742e-06   2.2917511e-10  1.0631651e-06  6.3047437      16.545661      20.737693      2163.2764    
        74   0             -146.70778      3559.364       6683.5985      2518.3233      1476.1703     -2.9146884e-06  9.3289125e-11 -2.1918451e-07  6.3047437      16.545661      20.737693      2163.2764    
        75   0             -146.70778      3559.364       6683.5985      2518.3233      1476.1703     -6.906672e-06   9.2092995e-12 -4.8600493e-07  6.3047437      16.545661      20.737693      2163.2764    
        76   0             -146.70778      3559.364       6683.5985      2518.3233      1476.1703     -5.1504076e-06  5.1673832e-12  7.3997247e-07  6.3047437      16.545661      20.737693      2163.2764    
        77   0             -146.70778      3559.364       6683.5985      2518.3233      1476.1703     -2.5445242e-06 -8.687679e-12  -5.3805882e-07  6.3047437      16.545661      20.737693      2163.2764    
        78   0             -146.70778      3559.364       6683.5985      2518.3233      1476.1703      4.5775745e-07  1.6858877e-11  6.4234099e-07  6.3047437      16.545661      20.737693      2163.2764    
        79   0             -146.70778      3559.364       6683.5985      2518.3233      1476.1703      1.602999e-06  -8.9099459e-12 -6.5384828e-07  6.3047437      16.545661      20.737693      2163.2764    
        80   0             -146.70778      3559.364       6683.5985      2518.3233      1476.1703      1.5276775e-06  6.4868517e-12  7.4631386e-07  6.3047437      16.545661      20.737693      2163.2764    
        81   0             -146.70778      3559.364       6683.5985      2518.3233      1476.1703      6.8662508e-07 -8.1185217e-12 -7.7131271e-07  6.3047437      16.545661      20.737693      2163.2764    
        82   0             -146.70778      3559.364       6683.5985      2518.3233      1476.1703     -7.8409247e-07  1.8770629e-12  4.8270279e-07  6.3047437      16.545661      20.737693      2163.2764    
        83   0             -146.70778      3559.364       6683.5985      2518.3233      1476.1703     -1.2372172e-06  7.6765575e-12 -2.2647897e-07  6.3047437      16.545661      20.737693      2163.2764    
        84   0             -146.70778      3559.364       6683.5985      2518.3233      1476.1703     -8.5398417e-07  6.8838486e-12  1.5497027e-07  6.3047437      16.545661      20.737693      2163.2764    
        85   0             -146.70778      3559.364       6683.5985      2518.3233      1476.1703     -2.2913893e-07  6.9789223e-12 -1.7715184e-07  6.3047437      16.545661      20.737693      2163.2764    
        86   0             -146.70778      3559.364       6683.5985      2518.3233      1476.1703      1.6495871e-07 -5.3652392e-12  1.7006114e-07  6.3047437      16.545661      20.737693      2163.2764    
        87   0             -146.70778      3559.364       6683.5985      2518.3233      1476.1703      3.1601089e-07 -7.3951908e-12 -9.6923179e-08  6.3047437      16.545661      20.737693      2163.2764    
        88   0             -146.70778      3559.364       6683.5985      2518.3233      1476.1703      2.2957208e-07  8.3099538e-12  9.5744066e-08  6.3047437      16.545661      20.737693      2163.2764    
        89   0             -146.70778      3559.364       6683.5985      2518.3233      1476.1703      8.252804e-08   9.1476301e-13 -5.3618982e-08  6.3047437      16.545661      20.737693      2163.2764    
        90   0             -146.70778      3559.364       6683.5985      2518.3233      1476.1703     -2.9842041e-08  3.1245838e-12  2.388439e-08   6.3047437      16.545661      20.737693      2163.2764    
        91   0             -146.70778      3559.364       6683.5985      2518.3233      1476.1703     -7.8617604e-08 -1.7614327e-12 -1.2429052e-08  6.3047437      16.545661      20.737693      2163.2764    
        92   0             -146.70778      3559.364       6683.5985      2518.3233      1476.1703     -7.084326e-08  -3.7913843e-12  4.5437091e-09  6.3047437      16.545661      20.737693      2163.2764    
        93   0             -146.70778      3559.364       6683.5985      2518.3233      1476.1703     -2.1565569e-08  2.5541417e-12 -4.1969294e-10  6.3047437      16.545661      20.737693      2163.2764    
        94   0             -146.70778      3559.364       6683.5985      2518.3233      1476.1703      3.3070893e-09  8.1904693e-12 -5.6787965e-10  6.3047437      16.545661      20.737693      2163.2764    
        95   0             -146.70778      3559.364       6683.5985      2518.3233      1476.1703      1.0308773e-08 -2.7365803e-12  6.5926709e-10  6.3047437      16.545661      20.737693      2163.2764    
        96   0             -146.70778      3559.364       6683.5985      2518.3233      1476.1703      8.7293752e-09  7.7716312e-12 -5.6161387e-10  6.3047437      16.545661      20.737693      2163.2764    
Loop time of 0.017696 on 1 procs for 43 steps with 96 atoms

176.6% CPU use with 1 MPI tasks x 1 OpenMP threads

Minimization stats:
  Stopping criterion = force tolerance
  Energy initial, next-to-last, final = 
     -146.707083607874  -146.707778019164  -146.707778019163
  Force two-norm initial, final = 0.04451395 8.001278e-11
  Force max component initial, final = 0.0046022987 1.4876281e-11
  Final line search alpha, max atom move = 1 1.4876281e-11
  Iterations, force evaluations = 43 86

MPI task timing breakdown:
Section |  min time  |  avg time  |  max time  |%varavg| %total
---------------------------------------------------------------
Pair    | 0.016716   | 0.016716   | 0.016716   |   0.0 | 94.46
Neigh   | 0          | 0          | 0          |   0.0 |  0.00
Comm    | 0.000324   | 0.000324   | 0.000324   |   0.0 |  1.83
Output  | 0.00042    | 0.00042    | 0.00042    |   0.0 |  2.37
Modify  | 0          | 0          | 0          |   0.0 |  0.00
Other   |            | 0.000236   |            |       |  1.33

Nlocal:             96 ave          96 max          96 min
Histogram: 1 0 0 0 0 0 0 0 0 0
Nghost:           1310 ave        1310 max        1310 min
Histogram: 1 0 0 0 0 0 0 0 0 0
Neighs:           6144 ave        6144 max        6144 min
Histogram: 1 0 0 0 0 0 0 0 0 0

Total # of neighbors = 6144
Ave neighs/atom = 64
Neighbor list builds = 0
Dangerous builds = 0
OMP_NUM_THREADS environment is not set. Defaulting to 1 thread. (src/comm.cpp:98)
  using 1 OpenMP thread(s) per MPI task
Loaded 1 plugins from F:\Lammps\LAMMPS 64-bit 2Aug2023\plugins

The 'box' command has been removed and will be ignored

Reading restart file ...
  restart file = 2 Aug 2023, LAMMPS = 2 Aug 2023
  restoring atom style atomic from restart
  triclinic box = (-0.014214012 -0.036929088 -0.015669905) to (6.354214 16.508732 20.722023) with tilt (0 0 0)
  1 by 1 by 1 MPI processor grid
  pair style eam/alloy stores no restart info
  96 atoms
  read_restart CPU = 0.000 seconds
Changing box ...
  triclinic box = (-0.014214012 -0.036929088 -0.015669905) to (6.4178983 16.508732 20.722023) with tilt (0 0 0)
  triclinic box = (-0.014214012 -0.036929088 -0.015669905) to (6.4178983 16.508732 20.722023) with tilt (0 0 0)
  triclinic box = (-0.014214012 -0.036929088 -0.015669905) to (6.4178983 16.508732 20.722023) with tilt (0 0 0)
Neighbor list info ...
  update: every = 1 steps, delay = 0 steps, check = yes
  max neighbors/atom: 2000, page size: 100000
  master list distance cutoff = 8.5
  ghost atom cutoff = 8.5
  1 neighbor lists, perpetual/occasional/extra = 1 0 0
  (1) pair eam/alloy, perpetual
      attributes: half, newton on
      pair build: half/nsq/newton
      stencil: none
      bin: none
Setting up cg style minimization ...
  Unit style    : metal
  Current step  : 53
Per MPI rank memory allocation (min/avg/max) = 4.465 | 4.465 | 4.465 Mbytes
   Step          Temp          PotEng         Press           Pxx            Pyy            Pzz            Pxy            Pxz            Pyz             Lx             Ly             Lz           Volume    
        53   0             -146.70613     -3775.3829     -7007.9672     -2621.8612     -1696.3204     -0.0067399467   1.0941556e-06  0.0085611339   6.4321123      16.545661      20.737693      2206.979     
        54   0             -146.70652     -3789.1362     -6958.5411     -2693.1298     -1715.7376      0.00053528769 -3.1054417e-05 -0.029290133    6.4321123      16.545661      20.737693      2206.979     
        55   0             -146.70652     -3789.1436     -6958.5147     -2693.1682     -1715.7479      0.00038887683 -1.8561554e-06  0.004986785    6.4321123      16.545661      20.737693      2206.979     
        56   0             -146.70652     -3789.1274     -6958.5699     -2693.0841     -1715.728       0.00024255833 -7.9268009e-08 -0.0033153287   6.4321123      16.545661      20.737693      2206.979     
        57   0             -146.70652     -3789.1065     -6958.6413     -2692.9759     -1715.7023      6.2725052e-05 -3.9852381e-07  0.0022487149   6.4321123      16.545661      20.737693      2206.979     
        58   0             -146.70652     -3789.0971     -6958.6735     -2692.9271     -1715.6907     -8.2425232e-06 -1.1924822e-07 -0.0010364023   6.4321123      16.545661      20.737693      2206.979     
        59   0             -146.70652     -3789.0955     -6958.679      -2692.9189     -1715.6887     -1.3319102e-05 -9.2195553e-08  0.00033095821  6.4321123      16.545661      20.737693      2206.979     
        60   0             -146.70652     -3789.0953     -6958.6799     -2692.9175     -1715.6884     -8.6857426e-06 -6.9885462e-08 -0.00013227296  6.4321123      16.545661      20.737693      2206.979     
        61   0             -146.70652     -3789.0952     -6958.68       -2692.9174     -1715.6884     -2.6408639e-06 -4.5645323e-08  8.5173436e-05  6.4321123      16.545661      20.737693      2206.979     
        62   0             -146.70652     -3789.0953     -6958.6797     -2692.9178     -1715.6885      5.0710118e-06 -1.1263123e-08 -0.00010084504  6.4321123      16.545661      20.737693      2206.979     
        63   0             -146.70652     -3789.0954     -6958.6794     -2692.9182     -1715.6886      7.8233889e-06  8.3877184e-09  5.4330781e-05  6.4321123      16.545661      20.737693      2206.979     
        64   0             -146.70652     -3789.0954     -6958.6794     -2692.9183     -1715.6886      4.5907098e-06  9.782525e-09  -2.6441152e-05  6.4321123      16.545661      20.737693      2206.979     
        65   0             -146.70652     -3789.0954     -6958.6795     -2692.9181     -1715.6886     -1.0105671e-06  5.2011214e-09  2.1502873e-05  6.4321123      16.545661      20.737693      2206.979     
        66   0             -146.70652     -3789.0953     -6958.6796     -2692.9179     -1715.6885     -5.8244833e-06 -1.6461063e-10 -1.710313e-05   6.4321123      16.545661      20.737693      2206.979     
        67   0             -146.70652     -3789.0953     -6958.6797     -2692.9178     -1715.6885     -5.1147992e-06 -1.663936e-09   8.755176e-06   6.4321123      16.545661      20.737693      2206.979     
        68   0             -146.70652     -3789.0953     -6958.6796     -2692.9179     -1715.6885     -2.1107692e-06 -1.417112e-09  -7.5972476e-06  6.4321123      16.545661      20.737693      2206.979     
        69   0             -146.70652     -3789.0954     -6958.6796     -2692.918      -1715.6885      9.587686e-07  -8.5453535e-10  8.429281e-06   6.4321123      16.545661      20.737693      2206.979     
        70   0             -146.70652     -3789.0954     -6958.6795     -2692.9181     -1715.6886      2.9647734e-06 -2.3861439e-10 -8.4194284e-06  6.4321123      16.545661      20.737693      2206.979     
        71   0             -146.70652     -3789.0954     -6958.6795     -2692.9181     -1715.6886      2.2929931e-06 -4.6754195e-11  6.0741751e-06  6.4321123      16.545661      20.737693      2206.979     
        72   0             -146.70652     -3789.0954     -6958.6795     -2692.9181     -1715.6885      7.1640607e-07 -8.5143864e-12 -4.0959008e-06  6.4321123      16.545661      20.737693      2206.979     
        73   0             -146.70652     -3789.0954     -6958.6796     -2692.918      -1715.6885     -5.121723e-07   9.927364e-12   2.7050603e-06  6.4321123      16.545661      20.737693      2206.979     
        74   0             -146.70652     -3789.0954     -6958.6796     -2692.918      -1715.6885     -7.3201902e-07  1.4593213e-11 -2.4231943e-06  6.4321123      16.545661      20.737693      2206.979     
        75   0             -146.70652     -3789.0954     -6958.6796     -2692.918      -1715.6885     -4.115327e-07   1.5273255e-11  1.6414256e-06  6.4321123      16.545661      20.737693      2206.979     
        76   0             -146.70652     -3789.0954     -6958.6796     -2692.918      -1715.6885     -8.0489211e-09  5.3332978e-12 -1.4711739e-06  6.4321123      16.545661      20.737693      2206.979     
        77   0             -146.70652     -3789.0954     -6958.6796     -2692.918      -1715.6885      2.9603663e-07  3.6873426e-12  8.6177016e-07  6.4321123      16.545661      20.737693      2206.979     
        78   0             -146.70652     -3789.0954     -6958.6796     -2692.918      -1715.6885      2.6325605e-07 -1.853746e-12  -5.2430871e-07  6.4321123      16.545661      20.737693      2206.979     
        79   0             -146.70652     -3789.0954     -6958.6796     -2692.918      -1715.6885      5.4685268e-08  2.523714e-12   3.4170551e-07  6.4321123      16.545661      20.737693      2206.979     
        80   0             -146.70652     -3789.0954     -6958.6796     -2692.918      -1715.6885     -1.408993e-07   7.1618571e-12 -2.1402866e-07  6.4321123      16.545661      20.737693      2206.979     
        81   0             -146.70652     -3789.0954     -6958.6796     -2692.918      -1715.6885     -1.4856145e-07  8.3116329e-14  1.4547368e-07  6.4321123      16.545661      20.737693      2206.979     
        82   0             -146.70652     -3789.0954     -6958.6796     -2692.918      -1715.6885     -5.4514304e-08 -1.771889e-12  -1.1786486e-07  6.4321123      16.545661      20.737693      2206.979     
        83   0             -146.70652     -3789.0954     -6958.6796     -2692.918      -1715.6885      2.8879285e-08 -2.6471292e-12  1.1752027e-07  6.4321123      16.545661      20.737693      2206.979     
        84   0             -146.70652     -3789.0954     -6958.6796     -2692.918      -1715.6885      7.9198362e-08 -2.6786126e-12 -1.2153158e-07  6.4321123      16.545661      20.737693      2206.979     
        85   0             -146.70652     -3789.0954     -6958.6796     -2692.918      -1715.6885      6.5142888e-08  1.7542583e-12  8.6436393e-08  6.4321123      16.545661      20.737693      2206.979     
        86   0             -146.70652     -3789.0954     -6958.6796     -2692.918      -1715.6885      2.1957309e-08  2.4065955e-12 -7.9369896e-08  6.4321123      16.545661      20.737693      2206.979     
        87   0             -146.70652     -3789.0954     -6958.6796     -2692.918      -1715.6885     -5.7798101e-09 -9.3178443e-12  4.8242425e-08  6.4321123      16.545661      20.737693      2206.979     
        88   0             -146.70652     -3789.0954     -6958.6796     -2692.918      -1715.6885     -1.1729273e-08  1.1963714e-13 -2.9475247e-08  6.4321123      16.545661      20.737693      2206.979     
        89   0             -146.70652     -3789.0954     -6958.6796     -2692.918      -1715.6885     -7.6027187e-09  8.41238e-13    1.9244777e-08  6.4321123      16.545661      20.737693      2206.979     
        90   0             -146.70652     -3789.0954     -6958.6796     -2692.918      -1715.6885     -1.8326773e-09 -2.4947492e-12 -9.9672008e-09  6.4321123      16.545661      20.737693      2206.979     
        91   0             -146.70652     -3789.0954     -6958.6796     -2692.918      -1715.6885      1.6034462e-09  5.6708005e-12  5.238295e-09   6.4321123      16.545661      20.737693      2206.979     
        92   0             -146.70652     -3789.0954     -6958.6796     -2692.918      -1715.6885      1.8306497e-09  1.4628474e-11 -1.4171353e-09  6.4321123      16.545661      20.737693      2206.979     
Loop time of 0.016617 on 1 procs for 39 steps with 96 atoms

94.0% CPU use with 1 MPI tasks x 1 OpenMP threads

Minimization stats:
  Stopping criterion = force tolerance
  Energy initial, next-to-last, final = 
      -146.70613480324    -146.7065205415  -146.706520541499
  Force two-norm initial, final = 0.034423839 6.2737449e-11
  Force max component initial, final = 0.0035710472 1.0342512e-11
  Final line search alpha, max atom move = 1 1.0342512e-11
  Iterations, force evaluations = 39 78

MPI task timing breakdown:
Section |  min time  |  avg time  |  max time  |%varavg| %total
---------------------------------------------------------------
Pair    | 0.015728   | 0.015728   | 0.015728   |   0.0 | 94.65
Neigh   | 0          | 0          | 0          |   0.0 |  0.00
Comm    | 0.000287   | 0.000287   | 0.000287   |   0.0 |  1.73
Output  | 0.000416   | 0.000416   | 0.000416   |   0.0 |  2.50
Modify  | 0          | 0          | 0          |   0.0 |  0.00
Other   |            | 0.000186   |            |       |  1.12

Nlocal:             96 ave          96 max          96 min
Histogram: 1 0 0 0 0 0 0 0 0 0
Nghost:           1310 ave        1310 max        1310 min
Histogram: 1 0 0 0 0 0 0 0 0 0
Neighs:           6144 ave        6144 max        6144 min
Histogram: 1 0 0 0 0 0 0 0 0 0

Total # of neighbors = 6144
Ave neighs/atom = 64
Neighbor list builds = 0
Dangerous builds = 0
OMP_NUM_THREADS environment is not set. Defaulting to 1 thread. (src/comm.cpp:98)
  using 1 OpenMP thread(s) per MPI task
Loaded 1 plugins from F:\Lammps\LAMMPS 64-bit 2Aug2023\plugins

The 'box' command has been removed and will be ignored

Reading restart file ...
  restart file = 2 Aug 2023, LAMMPS = 2 Aug 2023
  restoring atom style atomic from restart
  triclinic box = (-0.014214012 -0.036929088 -0.015669905) to (6.354214 16.508732 20.722023) with tilt (0 0 0)
  1 by 1 by 1 MPI processor grid
  pair style eam/alloy stores no restart info
  96 atoms
  read_restart CPU = 0.000 seconds
Changing box ...
  triclinic box = (-0.014214012 -0.036929088 -0.015669905) to (6.354214 16.343276 20.722023) with tilt (0 0 0)
  triclinic box = (-0.014214012 -0.036929088 -0.015669905) to (6.354214 16.343276 20.722023) with tilt (0 0 0)
Neighbor list info ...
  update: every = 1 steps, delay = 0 steps, check = yes
  max neighbors/atom: 2000, page size: 100000
  master list distance cutoff = 8.5
  ghost atom cutoff = 8.5
  1 neighbor lists, perpetual/occasional/extra = 1 0 0
  (1) pair eam/alloy, perpetual
      attributes: half, newton on
      pair build: half/nsq/newton
      stencil: none
      bin: none
Setting up cg style minimization ...
  Unit style    : metal
  Current step  : 53
Per MPI rank memory allocation (min/avg/max) = 4.465 | 4.465 | 4.465 Mbytes
   Step          Temp          PotEng         Press           Pxx            Pyy            Pzz            Pxy            Pxz            Pyz             Lx             Ly             Lz           Volume    
        53   0             -146.70782      3587.2461      2613.3745      6644.3637      1504.0002     -0.0094002947   2.47918e-06    0.0092860038   6.368428       16.380205      20.737693      2163.2764    
        54   0             -146.70872      3557.5877      2728.2971      6475.2213      1469.2446      0.001030232   -1.978607e-06  -0.038322823    6.368428       16.380205      20.737693      2163.2764    
        55   0             -146.70872      3557.5717      2728.3522      6475.1336      1469.2293      0.00089241784  8.052468e-07   0.0044170673   6.368428       16.380205      20.737693      2163.2764    
        56   0             -146.70872      3557.5979      2728.2602      6475.2812      1469.2523      0.00062842599 -1.0111848e-06 -0.0022020158   6.368428       16.380205      20.737693      2163.2764    
        57   0             -146.70872      3557.6388      2728.1152      6475.5127      1469.2885      0.00024283921  1.0197759e-07  0.0012607352   6.368428       16.380205      20.737693      2163.2764    
        58   0             -146.70872      3557.6683      2728.0105      6475.6797      1469.3147     -8.0185243e-06  6.4874119e-09 -0.00040735825  6.368428       16.380205      20.737693      2163.2764    
        59   0             -146.70872      3557.6751      2727.9862      6475.7184      1469.3207     -4.5206183e-05 -6.1970055e-10  5.000235e-05   6.368428       16.380205      20.737693      2163.2764    
        60   0             -146.70872      3557.6766      2727.9811      6475.7265      1469.322      -3.6832663e-05  1.6019645e-08  2.7495525e-05  6.368428       16.380205      20.737693      2163.2764    
        61   0             -146.70872      3557.6768      2727.9803      6475.7279      1469.3222     -2.441185e-05   1.6296326e-08 -2.5101202e-05  6.368428       16.380205      20.737693      2163.2764    
        62   0             -146.70872      3557.6768      2727.9803      6475.7279      1469.3222     -1.1202145e-05  1.3522921e-08  2.5960256e-05  6.368428       16.380205      20.737693      2163.2764    
        63   0             -146.70872      3557.6767      2727.9805      6475.7275      1469.3222      6.0456225e-06  8.257229e-09  -4.1703503e-05  6.368428       16.380205      20.737693      2163.2764    
        64   0             -146.70872      3557.6766      2727.9809      6475.7269      1469.3221      2.1770189e-05  1.850811e-09   5.0493774e-05  6.368428       16.380205      20.737693      2163.2764    
        65   0             -146.70872      3557.6766      2727.9811      6475.7266      1469.322       2.172946e-05  -2.4553421e-11 -2.9532818e-05  6.368428       16.380205      20.737693      2163.2764    
        66   0             -146.70872      3557.6766      2727.981       6475.7268      1469.322       1.0585943e-05  3.2855024e-10  2.5941779e-05  6.368428       16.380205      20.737693      2163.2764    
        67   0             -146.70872      3557.6767      2727.9808      6475.7271      1469.3221     -3.0110931e-06  7.357444e-10  -1.7639066e-05  6.368428       16.380205      20.737693      2163.2764    
        68   0             -146.70872      3557.6767      2727.9806      6475.7275      1469.3221     -1.5166334e-05  6.398112e-10   6.5519669e-06  6.368428       16.380205      20.737693      2163.2764    
        69   0             -146.70872      3557.6767      2727.9805      6475.7276      1469.3222     -1.4890862e-05  5.1128443e-10  1.9486524e-06  6.368428       16.380205      20.737693      2163.2764    
        70   0             -146.70872      3557.6767      2727.9805      6475.7275      1469.3222     -8.1307875e-06  3.7445284e-10 -5.262508e-06   6.368428       16.380205      20.737693      2163.2764    
        71   0             -146.70872      3557.6767      2727.9806      6475.7273      1469.3221     -5.8737258e-07  2.4322546e-10  5.9397223e-06  6.368428       16.380205      20.737693      2163.2764    
        72   0             -146.70872      3557.6767      2727.9808      6475.7272      1469.3221      4.868533e-06   1.4504004e-10 -7.6231528e-06  6.368428       16.380205      20.737693      2163.2764    
        73   0             -146.70872      3557.6767      2727.9808      6475.7271      1469.3221      6.242136e-06   5.5165862e-11  6.4835927e-06  6.368428       16.380205      20.737693      2163.2764    
        74   0             -146.70872      3557.6767      2727.9808      6475.7271      1469.3221      3.8961177e-06  1.9672544e-11 -5.6254214e-06  6.368428       16.380205      20.737693      2163.2764    
        75   0             -146.70872      3557.6767      2727.9808      6475.7272      1469.3221      1.4310166e-07 -5.4140608e-12  3.2484891e-06  6.368428       16.380205      20.737693      2163.2764    
        76   0             -146.70872      3557.6767      2727.9807      6475.7272      1469.3221     -1.8343094e-06 -1.8161643e-11 -1.8320843e-06  6.368428       16.380205      20.737693      2163.2764    
        77   0             -146.70872      3557.6767      2727.9807      6475.7273      1469.3221     -2.2362646e-06 -9.0461325e-12  1.1054856e-06  6.368428       16.380205      20.737693      2163.2764    
        78   0             -146.70872      3557.6767      2727.9807      6475.7273      1469.3221     -1.3567238e-06 -1.2774563e-11 -6.2410542e-07  6.368428       16.380205      20.737693      2163.2764    
        79   0             -146.70872      3557.6767      2727.9807      6475.7272      1469.3221     -3.8784505e-08  1.1794276e-12  4.4797661e-08  6.368428       16.380205      20.737693      2163.2764    
        80   0             -146.70872      3557.6767      2727.9807      6475.7272      1469.3221      7.7920431e-07 -1.8256717e-12  2.9176197e-07  6.368428       16.380205      20.737693      2163.2764    
        81   0             -146.70872      3557.6767      2727.9807      6475.7272      1469.3221      9.1385204e-07 -3.461196e-12  -3.5502606e-07  6.368428       16.380205      20.737693      2163.2764    
        82   0             -146.70872      3557.6767      2727.9807      6475.7272      1469.3221      4.2716318e-07  7.0033331e-12  4.7496334e-07  6.368428       16.380205      20.737693      2163.2764    
        83   0             -146.70872      3557.6767      2727.9807      6475.7272      1469.3221     -4.4831213e-08  2.1018993e-12 -3.9732865e-07  6.368428       16.380205      20.737693      2163.2764    
        84   0             -146.70872      3557.6767      2727.9807      6475.7272      1469.3221     -2.8082741e-07 -1.0464529e-11  2.6446651e-07  6.368428       16.380205      20.737693      2163.2764    
        85   0             -146.70872      3557.6767      2727.9807      6475.7272      1469.3221     -2.9413465e-07  3.9327101e-12 -1.9334178e-07  6.368428       16.380205      20.737693      2163.2764    
        86   0             -146.70872      3557.6767      2727.9807      6475.7272      1469.3221     -1.2997009e-07 -7.8294463e-12  1.3724714e-07  6.368428       16.380205      20.737693      2163.2764    
        87   0             -146.70872      3557.6767      2727.9807      6475.7272      1469.3221      7.1580534e-08  2.569559e-13  -1.367918e-07   6.368428       16.380205      20.737693      2163.2764    
        88   0             -146.70872      3557.6767      2727.9807      6475.7272      1469.3221      1.7533654e-07  3.362268e-12   7.0581606e-08  6.368428       16.380205      20.737693      2163.2764    
        89   0             -146.70872      3557.6767      2727.9807      6475.7272      1469.3221      1.3381059e-07  2.7661303e-12 -4.4596837e-08  6.368428       16.380205      20.737693      2163.2764    
        90   0             -146.70872      3557.6767      2727.9807      6475.7272      1469.3221      6.1765885e-08 -5.575943e-13   1.2829029e-08  6.368428       16.380205      20.737693      2163.2764    
        91   0             -146.70872      3557.6767      2727.9807      6475.7272      1469.3221     -2.7100882e-09  7.1600762e-12 -5.977794e-10   6.368428       16.380205      20.737693      2163.2764    
        92   0             -146.70872      3557.6767      2727.9807      6475.7272      1469.3221     -3.7406455e-08  1.0072671e-12 -6.3660753e-09  6.368428       16.380205      20.737693      2163.2764    
        93   0             -146.70872      3557.6767      2727.9807      6475.7272      1469.3221     -3.8896638e-08 -1.7588631e-12  7.9277048e-09  6.368428       16.380205      20.737693      2163.2764    
        94   0             -146.70872      3557.6767      2727.9807      6475.7272      1469.3221     -2.3905308e-08 -3.8157951e-13 -5.4582237e-09  6.368428       16.380205      20.737693      2163.2764    
        95   0             -146.70872      3557.6767      2727.9807      6475.7272      1469.3221     -9.318349e-09   4.2346332e-12  3.8155083e-09  6.368428       16.380205      20.737693      2163.2764    
        96   0             -146.70872      3557.6767      2727.9807      6475.7272      1469.3221     -3.7425241e-10 -2.0402299e-12 -2.0797837e-09  6.368428       16.380205      20.737693      2163.2764    
        97   0             -146.70872      3557.6767      2727.9807      6475.7272      1469.3221      2.767627e-09   4.527563e-12   1.4223903e-09  6.368428       16.380205      20.737693      2163.2764    
        98   0             -146.70872      3557.6767      2727.9807      6475.7272      1469.3221      2.7741948e-09  2.4924722e-12 -6.5138557e-10  6.368428       16.380205      20.737693      2163.2764    
Loop time of 0.018248 on 1 procs for 45 steps with 96 atoms

171.3% CPU use with 1 MPI tasks x 1 OpenMP threads

Minimization stats:
  Stopping criterion = force tolerance
  Energy initial, next-to-last, final = 
     -146.707823176702  -146.708722323323  -146.708722323322
  Force two-norm initial, final = 0.047987019 5.5959486e-11
  Force max component initial, final = 0.0049617479 1.0839194e-11
  Final line search alpha, max atom move = 1 1.0839194e-11
  Iterations, force evaluations = 45 90

MPI task timing breakdown:
Section |  min time  |  avg time  |  max time  |%varavg| %total
---------------------------------------------------------------
Pair    | 0.01727    | 0.01727    | 0.01727    |   0.0 | 94.64
Neigh   | 0          | 0          | 0          |   0.0 |  0.00
Comm    | 0.000323   | 0.000323   | 0.000323   |   0.0 |  1.77
Output  | 0.000435   | 0.000435   | 0.000435   |   0.0 |  2.38
Modify  | 0          | 0          | 0          |   0.0 |  0.00
Other   |            | 0.00022    |            |       |  1.21

Nlocal:             96 ave          96 max          96 min
Histogram: 1 0 0 0 0 0 0 0 0 0
Nghost:           1310 ave        1310 max        1310 min
Histogram: 1 0 0 0 0 0 0 0 0 0
Neighs:           6144 ave        6144 max        6144 min
Histogram: 1 0 0 0 0 0 0 0 0 0

Total # of neighbors = 6144
Ave neighs/atom = 64
Neighbor list builds = 0
Dangerous builds = 0
OMP_NUM_THREADS environment is not set. Defaulting to 1 thread. (src/comm.cpp:98)
  using 1 OpenMP thread(s) per MPI task
Loaded 1 plugins from F:\Lammps\LAMMPS 64-bit 2Aug2023\plugins

The 'box' command has been removed and will be ignored

Reading restart file ...
  restart file = 2 Aug 2023, LAMMPS = 2 Aug 2023
  restoring atom style atomic from restart
  triclinic box = (-0.014214012 -0.036929088 -0.015669905) to (6.354214 16.508732 20.722023) with tilt (0 0 0)
  1 by 1 by 1 MPI processor grid
  pair style eam/alloy stores no restart info
  96 atoms
  read_restart CPU = 0.000 seconds
Changing box ...
  triclinic box = (-0.014214012 -0.036929088 -0.015669905) to (6.354214 16.674189 20.722023) with tilt (0 0 0)
  triclinic box = (-0.014214012 -0.036929088 -0.015669905) to (6.354214 16.674189 20.722023) with tilt (0 0 0)
Neighbor list info ...
  update: every = 1 steps, delay = 0 steps, check = yes
  max neighbors/atom: 2000, page size: 100000
  master list distance cutoff = 8.5
  ghost atom cutoff = 8.5
  1 neighbor lists, perpetual/occasional/extra = 1 0 0
  (1) pair eam/alloy, perpetual
      attributes: half, newton on
      pair build: half/nsq/newton
      stencil: none
      bin: none
Setting up cg style minimization ...
  Unit style    : metal
  Current step  : 53
Per MPI rank memory allocation (min/avg/max) = 4.465 | 4.465 | 4.465 Mbytes
   Step          Temp          PotEng         Press           Pxx            Pyy            Pzz            Pxy            Pxz            Pyz             Lx             Ly             Lz           Volume    
        53   0             -146.70525     -3778.7211     -2433.2477     -7207.6343     -1695.2814     -0.007553729   -1.2942907e-05 -0.0077790257   6.368428       16.711118      20.737693      2206.979     
        54   0             -146.70555     -3789.3643     -2483.8483     -7173.1782     -1711.0664     -0.00057771127 -2.9431444e-05  0.025710192    6.368428       16.711118      20.737693      2206.979     
        55   0             -146.70555     -3789.375      -2483.9002     -7173.1465     -1711.0781     -0.00046661042 -5.3846951e-07 -0.0041138211   6.368428       16.711118      20.737693      2206.979     
        56   0             -146.70555     -3789.3881     -2483.9612     -7173.1078     -1711.0951     -0.00030640084 -8.7879396e-08  0.0024335353   6.368428       16.711118      20.737693      2206.979     
        57   0             -146.70555     -3789.4024     -2484.028      -7173.0654     -1711.1139     -0.00012112431  9.0295968e-09 -0.0014198234   6.368428       16.711118      20.737693      2206.979     
        58   0             -146.70555     -3789.4083     -2484.0554     -7173.0479     -1711.1216     -3.6116968e-05  6.5098611e-09  0.00069083111  6.368428       16.711118      20.737693      2206.979     
        59   0             -146.70555     -3789.4092     -2484.0597     -7173.0452     -1711.1228     -1.5966852e-05  8.7196082e-09 -0.00023542421  6.368428       16.711118      20.737693      2206.979     
        60   0             -146.70555     -3789.4094     -2484.0605     -7173.0447     -1711.123      -6.0049825e-06  9.0083468e-09  0.00012750811  6.368428       16.711118      20.737693      2206.979     
        61   0             -146.70555     -3789.4094     -2484.0606     -7173.0446     -1711.123       3.368157e-06   9.6649847e-09 -8.3265897e-05  6.368428       16.711118      20.737693      2206.979     
        62   0             -146.70555     -3789.4093     -2484.0601     -7173.0449     -1711.1229      9.7574431e-06  8.5009228e-09  3.6184909e-05  6.368428       16.711118      20.737693      2206.979     
        63   0             -146.70555     -3789.4093     -2484.0598     -7173.0451     -1711.1228      7.192868e-06   5.9984186e-09 -1.7236233e-05  6.368428       16.711118      20.737693      2206.979     
        64   0             -146.70555     -3789.4092     -2484.0597     -7173.0452     -1711.1228      1.2663482e-06  3.5525103e-09  1.31876e-05    6.368428       16.711118      20.737693      2206.979     
        65   0             -146.70555     -3789.4092     -2484.0598     -7173.0451     -1711.1228     -6.232727e-06   5.3802459e-10 -8.9693827e-06  6.368428       16.711118      20.737693      2206.979     
        66   0             -146.70555     -3789.4093     -2484.0599     -7173.0451     -1711.1228     -7.1309237e-06 -5.4065913e-11  4.3587783e-06  6.368428       16.711118      20.737693      2206.979     
        67   0             -146.70555     -3789.4093     -2484.06       -7173.045      -1711.1228     -3.9770412e-06  2.2588374e-10 -1.7833202e-06  6.368428       16.711118      20.737693      2206.979     
        68   0             -146.70555     -3789.4093     -2484.06       -7173.045      -1711.1228      8.4808894e-07  2.5713674e-10  1.2661041e-06  6.368428       16.711118      20.737693      2206.979     
        69   0             -146.70555     -3789.4093     -2484.0599     -7173.045      -1711.1228      4.2686311e-06  2.7953281e-10 -6.9164555e-07  6.368428       16.711118      20.737693      2206.979     
        70   0             -146.70555     -3789.4093     -2484.0599     -7173.0451     -1711.1228      3.6951983e-06  1.5733543e-10  2.4659725e-07  6.368428       16.711118      20.737693      2206.979     
        71   0             -146.70555     -3789.4093     -2484.0599     -7173.0451     -1711.1228      1.1629623e-06  8.0616543e-11 -1.2041214e-07  6.368428       16.711118      20.737693      2206.979     
        72   0             -146.70555     -3789.4093     -2484.0599     -7173.0451     -1711.1228     -1.5429993e-06  2.4039509e-11 -1.4384815e-08  6.368428       16.711118      20.737693      2206.979     
        73   0             -146.70555     -3789.4093     -2484.0599     -7173.0451     -1711.1228     -1.6798037e-06  1.164762e-11   6.8360172e-08  6.368428       16.711118      20.737693      2206.979     
        74   0             -146.70555     -3789.4093     -2484.0599     -7173.045      -1711.1228     -8.1569327e-07 -7.7701175e-13 -9.9967938e-08  6.368428       16.711118      20.737693      2206.979     
        75   0             -146.70555     -3789.4093     -2484.0599     -7173.0451     -1711.1228      1.8594408e-07 -3.0274493e-12  1.3868571e-07  6.368428       16.711118      20.737693      2206.979     
        76   0             -146.70555     -3789.4093     -2484.0599     -7173.0451     -1711.1228      4.8397495e-07  5.8055497e-12 -1.6561605e-07  6.368428       16.711118      20.737693      2206.979     
        77   0             -146.70555     -3789.4093     -2484.0599     -7173.0451     -1711.1228      3.6980796e-07  5.0046105e-12  1.3233416e-07  6.368428       16.711118      20.737693      2206.979     
        78   0             -146.70555     -3789.4093     -2484.0599     -7173.0451     -1711.1228      8.3736875e-08 -1.0880683e-12 -1.7355135e-07  6.368428       16.711118      20.737693      2206.979     
        79   0             -146.70555     -3789.4093     -2484.0599     -7173.0451     -1711.1228     -1.9790497e-07  2.1408752e-13  2.7006002e-07  6.368428       16.711118      20.737693      2206.979     
        80   0             -146.70555     -3789.4093     -2484.0599     -7173.0451     -1711.1228     -3.0754642e-07 -1.1699253e-12 -2.2063388e-07  6.368428       16.711118      20.737693      2206.979     
        81   0             -146.70555     -3789.4093     -2484.0599     -7173.0451     -1711.1228     -1.545739e-07  -3.4556244e-12  3.1930521e-07  6.368428       16.711118      20.737693      2206.979     
        82   0             -146.70555     -3789.4093     -2484.0599     -7173.0451     -1711.1228      6.687834e-08   6.3823266e-12 -2.8323883e-07  6.368428       16.711118      20.737693      2206.979     
        83   0             -146.70555     -3789.4093     -2484.0599     -7173.0451     -1711.1228      1.306582e-07  -2.8032871e-12  1.9902998e-07  6.368428       16.711118      20.737693      2206.979     
        84   0             -146.70555     -3789.4093     -2484.0599     -7173.0451     -1711.1228      9.8380551e-08  1.8272999e-12 -7.3621183e-08  6.368428       16.711118      20.737693      2206.979     
        85   0             -146.70555     -3789.4093     -2484.0599     -7173.0451     -1711.1228      4.5037787e-08  4.6016222e-12  2.1881588e-08  6.368428       16.711118      20.737693      2206.979     
        86   0             -146.70555     -3789.4093     -2484.0599     -7173.0451     -1711.1228     -1.4664151e-09  9.4085166e-12 -1.2039448e-08  6.368428       16.711118      20.737693      2206.979     
        87   0             -146.70555     -3789.4093     -2484.0599     -7173.0451     -1711.1228     -1.7165197e-08 -2.6723159e-12  5.1974972e-09  6.368428       16.711118      20.737693      2206.979     
        88   0             -146.70555     -3789.4093     -2484.0599     -7173.0451     -1711.1228     -1.4442526e-08  2.1043543e-12 -1.9873382e-09  6.368428       16.711118      20.737693      2206.979     
        89   0             -146.70555     -3789.4093     -2484.0599     -7173.0451     -1711.1228     -6.0853872e-09 -1.1194258e-11  9.3272613e-10  6.368428       16.711118      20.737693      2206.979     
        90   0             -146.70555     -3789.4093     -2484.0599     -7173.0451     -1711.1228      2.2477136e-09  4.2175241e-12 -2.2013966e-10  6.368428       16.711118      20.737693      2206.979     
        91   0             -146.70555     -3789.4093     -2484.0599     -7173.0451     -1711.1228      4.2351283e-09  9.4979296e-12  7.5023457e-11  6.368428       16.711118      20.737693      2206.979     
Loop time of 0.014976 on 1 procs for 38 steps with 96 atoms

104.3% CPU use with 1 MPI tasks x 1 OpenMP threads

Minimization stats:
  Stopping criterion = force tolerance
  Energy initial, next-to-last, final = 
     -146.705246251011  -146.705552306663  -146.705552306663
  Force two-norm initial, final = 0.03199783 7.7094135e-11
  Force max component initial, final = 0.0033196734 1.3855327e-11
  Final line search alpha, max atom move = 1 1.3855327e-11
  Iterations, force evaluations = 38 76

MPI task timing breakdown:
Section |  min time  |  avg time  |  max time  |%varavg| %total
---------------------------------------------------------------
Pair    | 0.01409    | 0.01409    | 0.01409    |   0.0 | 94.08
Neigh   | 0          | 0          | 0          |   0.0 |  0.00
Comm    | 0.000324   | 0.000324   | 0.000324   |   0.0 |  2.16
Output  | 0.000363   | 0.000363   | 0.000363   |   0.0 |  2.42
Modify  | 0          | 0          | 0          |   0.0 |  0.00
Other   |            | 0.000199   |            |       |  1.33

Nlocal:             96 ave          96 max          96 min
Histogram: 1 0 0 0 0 0 0 0 0 0
Nghost:           1310 ave        1310 max        1310 min
Histogram: 1 0 0 0 0 0 0 0 0 0
Neighs:           5952 ave        5952 max        5952 min
Histogram: 1 0 0 0 0 0 0 0 0 0

Total # of neighbors = 5952
Ave neighs/atom = 62
Neighbor list builds = 0
Dangerous builds = 0
OMP_NUM_THREADS environment is not set. Defaulting to 1 thread. (src/comm.cpp:98)
  using 1 OpenMP thread(s) per MPI task
Loaded 1 plugins from F:\Lammps\LAMMPS 64-bit 2Aug2023\plugins

The 'box' command has been removed and will be ignored

Reading restart file ...
  restart file = 2 Aug 2023, LAMMPS = 2 Aug 2023
  restoring atom style atomic from restart
  triclinic box = (-0.014214012 -0.036929088 -0.015669905) to (6.354214 16.508732 20.722023) with tilt (0 0 0)
  1 by 1 by 1 MPI processor grid
  pair style eam/alloy stores no restart info
  96 atoms
  read_restart CPU = 0.000 seconds
Changing box ...
  triclinic box = (-0.014214012 -0.036929088 -0.015669905) to (6.354214 16.508732 20.514646) with tilt (0 0 0)
Neighbor list info ...
  update: every = 1 steps, delay = 0 steps, check = yes
  max neighbors/atom: 2000, page size: 100000
  master list distance cutoff = 8.5
  ghost atom cutoff = 8.5
  1 neighbor lists, perpetual/occasional/extra = 1 0 0
  (1) pair eam/alloy, perpetual
      attributes: half, newton on
      pair build: half/nsq/newton
      stencil: none
      bin: none
Setting up cg style minimization ...
  Unit style    : metal
  Current step  : 53
Per MPI rank memory allocation (min/avg/max) = 4.465 | 4.465 | 4.465 Mbytes
   Step          Temp          PotEng         Press           Pxx            Pyy            Pzz            Pxy            Pxz            Pyz             Lx             Ly             Lz           Volume    
        53   0             -146.70467      3599.7632      1700.2353      1700.2083      7398.8461     -0.011642705    1.2152463e-05  2.4898203e-06  6.368428       16.545661      20.530316      2163.2764    
        54   0             -146.70467      3599.763       1700.2319      1700.2113      7398.8459     -0.0089075852  -1.0353827e-06 -1.6878193e-06  6.368428       16.545661      20.530316      2163.2764    
        55   0             -146.70467      3599.763       1700.2277      1700.2155      7398.8459     -0.0052494372  -2.332601e-08  -4.2995617e-07  6.368428       16.545661      20.530316      2163.2764    
        56   0             -146.70467      3599.763       1700.2246      1700.2185      7398.8459     -0.0026530856  -1.5441938e-07  7.846896e-08   6.368428       16.545661      20.530316      2163.2764    
        57   0             -146.70467      3599.763       1700.2226      1700.2205      7398.8459     -0.00088964969  3.077096e-08  -2.2728672e-08  6.368428       16.545661      20.530316      2163.2764    
        58   0             -146.70467      3599.763       1700.2216      1700.2215      7398.8459     -4.2313895e-05  3.7695541e-08 -9.373043e-09   6.368428       16.545661      20.530316      2163.2764    
        59   0             -146.70467      3599.763       1700.2212      1700.2219      7398.8459      0.00032506449  3.3213214e-08  4.1473429e-09  6.368428       16.545661      20.530316      2163.2764    
        60   0             -146.70467      3599.763       1700.2212      1700.2219      7398.8459      0.00031172748  3.3149688e-08  7.2827157e-09  6.368428       16.545661      20.530316      2163.2764    
        61   0             -146.70467      3599.763       1700.2214      1700.2217      7398.8459      0.00012604456  2.2311846e-08  6.723784e-09   6.368428       16.545661      20.530316      2163.2764    
        62   0             -146.70467      3599.763       1700.2216      1700.2215      7398.8459     -4.6119867e-05  1.5488884e-08  4.1312451e-09  6.368428       16.545661      20.530316      2163.2764    
        63   0             -146.70467      3599.763       1700.2217      1700.2214      7398.8459     -0.00012833141  6.5443854e-09  2.593439e-09   6.368428       16.545661      20.530316      2163.2764    
        64   0             -146.70467      3599.763       1700.2217      1700.2214      7398.8459     -0.00011486853  1.2218227e-09  1.0175944e-09  6.368428       16.545661      20.530316      2163.2764    
        65   0             -146.70467      3599.763       1700.2216      1700.2215      7398.8459     -3.2524752e-05 -4.6502723e-10  1.3897561e-10  6.368428       16.545661      20.530316      2163.2764    
        66   0             -146.70467      3599.763       1700.2215      1700.2216      7398.8459      2.9735863e-05 -2.8427674e-10 -5.64931e-11    6.368428       16.545661      20.530316      2163.2764    
        67   0             -146.70467      3599.763       1700.2215      1700.2216      7398.8459      5.2713042e-05  4.033077e-10   1.1235397e-12  6.368428       16.545661      20.530316      2163.2764    
        68   0             -146.70467      3599.763       1700.2215      1700.2216      7398.8459      3.5153335e-05  6.1754469e-10 -5.2167428e-11  6.368428       16.545661      20.530316      2163.2764    
        69   0             -146.70467      3599.763       1700.2216      1700.2216      7398.8459      7.6710261e-06  6.3829773e-10 -6.8005868e-11  6.368428       16.545661      20.530316      2163.2764    
        70   0             -146.70467      3599.763       1700.2216      1700.2215      7398.8459     -1.7474984e-05  4.0121223e-10 -9.8882954e-12  6.368428       16.545661      20.530316      2163.2764    
        71   0             -146.70467      3599.763       1700.2216      1700.2215      7398.8459     -2.2198679e-05  1.9489077e-10  1.3935532e-11  6.368428       16.545661      20.530316      2163.2764    
        72   0             -146.70467      3599.763       1700.2216      1700.2216      7398.8459     -1.1444333e-05  7.0671866e-11  4.1674082e-11  6.368428       16.545661      20.530316      2163.2764    
        73   0             -146.70467      3599.763       1700.2216      1700.2216      7398.8459     -2.4293469e-07  2.6203078e-11  1.0838962e-11  6.368428       16.545661      20.530316      2163.2764    
        74   0             -146.70467      3599.763       1700.2216      1700.2216      7398.8459      5.7017722e-06 -4.2500506e-12  1.6255442e-11  6.368428       16.545661      20.530316      2163.2764    
        75   0             -146.70467      3599.763       1700.2216      1700.2216      7398.8459      5.3186438e-06 -2.4667766e-13 -3.534057e-12   6.368428       16.545661      20.530316      2163.2764    
        76   0             -146.70467      3599.763       1700.2216      1700.2216      7398.8459      3.112392e-06  -9.1155106e-12 -1.4194435e-11  6.368428       16.545661      20.530316      2163.2764    
        77   0             -146.70467      3599.763       1700.2216      1700.2216      7398.8459      1.0077679e-06  2.2727749e-12  2.7650864e-12  6.368428       16.545661      20.530316      2163.2764    
        78   0             -146.70467      3599.763       1700.2216      1700.2216      7398.8459     -2.5811558e-07 -2.6710566e-12  2.4537753e-11  6.368428       16.545661      20.530316      2163.2764    
        79   0             -146.70467      3599.763       1700.2216      1700.2216      7398.8459     -6.5328772e-07  1.0852532e-11 -1.1592716e-11  6.368428       16.545661      20.530316      2163.2764    
        80   0             -146.70467      3599.763       1700.2216      1700.2216      7398.8459     -4.3711421e-07  7.0046179e-12  1.8022405e-11  6.368428       16.545661      20.530316      2163.2764    
        81   0             -146.70467      3599.763       1700.2216      1700.2216      7398.8459     -2.0180939e-07  6.1039874e-12  1.3042148e-11  6.368428       16.545661      20.530316      2163.2764    
        82   0             -146.70467      3599.763       1700.2216      1700.2216      7398.8459      1.316568e-08  -8.4281535e-13 -1.5229887e-11  6.368428       16.545661      20.530316      2163.2764    
        83   0             -146.70467      3599.763       1700.2216      1700.2216      7398.8459      1.9316004e-07  9.35191e-12   -1.337864e-11   6.368428       16.545661      20.530316      2163.2764    
        84   0             -146.70467      3599.763       1700.2216      1700.2216      7398.8459      1.664784e-07   2.9665559e-12  1.4143013e-12  6.368428       16.545661      20.530316      2163.2764    
        85   0             -146.70467      3599.763       1700.2216      1700.2216      7398.8459      7.9431994e-08  8.0941109e-13  2.2936315e-11  6.368428       16.545661      20.530316      2163.2764    
        86   0             -146.70467      3599.763       1700.2216      1700.2216      7398.8459     -2.4756132e-08  6.0281854e-12  7.1557902e-12  6.368428       16.545661      20.530316      2163.2764    
        87   0             -146.70467      3599.763       1700.2216      1700.2216      7398.8459     -5.6261002e-08 -4.8140688e-12 -1.449701e-11   6.368428       16.545661      20.530316      2163.2764    
        88   0             -146.70467      3599.763       1700.2216      1700.2216      7398.8459     -4.8791831e-08  1.7974065e-12  9.6323232e-12  6.368428       16.545661      20.530316      2163.2764    
        89   0             -146.70467      3599.763       1700.2216      1700.2216      7398.8459     -2.6958681e-08  5.9369661e-12 -7.7765796e-12  6.368428       16.545661      20.530316      2163.2764    
        90   0             -146.70467      3599.763       1700.2216      1700.2216      7398.8459     -1.6460749e-09  3.996949e-12  -4.368983e-12   6.368428       16.545661      20.530316      2163.2764    
Loop time of 0.014353 on 1 procs for 37 steps with 96 atoms

108.9% CPU use with 1 MPI tasks x 1 OpenMP threads

Minimization stats:
  Stopping criterion = force tolerance
  Energy initial, next-to-last, final = 
     -146.704668844675  -146.704668867065  -146.704668867065
  Force two-norm initial, final = 0.00051752694 6.7979593e-11
  Force max component initial, final = 7.4768149e-05 1.3105532e-11
  Final line search alpha, max atom move = 1 1.3105532e-11
  Iterations, force evaluations = 37 74

MPI task timing breakdown:
Section |  min time  |  avg time  |  max time  |%varavg| %total
---------------------------------------------------------------
Pair    | 0.013535   | 0.013535   | 0.013535   |   0.0 | 94.30
Neigh   | 0          | 0          | 0          |   0.0 |  0.00
Comm    | 0.000271   | 0.000271   | 0.000271   |   0.0 |  1.89
Output  | 0.000386   | 0.000386   | 0.000386   |   0.0 |  2.69
Modify  | 0          | 0          | 0          |   0.0 |  0.00
Other   |            | 0.000161   |            |       |  1.12

Nlocal:             96 ave          96 max          96 min
Histogram: 1 0 0 0 0 0 0 0 0 0
Nghost:           1310 ave        1310 max        1310 min
Histogram: 1 0 0 0 0 0 0 0 0 0
Neighs:           6144 ave        6144 max        6144 min
Histogram: 1 0 0 0 0 0 0 0 0 0

Total # of neighbors = 6144
Ave neighs/atom = 64
Neighbor list builds = 0
Dangerous builds = 0
OMP_NUM_THREADS environment is not set. Defaulting to 1 thread. (src/comm.cpp:98)
  using 1 OpenMP thread(s) per MPI task
Loaded 1 plugins from F:\Lammps\LAMMPS 64-bit 2Aug2023\plugins

The 'box' command has been removed and will be ignored

Reading restart file ...
  restart file = 2 Aug 2023, LAMMPS = 2 Aug 2023
  restoring atom style atomic from restart
  triclinic box = (-0.014214012 -0.036929088 -0.015669905) to (6.354214 16.508732 20.722023) with tilt (0 0 0)
  1 by 1 by 1 MPI processor grid
  pair style eam/alloy stores no restart info
  96 atoms
  read_restart CPU = 0.000 seconds
Changing box ...
  triclinic box = (-0.014214012 -0.036929088 -0.015669905) to (6.354214 16.508732 20.9294) with tilt (0 0 0)
Neighbor list info ...
  update: every = 1 steps, delay = 0 steps, check = yes
  max neighbors/atom: 2000, page size: 100000
  master list distance cutoff = 8.5
  ghost atom cutoff = 8.5
  1 neighbor lists, perpetual/occasional/extra = 1 0 0
  (1) pair eam/alloy, perpetual
      attributes: half, newton on
      pair build: half/nsq/newton
      stencil: none
      bin: none
Setting up cg style minimization ...
  Unit style    : metal
  Current step  : 53
Per MPI rank memory allocation (min/avg/max) = 4.465 | 4.465 | 4.465 Mbytes
   Step          Temp          PotEng         Press           Pxx            Pyy            Pzz            Pxy            Pxz            Pyz             Lx             Ly             Lz           Volume    
        53   0             -146.70702     -3328.8864     -1562.2993     -1562.3126     -6862.0475     -0.0057444109  -2.6023982e-06 -8.3235998e-06  6.368428       16.545661      20.94507       2206.979     
        54   0             -146.70702     -3328.8864     -1562.3008     -1562.3112     -6862.0472     -0.0044823156   2.9627048e-06  1.6245317e-06  6.368428       16.545661      20.94507       2206.979     
        55   0             -146.70702     -3328.8864     -1562.3028     -1562.3091     -6862.0471     -0.0026985432   1.4021853e-06  9.5231967e-07  6.368428       16.545661      20.94507       2206.979     
        56   0             -146.70702     -3328.8863     -1562.3043     -1562.3076     -6862.0471     -0.0014335521   8.1788797e-07  4.5284888e-07  6.368428       16.545661      20.94507       2206.979     
        57   0             -146.70702     -3328.8863     -1562.3053     -1562.3066     -6862.0471     -0.00057034935  4.6266044e-07  2.3039022e-07  6.368428       16.545661      20.94507       2206.979     
        58   0             -146.70702     -3328.8863     -1562.3059     -1562.306      -6862.0471     -4.8954707e-05  2.0632415e-07  1.1839732e-07  6.368428       16.545661      20.94507       2206.979     
        59   0             -146.70702     -3328.8863     -1562.3061     -1562.3058     -6862.0471      0.00014108973  7.4792538e-08  4.1658352e-08  6.368428       16.545661      20.94507       2206.979     
        60   0             -146.70702     -3328.8863     -1562.3061     -1562.3058     -6862.0471      0.00014828117 -1.5922202e-08  4.7589768e-09  6.368428       16.545661      20.94507       2206.979     
        61   0             -146.70702     -3328.8863     -1562.306      -1562.3059     -6862.0471      7.1736286e-05 -4.4103431e-08 -1.3738317e-08  6.368428       16.545661      20.94507       2206.979     
        62   0             -146.70702     -3328.8863     -1562.3059     -1562.306      -6862.0471     -1.0386454e-05 -3.8123287e-08 -1.6219207e-08  6.368428       16.545661      20.94507       2206.979     
        63   0             -146.70702     -3328.8863     -1562.3059     -1562.306      -6862.0471     -5.7049533e-05 -2.0653881e-08 -1.1214524e-08  6.368428       16.545661      20.94507       2206.979     
        64   0             -146.70702     -3328.8863     -1562.3059     -1562.306      -6862.0471     -5.3803207e-05 -3.1470084e-09 -3.5062645e-09  6.368428       16.545661      20.94507       2206.979     
        65   0             -146.70702     -3328.8863     -1562.3059     -1562.306      -6862.0471     -2.5659651e-05  3.9403072e-09  3.700799e-10   6.368428       16.545661      20.94507       2206.979     
        66   0             -146.70702     -3328.8863     -1562.306      -1562.306      -6862.0471      1.0080218e-05  3.7083547e-09  1.4234373e-09  6.368428       16.545661      20.94507       2206.979     
        67   0             -146.70702     -3328.8863     -1562.306      -1562.3059     -6862.0471      2.3224187e-05  1.6695967e-09  1.0901135e-09  6.368428       16.545661      20.94507       2206.979     
        68   0             -146.70702     -3328.8863     -1562.306      -1562.3059     -6862.0471      1.8058645e-05  3.1318233e-10  5.8663123e-10  6.368428       16.545661      20.94507       2206.979     
        69   0             -146.70702     -3328.8863     -1562.306      -1562.306      -6862.0471      6.2840774e-06 -2.2030739e-10  1.6875757e-10  6.368428       16.545661      20.94507       2206.979     
        70   0             -146.70702     -3328.8863     -1562.306      -1562.306      -6862.0471     -4.9454418e-06 -2.3524062e-10 -4.2818743e-11  6.368428       16.545661      20.94507       2206.979     
        71   0             -146.70702     -3328.8863     -1562.306      -1562.306      -6862.0471     -8.813766e-06  -1.1112653e-10 -5.792911e-11   6.368428       16.545661      20.94507       2206.979     
        72   0             -146.70702     -3328.8863     -1562.306      -1562.306      -6862.0471     -6.2590716e-06 -2.2389776e-11 -2.3141493e-11  6.368428       16.545661      20.94507       2206.979     
        73   0             -146.70702     -3328.8863     -1562.306      -1562.306      -6862.0471     -3.0094926e-06  5.0348346e-12  3.003394e-12   6.368428       16.545661      20.94507       2206.979     
        74   0             -146.70702     -3328.8863     -1562.306      -1562.306      -6862.0471      1.1020594e-06  8.3405977e-12  8.3138565e-12  6.368428       16.545661      20.94507       2206.979     
        75   0             -146.70702     -3328.8863     -1562.306      -1562.306      -6862.0471      2.8226751e-06  9.4425188e-12  2.8234336e-11  6.368428       16.545661      20.94507       2206.979     
        76   0             -146.70702     -3328.8863     -1562.306      -1562.306      -6862.0471      2.0641839e-06  1.1269819e-11  1.5797386e-11  6.368428       16.545661      20.94507       2206.979     
        77   0             -146.70702     -3328.8863     -1562.306      -1562.306      -6862.0471      8.6855321e-07  7.407428e-12   1.4148725e-11  6.368428       16.545661      20.94507       2206.979     
        78   0             -146.70702     -3328.8863     -1562.306      -1562.306      -6862.0471     -3.5034639e-07 -2.0552401e-12  4.1399567e-12  6.368428       16.545661      20.94507       2206.979     
        79   0             -146.70702     -3328.8863     -1562.306      -1562.306      -6862.0471     -1.0276628e-06 -2.1610246e-12  3.4462187e-12  6.368428       16.545661      20.94507       2206.979     
        80   0             -146.70702     -3328.8863     -1562.306      -1562.306      -6862.0471     -9.3024169e-07 -3.2427962e-12  8.3131973e-12  6.368428       16.545661      20.94507       2206.979     
        81   0             -146.70702     -3328.8863     -1562.306      -1562.306      -6862.0471     -4.9233112e-07 -3.3737674e-12 -2.8722457e-12  6.368428       16.545661      20.94507       2206.979     
        82   0             -146.70702     -3328.8863     -1562.306      -1562.306      -6862.0471     -1.9995498e-07  6.9616223e-12 -1.0612798e-11  6.368428       16.545661      20.94507       2206.979     
        83   0             -146.70702     -3328.8863     -1562.306      -1562.306      -6862.0471     -3.5582821e-08  4.3762007e-12  6.9950931e-12  6.368428       16.545661      20.94507       2206.979     
        84   0             -146.70702     -3328.8863     -1562.306      -1562.306      -6862.0471      1.2671382e-08  6.4679616e-12 -1.377665e-11   6.368428       16.545661      20.94507       2206.979     
[...]
        71   0             -146.73933     -76.545778     -196.2788       34.080694     -67.439229      2128.1526     -6.1834701e-07  5.4926381e-08  6.368428       16.545661      20.737693      2185.1277    
        72   0             -146.73933     -76.545777     -196.27869      34.080584     -67.43923       2128.1526      1.0043026e-07 -9.0516959e-09  6.368428       16.545661      20.737693      2185.1277    
        73   0             -146.73933     -76.545769     -196.27857      34.080486     -67.439223      2128.1526      1.9786125e-07 -1.7684229e-08  6.368428       16.545661      20.737693      2185.1277    
        74   0             -146.73933     -76.54576      -196.27852      34.080452     -67.439214      2128.1527     -2.9623894e-07  2.6505233e-08  6.368428       16.545661      20.737693      2185.1277    
        75   0             -146.73933     -76.545755     -196.27851      34.080459     -67.439209      2128.1527      2.9221869e-07 -2.6093327e-08  6.368428       16.545661      20.737693      2185.1277    
        76   0             -146.73933     -76.545754     -196.27854      34.08049      -67.439208      2128.1527     -4.4186351e-07  3.948177e-08   6.368428       16.545661      20.737693      2185.1277    
        77   0             -146.73933     -76.545756     -196.27856      34.080506     -67.439209      2128.1527      3.7048941e-07 -3.3116363e-08  6.368428       16.545661      20.737693      2185.1277    
        78   0             -146.73933     -76.545758     -196.27857      34.080509     -67.439211      2128.1527     -3.6881876e-07  3.296365e-08   6.368428       16.545661      20.737693      2185.1277    
        79   0             -146.73933     -76.545759     -196.27857      34.080506     -67.439213      2128.1527      3.0798542e-07 -2.7533988e-08  6.368428       16.545661      20.737693      2185.1277    
        80   0             -146.73933     -76.545761     -196.27857      34.080499     -67.439214      2128.1527     -2.9122279e-07  2.6060549e-08  6.368428       16.545661      20.737693      2185.1277    
        81   0             -146.73933     -76.54576      -196.27856      34.080496     -67.439214      2128.1527      2.7482749e-07 -2.4557899e-08  6.368428       16.545661      20.737693      2185.1277    
        82   0             -146.73933     -76.545759     -196.27856      34.080497     -67.439213      2128.1527     -2.3496693e-07  2.099755e-08   6.368428       16.545661      20.737693      2185.1277    
        83   0             -146.73933     -76.545758     -196.27856      34.080499     -67.439212      2128.1527      2.379901e-07  -2.124616e-08   6.368428       16.545661      20.737693      2185.1277    
        84   0             -146.73933     -76.545758     -196.27856      34.080501     -67.439212      2128.1527     -2.0119169e-07  1.797173e-08   6.368428       16.545661      20.737693      2185.1277    
        85   0             -146.73933     -76.545758     -196.27856      34.080502     -67.439212      2128.1527      1.3773951e-07 -1.2307032e-08  6.368428       16.545661      20.737693      2185.1277    
        86   0             -146.73933     -76.545759     -196.27857      34.080501     -67.439212      2128.1527     -8.8966014e-08  7.9403186e-09  6.368428       16.545661      20.737693      2185.1277    
        87   0             -146.73933     -76.545759     -196.27857      34.0805       -67.439213      2128.1527      4.068451e-08  -3.6252593e-09  6.368428       16.545661      20.737693      2185.1277    
        88   0             -146.73933     -76.545759     -196.27856      34.0805       -67.439213      2128.1527     -2.28867e-08    2.0408613e-09  6.368428       16.545661      20.737693      2185.1277    
        89   0             -146.73933     -76.545759     -196.27856      34.0805       -67.439213      2128.1527      1.8493937e-08 -1.6458537e-09  6.368428       16.545661      20.737693      2185.1277    
        90   0             -146.73933     -76.545759     -196.27856      34.0805       -67.439213      2128.1527     -9.096142e-09   8.1833177e-10  6.368428       16.545661      20.737693      2185.1277    
        91   0             -146.73933     -76.545759     -196.27856      34.080501     -67.439212      2128.1527      3.1621965e-09 -2.7759199e-10  6.368428       16.545661      20.737693      2185.1277    
        92   0             -146.73933     -76.545759     -196.27856      34.080501     -67.439212      2128.1527     -1.2715018e-09  1.1321111e-10  6.368428       16.545661      20.737693      2185.1277    
        93   0             -146.73933     -76.545759     -196.27856      34.080501     -67.439212      2128.1527      2.7990129e-10 -3.438722e-11   6.368428       16.545661      20.737693      2185.1277    
        94   0             -146.73933     -76.545759     -196.27856      34.080501     -67.439212      2128.1527     -3.8510276e-11  1.32722e-11    6.368428       16.545661      20.737693      2185.1277    
        95   0             -146.73933     -76.545759     -196.27856      34.080501     -67.439212      2128.1527     -6.8197162e-11 -6.6377147e-12  6.368428       16.545661      20.737693      2185.1277    
Loop time of 0.01653 on 1 procs for 42 steps with 96 atoms

94.5% CPU use with 1 MPI tasks x 1 OpenMP threads

Minimization stats:
  Stopping criterion = force tolerance
  Energy initial, next-to-last, final = 
     -146.738803822606  -146.739326613133  -146.739326613132
  Force two-norm initial, final = 0.039206505 5.179673e-11
  Force max component initial, final = 0.0040569165 1.0348642e-11
  Final line search alpha, max atom move = 1 1.0348642e-11
  Iterations, force evaluations = 42 84

MPI task timing breakdown:
Section |  min time  |  avg time  |  max time  |%varavg| %total
---------------------------------------------------------------
Pair    | 0.015604   | 0.015604   | 0.015604   |   0.0 | 94.40
Neigh   | 0          | 0          | 0          |   0.0 |  0.00
Comm    | 0.000303   | 0.000303   | 0.000303   |   0.0 |  1.83
Output  | 0.000431   | 0.000431   | 0.000431   |   0.0 |  2.61
Modify  | 0          | 0          | 0          |   0.0 |  0.00
Other   |            | 0.000192   |            |       |  1.16

Nlocal:             96 ave          96 max          96 min
Histogram: 1 0 0 0 0 0 0 0 0 0
Nghost:           1310 ave        1310 max        1310 min
Histogram: 1 0 0 0 0 0 0 0 0 0
Neighs:           6144 ave        6144 max        6144 min
Histogram: 1 0 0 0 0 0 0 0 0 0

Total # of neighbors = 6144
Ave neighs/atom = 64
Neighbor list builds = 0
Dangerous builds = 0
OMP_NUM_THREADS environment is not set. Defaulting to 1 thread. (src/comm.cpp:98)
  using 1 OpenMP thread(s) per MPI task
Loaded 1 plugins from F:\Lammps\LAMMPS 64-bit 2Aug2023\plugins

The 'box' command has been removed and will be ignored

Reading restart file ...
  restart file = 2 Aug 2023, LAMMPS = 2 Aug 2023
  restoring atom style atomic from restart
  triclinic box = (-0.014214012 -0.036929088 -0.015669905) to (6.354214 16.508732 20.722023) with tilt (0 0 0)
  1 by 1 by 1 MPI processor grid
  pair style eam/alloy stores no restart info
  96 atoms
  read_restart CPU = 0.000 seconds
Changing box ...
  triclinic box = (-0.014214012 -0.036929088 -0.015669905) to (6.354214 16.508732 20.722023) with tilt (0.16545661 0 0)
Neighbor list info ...
  update: every = 1 steps, delay = 0 steps, check = yes
  max neighbors/atom: 2000, page size: 100000
  master list distance cutoff = 8.5
  ghost atom cutoff = 8.5
  1 neighbor lists, perpetual/occasional/extra = 1 0 0
  (1) pair eam/alloy, perpetual
      attributes: half, newton on
      pair build: half/nsq/newton
      stencil: none
      bin: none
Setting up cg style minimization ...
  Unit style    : metal
  Current step  : 53
Per MPI rank memory allocation (min/avg/max) = 4.465 | 4.465 | 4.465 Mbytes
   Step          Temp          PotEng         Press           Pxx            Pyy            Pzz            Pxy            Pxz            Pyz             Lx             Ly             Lz           Volume    
        53   0             -146.7388      -58.21109      -166.74959      35.915144     -43.798827     -2206.0946      0.0087405843  -0.00065267125  6.368428       16.545661      20.737693      2185.1277    
        54   0             -146.73933     -76.549086     -192.40744      30.260187     -67.500009     -2128.697      -0.03141765    -0.00068621177  6.368428       16.545661      20.737693      2185.1277    
        55   0             -146.73933     -76.574423     -193.81747      31.599174     -67.50497      -2128.4377      0.031349551    0.0019266029   6.368428       16.545661      20.737693      2185.1277    
        56   0             -146.73933     -76.548202     -196.12387      33.923155     -67.44389      -2128.1694     -0.01324039    -0.0011796307   6.368428       16.545661      20.737693      2185.1277    
        57   0             -146.73933     -76.545755     -196.26293      34.065084     -67.439419     -2128.1554      0.0024716098   0.00022027984  6.368428       16.545661      20.737693      2185.1277    
        58   0             -146.73933     -76.545567     -196.27416      34.076533     -67.439072     -2128.1542     -0.00069101911 -6.1791245e-05  6.368428       16.545661      20.737693      2185.1277    
        59   0             -146.73933     -76.545593     -196.27605      34.078347     -67.439074     -2128.1537      0.00025094728  2.2421671e-05  6.368428       16.545661      20.737693      2185.1277    
        60   0             -146.73933     -76.545641     -196.27709      34.079276     -67.439109     -2128.1534     -0.00011883543 -1.0606645e-05  6.368428       16.545661      20.737693      2185.1277    
        61   0             -146.73933     -76.54569      -196.27788      34.079958     -67.43915      -2128.1531      6.9245678e-05  6.2007897e-06  6.368428       16.545661      20.737693      2185.1277    
        62   0             -146.73933     -76.545773     -196.27898      34.080885     -67.439221     -2128.1526     -5.9816411e-05 -5.3361667e-06  6.368428       16.545661      20.737693      2185.1277    
        63   0             -146.73933     -76.545843     -196.27972      34.081477     -67.439285     -2128.1522      4.8033783e-05  4.2996173e-06  6.368428       16.545661      20.737693      2185.1277    
        64   0             -146.73933     -76.545841     -196.2795       34.081265     -67.439286     -2128.1522     -3.9423369e-05 -3.5197226e-06  6.368428       16.545661      20.737693      2185.1277    
        65   0             -146.73933     -76.545805     -196.27893      34.080768     -67.439255     -2128.1524      2.4184437e-05  2.1628074e-06  6.368428       16.545661      20.737693      2185.1277    
        66   0             -146.73933     -76.545742     -196.27816      34.080133     -67.4392       -2128.1528     -1.5522634e-05 -1.3872845e-06  6.368428       16.545661      20.737693      2185.1277    
        67   0             -146.73933     -76.54571      -196.27791      34.079947     -67.439171     -2128.153       7.4848673e-06  6.6906512e-07  6.368428       16.545661      20.737693      2185.1277    
        68   0             -146.73933     -76.545716     -196.27813      34.080152     -67.439174     -2128.1529     -4.1197731e-06 -3.6771124e-07  6.368428       16.545661      20.737693      2185.1277    
        69   0             -146.73933     -76.54574      -196.27849      34.080461     -67.439194     -2128.1528      1.7428934e-06  1.5622102e-07  6.368428       16.545661      20.737693      2185.1277    
        70   0             -146.73933     -76.545763     -196.27873      34.080651     -67.439215     -2128.1526     -6.1256021e-07 -5.4379489e-08  6.368428       16.545661      20.737693      2185.1277    
        71   0             -146.73933     -76.545774     -196.27876      34.080665     -67.439226     -2128.1526      1.1456211e-07  1.042342e-08   6.368428       16.545661      20.737693      2185.1277    
        72   0             -146.73933     -76.545775     -196.27867      34.080576     -67.439228     -2128.1526      2.6898843e-07  2.4086299e-08  6.368428       16.545661      20.737693      2185.1277    
        73   0             -146.73933     -76.545768     -196.27858      34.080496     -67.439222     -2128.1526     -3.5459367e-07 -3.1694093e-08  6.368428       16.545661      20.737693      2185.1277    
        74   0             -146.73933     -76.545761     -196.27854      34.08047      -67.439215     -2128.1527      3.7905005e-07  3.3881287e-08  6.368428       16.545661      20.737693      2185.1277    
        75   0             -146.73933     -76.545756     -196.27853      34.080472     -67.43921      -2128.1527     -3.5272663e-07 -3.1525011e-08  6.368428       16.545661      20.737693      2185.1277    
        76   0             -146.73933     -76.545755     -196.27855      34.080491     -67.439208     -2128.1527      5.2757649e-07  4.7156629e-08  6.368428       16.545661      20.737693      2185.1277    
        77   0             -146.73933     -76.545756     -196.27856      34.080505     -67.439209     -2128.1527     -4.1225415e-07 -3.682191e-08   6.368428       16.545661      20.737693      2185.1277    
        78   0             -146.73933     -76.545758     -196.27857      34.080507     -67.439211     -2128.1527      3.9674198e-07  3.5472297e-08  6.368428       16.545661      20.737693      2185.1277    
        79   0             -146.73933     -76.545759     -196.27857      34.080505     -67.439213     -2128.1527     -3.5034316e-07 -3.1329384e-08  6.368428       16.545661      20.737693      2185.1277    
        80   0             -146.73933     -76.545761     -196.27857      34.080499     -67.439214     -2128.1527      3.511517e-07   3.1385904e-08  6.368428       16.545661      20.737693      2185.1277    
        81   0             -146.73933     -76.545761     -196.27856      34.080497     -67.439214     -2128.1527     -3.1263201e-07 -2.7960843e-08  6.368428       16.545661      20.737693      2185.1277    
        82   0             -146.73933     -76.545759     -196.27856      34.080497     -67.439213     -2128.1527      2.6265638e-07  2.347063e-08   6.368428       16.545661      20.737693      2185.1277    
        83   0             -146.73933     -76.545758     -196.27856      34.080499     -67.439212     -2128.1527     -2.6777357e-07 -2.3934103e-08  6.368428       16.545661      20.737693      2185.1277    
        84   0             -146.73933     -76.545758     -196.27856      34.080501     -67.439212     -2128.1527      2.2302238e-07  1.9927538e-08  6.368428       16.545661      20.737693      2185.1277    
        85   0             -146.73933     -76.545758     -196.27856      34.080502     -67.439212     -2128.1527     -1.4705645e-07 -1.3122294e-08  6.368428       16.545661      20.737693      2185.1277    
        86   0             -146.73933     -76.545759     -196.27857      34.080502     -67.439212     -2128.1527      7.8963526e-08  7.0648721e-09  6.368428       16.545661      20.737693      2185.1277    
        87   0             -146.73933     -76.545759     -196.27857      34.080501     -67.439213     -2128.1527     -3.367138e-08  -3.0053069e-09  6.368428       16.545661      20.737693      2185.1277    
        88   0             -146.73933     -76.545759     -196.27856      34.0805       -67.439213     -2128.1527      1.7716302e-08  1.5927626e-09  6.368428       16.545661      20.737693      2185.1277    
        89   0             -146.73933     -76.545759     -196.27856      34.0805       -67.439213     -2128.1527     -1.3427421e-08 -1.203904e-09   6.368428       16.545661      20.737693      2185.1277    
        90   0             -146.73933     -76.545759     -196.27856      34.0805       -67.439213     -2128.1527      6.050714e-09   5.2572127e-10  6.368428       16.545661      20.737693      2185.1277    
        91   0             -146.73933     -76.545759     -196.27856      34.080501     -67.439212     -2128.1527     -2.0512417e-09 -1.9007199e-10  6.368428       16.545661      20.737693      2185.1277    
        92   0             -146.73933     -76.545759     -196.27856      34.080501     -67.439212     -2128.1527      5.0612071e-10  5.2598689e-11  6.368428       16.545661      20.737693      2185.1277    
        93   0             -146.73933     -76.545759     -196.27856      34.080501     -67.439212     -2128.1527      2.6002736e-10  3.5713785e-11  6.368428       16.545661      20.737693      2185.1277    
        94   0             -146.73933     -76.545759     -196.27856      34.080501     -67.439212     -2128.1527     -3.6544379e-10 -5.1760327e-11  6.368428       16.545661      20.737693      2185.1277    
        95   0             -146.73933     -76.545759     -196.27856      34.080501     -67.439212     -2128.1527      2.3356736e-10  2.303835e-11   6.368428       16.545661      20.737693      2185.1277    
Loop time of 0.016508 on 1 procs for 42 steps with 96 atoms

94.7% CPU use with 1 MPI tasks x 1 OpenMP threads

Minimization stats:
  Stopping criterion = force tolerance
  Energy initial, next-to-last, final = 
     -146.738803589659  -146.739326613132  -146.739326613131
  Force two-norm initial, final = 0.039215328 5.0879292e-11
  Force max component initial, final = 0.0040579388 9.3423359e-12
  Final line search alpha, max atom move = 1 9.3423359e-12
  Iterations, force evaluations = 42 84

MPI task timing breakdown:
Section |  min time  |  avg time  |  max time  |%varavg| %total
---------------------------------------------------------------
Pair    | 0.015603   | 0.015603   | 0.015603   |   0.0 | 94.52
Neigh   | 0          | 0          | 0          |   0.0 |  0.00
Comm    | 0.000309   | 0.000309   | 0.000309   |   0.0 |  1.87
Output  | 0.000411   | 0.000411   | 0.000411   |   0.0 |  2.49
Modify  | 0          | 0          | 0          |   0.0 |  0.00
Other   |            | 0.000185   |            |       |  1.12

Nlocal:             96 ave          96 max          96 min
Histogram: 1 0 0 0 0 0 0 0 0 0
Nghost:           1310 ave        1310 max        1310 min
Histogram: 1 0 0 0 0 0 0 0 0 0
Neighs:           6144 ave        6144 max        6144 min
Histogram: 1 0 0 0 0 0 0 0 0 0

Total # of neighbors = 6144
Ave neighs/atom = 64
Neighbor list builds = 0
Dangerous builds = 0
=========================================
Components of the Elastic Constant Tensor
=========================================
Elastic Constant C11all = 68.2113901303279 GPa
Elastic Constant C22all = 68.2438613122228 GPa
Elastic Constant C33all = 71.304464753452 GPa
Elastic Constant C12all = 26.0582047997012 GPa
Elastic Constant C13all = 16.1359658213639 GPa
Elastic Constant C23all = 16.1074311871251 GPa
Elastic Constant C44all = 12.7827606943896 GPa
Elastic Constant C55all = 12.7828094640523 GPa
Elastic Constant C66all = 21.2815268412903 GPa
Elastic Constant C14all = -6.41844865559368e-12 GPa
Elastic Constant C15all = -1.71071381918832e-11 GPa
Elastic Constant C16all = 1.80568324341287e-11 GPa
Elastic Constant C24all = 6.79647704154232e-12 GPa
Elastic Constant C25all = 1.57494851741397e-11 GPa
Elastic Constant C26all = -6.46108700364644e-12 GPa
Elastic Constant C34all = 5.34484433574876e-14 GPa
Elastic Constant C35all = -2.54044090504154e-13 GPa
Elastic Constant C36all = -1.97419364956251e-11 GPa
Elastic Constant C45all = 4.91501987182975e-14 GPa
Elastic Constant C46all = -7.57101201816473e-14 GPa
Elastic Constant C56all = -6.74713027781956e-12 GPa
=========================================
Average properties for a cubic crystal
=========================================
Bulk Modulus = 36.0403244235981 GPa
Shear Modulus 1 = 15.6156989999107 GPa
Shear Modulus 2 = 24.9096857313021 GPa
Poisson Ratio = 0.219128440938082
Total wall time: 0:00:00
