LAMMPS (2 Aug 2023 - Update 3)
OMP_NUM_THREADS environment is not set. Defaulting to 1 thread. (src/comm.cpp:98)
  using 1 OpenMP thread(s) per MPI task
Loaded 1 plugins from F:\Lammps\LAMMPS 64-bit 2Aug2023\plugins
Lattice spacing in x,y,z = 3.17 5.4906011 5.1765883
Created triclinic box = (0 0 0) to (6.34 16.471803 20.706353) with tilt (0 0 0)
  1 by 1 by 1 MPI processor grid
Created 96 atoms
  using lattice units in triclinic box = (0 0 0) to (6.34 16.471803 20.706353) with tilt (0 0 0)
  create_atoms CPU = 0.000 seconds
Neighbor list info ...
  update: every = 1 steps, delay = 0 steps, check = yes
  max neighbors/atom: 2000, page size: 100000
  master list distance cutoff = 8.5
  ghost atom cutoff = 8.5
  1 neighbor lists, perpetual/occasional/extra = 1 0 0
  (1) pair eam/alloy, perpetual
      attributes: half, newton on
      pair build: half/nsq/newton
      stencil: none
      bin: none
Setting up cg style minimization ...
  Unit style    : metal
  Current step  : 0
WARNING: Energy due to 3 extra global DOFs will be included in minimizer energies
 (src/min.cpp:228)
Per MPI rank memory allocation (min/avg/max) = 4.472 | 4.472 | 4.472 Mbytes
   Step          Temp          PotEng         Press           Pxx            Pyy            Pzz            Pxy            Pxz            Pyz             Lx             Ly             Lz           Volume    
         0   0             -146.72439      3772.2495      4425.4155      4425.4155      2465.9176      4.1001267e-12  1.1177022e-11 -7.5627415e-12  6.34           16.471803      20.706353      2162.39      
         1   0             -146.72575      3681.9194      4325.0865      4325.0865      2395.5851     -6.0779438e-12  6.9594384e-12 -9.5088338e-13  6.340634       16.47345       20.707507      2162.943     
         2   0             -146.72708      3591.118       4223.9692      4223.9692      2325.4156      8.1241232e-12  1.1633785e-11 -1.4285302e-11  6.341268       16.475098      20.708654      2163.4954    
         3   0             -146.72838      3500.0778      4122.6305      4122.6305      2254.9723      9.5039822e-14 -1.3151456e-12 -8.1682874e-13  6.341902       16.476745      20.709794      2164.0472    
         4   0             -146.72964      3409.5005      4021.7214      4021.7214      2185.0587     -2.6707095e-13  3.800625e-13   1.1386467e-11  6.342536       16.478392      20.710927      2164.5982    
         5   0             -146.73087      3320.0138      3921.937       3921.937       2116.1675      6.9626182e-12  6.4080733e-12 -1.6338533e-11  6.34317        16.480039      20.712052      2165.1486    
         6   0             -146.73207      3228.9018      3820.073       3820.073       2046.5595     -1.6991458e-12  6.242179e-12  -2.4486179e-12  6.343804       16.481686      20.71317       2165.6983    
         7   0             -146.73323      3138.4425      3719.2597      3719.2597      1976.808      -6.2534274e-12 -5.5323716e-12  1.3045722e-11  6.344438       16.483333      20.714279      2166.2473    
         8   0             -146.73437      3048.225       3618.3232      3618.3232      1908.0288     -3.6787634e-12  1.4468777e-12 -1.0825929e-12  6.345072       16.484981      20.71538       2166.7954    
         9   0             -146.73546      2958.4291      3517.496       3517.496       1840.2953      1.3590547e-11 -8.4738947e-12  1.3582853e-11  6.345706       16.486628      20.716472      2167.3427    
        10   0             -146.73653      2868.5093      3416.5005      3416.5005      1772.527      -1.73589e-11    5.8461287e-13 -8.9435513e-12  6.34634        16.488275      20.717556      2167.8892    
        11   0             -146.73756      2778.6041      3315.3793      3315.3793      1705.0537      4.0246108e-12  8.6131797e-13 -2.9428364e-11  6.346974       16.489922      20.718631      2168.4348    
        12   0             -146.73856      2688.9234      3214.6771      3214.6771      1637.4158      3.3008896e-12  2.7268219e-12 -2.2224623e-11  6.347608       16.491569      20.719696      2168.9796    
        13   0             -146.73953      2599.2424      3113.8114      3113.8114      1570.1044      1.1627083e-11  4.2019426e-12  1.5762409e-11  6.348242       16.493217      20.720752      2169.5234    
        14   0             -146.74046      2509.9394      3013.2832      3013.2832      1503.252      -7.2234844e-13 -8.1968618e-13 -2.4805753e-11  6.348876       16.494864      20.721796      2170.0662    
        15   0             -146.74136      2420.0874      2911.7719      2911.7719      1436.7184      1.9411471e-12  9.1679506e-12 -1.2025893e-11  6.34951        16.496511      20.72283       2170.6079    
        16   0             -146.74223      2331.7803      2812.0096      2812.0096      1371.3218      6.2674734e-12  8.3259083e-12  1.0189765e-11  6.350144       16.498158      20.723852      2171.1485    
        17   0             -146.74306      2242.8217      2711.3282      2711.3282      1305.8086     -2.1910231e-12  2.7438981e-12  2.2278814e-11  6.350778       16.499805      20.724863      2171.6879    
        18   0             -146.74387      2153.3007      2609.5744      2609.5744      1240.7532     -4.6624474e-12  5.4250211e-13  2.188433e-11   6.351412       16.501452      20.725861      2172.2261    
        19   0             -146.74464      2064.8459      2509.0414      2509.0414      1176.455       7.009851e-12  -5.1371463e-12 -1.456207e-11   6.352046       16.5031        20.726846      2172.7631    
        20   0             -146.74538      1976.6234      2408.4834      2408.4834      1112.9034      6.343119e-12  -2.2814767e-12 -2.3264923e-11  6.35268        16.504747      20.727818      2173.2988    
        21   0             -146.74608      1888.8568      2308.4282      2308.4282      1049.7139     -1.0294807e-11 -6.4438433e-13 -7.0779993e-12  6.353314       16.506394      20.728776      2173.833     
        22   0             -146.74676      1800.8585      2207.9779      2207.9779      986.61968     -5.4043441e-12  2.1474215e-13  1.3631014e-11  6.353948       16.508041      20.729718      2174.3658    
        23   0             -146.7474       1713.1586      2107.6256      2107.6256      924.22464      1.5795029e-12  8.2808888e-13 -3.6599484e-12  6.354582       16.509688      20.730645      2174.8969    
        24   0             -146.74801      1625.0375      2006.4409      2006.4409      862.2308      -9.9039858e-12 -6.8479572e-12  1.5147272e-11  6.355216       16.511336      20.731554      2175.4263    
        25   0             -146.74859      1537.8585      1906.2713      1906.2713      801.03281     -2.8917941e-12  3.9545028e-12 -2.3338719e-11  6.35585        16.512983      20.732444      2175.9538    
        26   0             -146.74914      1451.0089      1806.3575      1806.3575      740.31157     -2.6459145e-12 -7.0489613e-13  1.8705287e-11  6.356484       16.51463       20.733316      2176.4794    
        27   0             -146.74965      1363.9125      1705.8477      1705.8477      680.0421       2.9312544e-12 -1.021343e-14   1.375749e-11   6.357118       16.516277      20.734165      2177.0028    
        28   0             -146.75014      1277.3107      1605.5771      1605.5771      620.77791     -3.5432121e-12  1.9400873e-12 -1.0343729e-11  6.357752       16.517924      20.734992      2177.5239    
        29   0             -146.75059      1191.6897      1506.1782      1506.1782      562.71249     -7.4063066e-12 -7.339951e-12  -3.6546627e-12  6.358386       16.519571      20.735794      2178.0424    
        30   0             -146.75101      1105.9171      1406.1446      1406.1446      505.46209     -5.2255427e-12  2.6535959e-12 -8.1138798e-12  6.35902        16.521219      20.736568      2178.5582    
        31   0             -146.7514       1021.3416      1307.3531      1307.3531      449.31863     -5.6732775e-12 -2.3264519e-12 -1.1020035e-12  6.359654       16.522866      20.737314      2179.0709    
        32   0             -146.75176      936.15646      1207.341       1207.341       393.78739     -1.2292629e-12  3.2338285e-12 -1.3924845e-11  6.360288       16.524513      20.738027      2179.5803    
        33   0             -146.75209      851.68804      1107.8117      1107.8117      339.44069      7.761428e-12  -2.0397971e-12 -4.946508e-12   6.360922       16.52616       20.738703      2180.086     
        34   0             -146.75239      768.23487      1009.0818      1009.0818      286.54098      4.2621957e-12  1.1410041e-11  2.7928598e-11  6.361556       16.527807      20.739339      2180.5874    
        35   0             -146.75266      685.66815      910.64299      910.64299      235.71846      3.6597604e-12  4.4855002e-12 -1.7401702e-11  6.36219        16.529454      20.739928      2181.084     
        36   0             -146.7529       603.98749      812.5444       812.5444       186.87366     -5.3711963e-12  3.037223e-12  -2.4257016e-12  6.362824       16.531102      20.740465      2181.5752    
        37   0             -146.75312      523.66613      715.50454      715.50454      139.9893      -2.3283597e-12 -3.1893943e-12  2.2356329e-11  6.363458       16.532749      20.740942      2182.0602    
        38   0             -146.7533       443.54212      617.95239      617.95239      94.721573     -4.2532932e-12 -1.2632535e-12  1.6554734e-11  6.364092       16.534396      20.741348      2182.5377    
        39   0             -146.75346      364.15561      520.27026      520.27026      51.926321     -1.223769e-11   3.3306071e-12  1.5603945e-11  6.364726       16.536043      20.741666      2183.0061    
        40   0             -146.75359      287.36503      424.47945      424.47945      13.1362        1.1781977e-11  2.2912228e-12  3.1995653e-11  6.36536        16.53769       20.741873      2183.4628    
        41   0             -146.75369      213.16605      329.97907      329.97907     -20.459999     -5.9152497e-12  5.0905763e-14 -3.6855773e-12  6.365994       16.539338      20.741937      2183.9045    
        42   0             -146.75377      141.60192      236.24291      236.24291     -47.680063     -5.0539669e-12 -3.2878778e-12  2.9305883e-11  6.366628       16.540985      20.741809      2184.326     
        43   0             -146.75382      75.175928      145.41715      145.41715     -65.306512     -6.813747e-12   2.6257606e-12 -1.7413474e-11  6.367262       16.542632      20.74139       2184.7169    
        44   0             -146.75385      16.609202      57.914826      57.914826     -66.002046      1.2439913e-11  9.1480421e-12 -1.0949158e-11  6.367896       16.544279      20.740457      2185.0538    
        45   0             -146.75386     -13.965589     -8.721328      -8.721328      -24.454112      3.9326532e-12  8.9947359e-12 -7.0513032e-12  6.3684508      16.545721      20.738387      2185.2164    
        46   0             -146.75386      1.7061536      3.8327204      3.8327204     -2.5469799      4.1516023e-12 -6.176526e-12  -9.2088237e-12  6.3683959      16.545578      20.737817      2185.1186    
        47   0             -146.75386     -0.068869903   -0.058756566   -0.058756566   -0.089096575    9.1579065e-12  1.8315813e-13 -4.6501814e-12  6.3684283      16.545662      20.737695      2185.1281    
        48   0             -146.75386     -0.0029012471  -0.0059305395  -0.0059305394   0.0031573377  -4.375445e-13   3.9277251e-12 -1.3716511e-11  6.3684281      16.545661      20.737693      2185.1277    
        49   0             -146.75386      0.0013997657   0.00072980202  0.00072980203  0.002739693   -1.5822831e-12 -6.1663249e-12  7.9063275e-12  6.368428       16.545661      20.737693      2185.1277    
        50   0             -146.75386     -2.9842816e-06 -4.3020426e-06 -4.3020574e-06 -3.4874495e-07 -7.1635194e-12  1.0551945e-11 -1.9893012e-11  6.368428       16.545661      20.737693      2185.1277    
        51   0             -146.75386     -3.12852e-07   -1.638212e-07  -1.6378623e-07 -6.1094859e-07  9.1782592e-12  1.7908798e-12  2.6486706e-11  6.368428       16.545661      20.737693      2185.1277    
        52   0             -146.75386      6.0336954e-08  1.2320656e-07  1.233651e-07  -6.5560794e-08 -8.455802e-12  -3.3578997e-13 -1.4886689e-11  6.368428       16.545661      20.737693      2185.1277    
        53   0             -146.75386     -2.2261349e-11 -3.67283e-11   -8.0485295e-11  5.0429548e-11  6.4003604e-12  4.0498306e-12 -2.3729158e-11  6.368428       16.545661      20.737693      2185.1277    
Loop time of 0.01441 on 1 procs for 53 steps with 96 atoms

108.4% CPU use with 1 MPI tasks x 1 OpenMP threads

Minimization stats:
  Stopping criterion = force tolerance
  Energy initial, next-to-last, final = 
     -146.724386219683  -146.753862724566  -146.753862724546
  Force two-norm initial, final = 9.0788294 2.4545072e-13
  Force max component initial, final = 5.9727965 1.0927983e-13
  Final line search alpha, max atom move = 1 1.0927983e-13
  Iterations, force evaluations = 53 61

MPI task timing breakdown:
Section |  min time  |  avg time  |  max time  |%varavg| %total
---------------------------------------------------------------
Pair    | 0.011372   | 0.011372   | 0.011372   |   0.0 | 78.92
Neigh   | 0          | 0          | 0          |   0.0 |  0.00
Comm    | 0.000234   | 0.000234   | 0.000234   |   0.0 |  1.62
Output  | 0.000523   | 0.000523   | 0.000523   |   0.0 |  3.63
Modify  | 0          | 0          | 0          |   0.0 |  0.00
Other   |            | 0.002281   |            |       | 15.83

Nlocal:             96 ave          96 max          96 min
Histogram: 1 0 0 0 0 0 0 0 0 0
Nghost:           1310 ave        1310 max        1310 min
Histogram: 1 0 0 0 0 0 0 0 0 0
Neighs:           6144 ave        6144 max        6144 min
Histogram: 1 0 0 0 0 0 0 0 0 0

Total # of neighbors = 6144
Ave neighs/atom = 64
Neighbor list builds = 0
Dangerous builds = 0
Displacing atoms ...
System init for write_restart ...
OMP_NUM_THREADS environment is not set. Defaulting to 1 thread. (src/comm.cpp:98)
  using 1 OpenMP thread(s) per MPI task
Loaded 1 plugins from F:\Lammps\LAMMPS 64-bit 2Aug2023\plugins

The 'box' command has been removed and will be ignored

Reading restart file ...
  restart file = 2 Aug 2023, LAMMPS = 2 Aug 2023
  restoring atom style atomic from restart
  triclinic box = (-0.014214012 -0.036929088 -0.015669905) to (6.354214 16.508732 20.722023) with tilt (0 0 0)
  1 by 1 by 1 MPI processor grid
  pair style eam/alloy stores no restart info
  96 atoms
  read_restart CPU = 0.000 seconds
Changing box ...
  triclinic box = (-0.014214012 -0.036929088 -0.015669905) to (6.3478456 16.508732 20.722023) with tilt (0 0 0)
  triclinic box = (-0.014214012 -0.036929088 -0.015669905) to (6.3478456 16.508732 20.722023) with tilt (0 0 0)
  triclinic box = (-0.014214012 -0.036929088 -0.015669905) to (6.3478456 16.508732 20.722023) with tilt (0 0 0)
Neighbor list info ...
  update: every = 1 steps, delay = 0 steps, check = yes
  max neighbors/atom: 2000, page size: 100000
  master list distance cutoff = 8.5
  ghost atom cutoff = 8.5
  1 neighbor lists, perpetual/occasional/extra = 1 0 0
  (1) pair eam/alloy, perpetual
      attributes: half, newton on
      pair build: half/nsq/newton
      stencil: none
      bin: none
Setting up cg style minimization ...
  Unit style    : metal
  Current step  : 53
Per MPI rank memory allocation (min/avg/max) = 4.465 | 4.465 | 4.465 Mbytes
   Step          Temp          PotEng         Press           Pxx            Pyy            Pzz            Pxy            Pxz            Pyz             Lx             Ly             Lz           Volume    
        53   0             -146.75339      368.51934      694.21989      252.23169      159.10645     -0.0086694718  -1.2574416e-07 -0.00096125608  6.3620596      16.545661      20.737693      2182.9426    
        54   0             -146.75339      368.5508       686.91925      259.72801      159.00514     -0.00048097867 -1.6070416e-05 -0.0004193146   6.3620596      16.545661      20.737693      2182.9426    
        55   0             -146.75339      368.56173      686.5374       260.14143      159.00635     -3.9467188e-05 -1.217881e-06   8.0960547e-05  6.3620596      16.545661      20.737693      2182.9426    
        56   0             -146.75339      368.56186      686.5324       260.14683      159.00635     -2.1937055e-05 -2.3921786e-07 -2.748508e-05   6.3620596      16.545661      20.737693      2182.9426    
        57   0             -146.75339      368.56176      686.53559      260.14335      159.00633     -1.4059385e-05 -2.5602627e-08  9.4602073e-06  6.3620596      16.545661      20.737693      2182.9426    
        58   0             -146.75339      368.56164      686.53926      260.13934      159.00631     -7.8524645e-06  2.0485111e-08 -5.5514337e-06  6.3620596      16.545661      20.737693      2182.9426    
        59   0             -146.75339      368.56155      686.54213      260.13622      159.0063      -3.404456e-06   7.79172e-09    4.0670078e-06  6.3620596      16.545661      20.737693      2182.9426    
        60   0             -146.75339      368.56147      686.54463      260.13349      159.00628      2.9963411e-07 -2.8509273e-09 -4.0502355e-06  6.3620596      16.545661      20.737693      2182.9426    
        61   0             -146.75339      368.56143      686.54596      260.13204      159.00628      2.210215e-06  -3.388603e-09   2.5730392e-06  6.3620596      16.545661      20.737693      2182.9426    
        62   0             -146.75339      368.56143      686.54599      260.13201      159.00628      2.1816596e-06 -6.9135536e-10 -1.2780186e-06  6.3620596      16.545661      20.737693      2182.9426    
        63   0             -146.75339      368.56145      686.54509      260.13299      159.00628      7.9231227e-07  2.3011244e-09  7.8102834e-07  6.3620596      16.545661      20.737693      2182.9426    
        64   0             -146.75339      368.56148      686.54414      260.13402      159.00629     -6.1257388e-07  2.6877623e-09 -6.8877527e-07  6.3620596      16.545661      20.737693      2182.9426    
        65   0             -146.75339      368.5615       686.54376      260.13444      159.00629     -1.1561232e-06  2.091607e-09   4.7547792e-07  6.3620596      16.545661      20.737693      2182.9426    
        66   0             -146.75339      368.56149      686.54397      260.13421      159.00629     -8.0342501e-07  9.4809077e-10 -4.355719e-07   6.3620596      16.545661      20.737693      2182.9426    
        67   0             -146.75339      368.56148      686.54442      260.13373      159.00629     -1.3593785e-07  9.0998502e-11  2.9270812e-07  6.3620596      16.545661      20.737693      2182.9426    
        68   0             -146.75339      368.56147      686.54468      260.13343      159.00628      2.5499446e-07 -1.7019567e-10 -1.5001865e-07  6.3620596      16.545661      20.737693      2182.9426    
        69   0             -146.75339      368.56147      686.54474      260.13337      159.00628      3.2967118e-07 -1.6898867e-10  9.2338078e-08  6.3620596      16.545661      20.737693      2182.9426    
        70   0             -146.75339      368.56147      686.54464      260.13348      159.00628      1.6138567e-07 -9.4443794e-11 -8.3283156e-08  6.3620596      16.545661      20.737693      2182.9426    
        71   0             -146.75339      368.56147      686.54453      260.13361      159.00628     -1.2790302e-08 -1.6971821e-12  8.0670815e-08  6.3620596      16.545661      20.737693      2182.9426    
        72   0             -146.75339      368.56147      686.54447      260.13367      159.00629     -9.7702819e-08  1.1474123e-11 -6.2635005e-08  6.3620596      16.545661      20.737693      2182.9426    
        73   0             -146.75339      368.56147      686.54446      260.13367      159.00629     -9.3641101e-08  1.1629454e-11  3.6191123e-08  6.3620596      16.545661      20.737693      2182.9426    
        74   0             -146.75339      368.56147      686.5445       260.13363      159.00628     -3.4231299e-08  1.2835179e-11 -2.8537319e-08  6.3620596      16.545661      20.737693      2182.9426    
        75   0             -146.75339      368.56147      686.54453      260.1336       159.00628      1.1286641e-08  6.225972e-13   1.5483136e-08  6.3620596      16.545661      20.737693      2182.9426    
        76   0             -146.75339      368.56147      686.54454      260.13359      159.00628      1.7809558e-08  6.3927619e-12 -1.6398644e-08  6.3620596      16.545661      20.737693      2182.9426    
        77   0             -146.75339      368.56147      686.54453      260.1336       159.00628      1.2562824e-08 -1.9581892e-12  1.2322527e-08  6.3620596      16.545661      20.737693      2182.9426    
        78   0             -146.75339      368.56147      686.54453      260.1336       159.00628      3.108228e-09   2.2663047e-12 -1.1540344e-08  6.3620596      16.545661      20.737693      2182.9426    
        79   0             -146.75339      368.56147      686.54453      260.13361      159.00628     -1.7690036e-09  6.679233e-12   6.6777801e-09  6.3620596      16.545661      20.737693      2182.9426    
        80   0             -146.75339      368.56147      686.54452      260.13361      159.00628     -3.7743052e-09 -4.9018389e-13 -4.6880933e-09  6.3620596      16.545661      20.737693      2182.9426    
        81   0             -146.75339      368.56147      686.54452      260.13361      159.00628     -2.6377483e-09 -6.5060771e-12  5.1766473e-09  6.3620596      16.545661      20.737693      2182.9426    
        82   0             -146.75339      368.56147      686.54453      260.13361      159.00628     -4.6353317e-10 -1.1574706e-11 -4.1709345e-09  6.3620596      16.545661      20.737693      2182.9426    
        83   0             -146.75339      368.56147      686.54453      260.1336       159.00628      2.3566004e-10  3.4949475e-12  2.1715367e-09  6.3620596      16.545661      20.737693      2182.9426    
        84   0             -146.75339      368.56147      686.54453      260.1336       159.00628      3.3810211e-10 -2.392352e-12  -9.9734156e-10  6.3620596      16.545661      20.737693      2182.9426    
        85   0             -146.75339      368.56147      686.54453      260.1336       159.00628      2.2684055e-10  1.9607356e-13  3.4194904e-10  6.3620596      16.545661      20.737693      2182.9426    
        86   0             -146.75339      368.56147      686.54453      260.1336       159.00628      8.1604796e-11  4.9680456e-12 -1.3412136e-10  6.3620596      16.545661      20.737693      2182.9426    
        87   0             -146.75339      368.56147      686.54453      260.1336       159.00628     -1.7175534e-12  6.4118599e-12  8.4945079e-11  6.3620596      16.545661      20.737693      2182.9426    
        88   0             -146.75339      368.56147      686.54453      260.1336       159.00628     -3.8751265e-11 -4.8127146e-13 -6.4906743e-11  6.3620596      16.545661      20.737693      2182.9426    
        89   0             -146.75339      368.56147      686.54453      260.1336       159.00628     -3.2745557e-11  1.5598033e-11  3.7319476e-11  6.3620596      16.545661      20.737693      2182.9426    
        90   0             -146.75339      368.56147      686.54453      260.1336       159.00628     -1.0477203e-11 -1.0326965e-11 -2.0868077e-11  6.3620596      16.545661      20.737693      2182.9426    
Loop time of 0.015468 on 1 procs for 37 steps with 96 atoms

101.0% CPU use with 1 MPI tasks x 1 OpenMP threads

Minimization stats:
  Stopping criterion = force tolerance
  Energy initial, next-to-last, final = 
     -146.753388691644  -146.753393983488  -146.753393983489
  Force two-norm initial, final = 0.0039803858 8.1529909e-11
  Force max component initial, final = 0.00046144235 1.2928797e-11
  Final line search alpha, max atom move = 1 1.2928797e-11
  Iterations, force evaluations = 37 74

MPI task timing breakdown:
Section |  min time  |  avg time  |  max time  |%varavg| %total
---------------------------------------------------------------
Pair    | 0.014611   | 0.014611   | 0.014611   |   0.0 | 94.46
Neigh   | 0          | 0          | 0          |   0.0 |  0.00
Comm    | 0.000274   | 0.000274   | 0.000274   |   0.0 |  1.77
Output  | 0.000392   | 0.000392   | 0.000392   |   0.0 |  2.53
Modify  | 0          | 0          | 0          |   0.0 |  0.00
Other   |            | 0.000191   |            |       |  1.23

Nlocal:             96 ave          96 max          96 min
Histogram: 1 0 0 0 0 0 0 0 0 0
Nghost:           1310 ave        1310 max        1310 min
Histogram: 1 0 0 0 0 0 0 0 0 0
Neighs:           6144 ave        6144 max        6144 min
Histogram: 1 0 0 0 0 0 0 0 0 0

Total # of neighbors = 6144
Ave neighs/atom = 64
Neighbor list builds = 0
Dangerous builds = 0
OMP_NUM_THREADS environment is not set. Defaulting to 1 thread. (src/comm.cpp:98)
  using 1 OpenMP thread(s) per MPI task
Loaded 1 plugins from F:\Lammps\LAMMPS 64-bit 2Aug2023\plugins

The 'box' command has been removed and will be ignored

Reading restart file ...
  restart file = 2 Aug 2023, LAMMPS = 2 Aug 2023
  restoring atom style atomic from restart
  triclinic box = (-0.014214012 -0.036929088 -0.015669905) to (6.354214 16.508732 20.722023) with tilt (0 0 0)
  1 by 1 by 1 MPI processor grid
  pair style eam/alloy stores no restart info
  96 atoms
  read_restart CPU = 0.000 seconds
Changing box ...
  triclinic box = (-0.014214012 -0.036929088 -0.015669905) to (6.3605824 16.508732 20.722023) with tilt (0 0 0)
  triclinic box = (-0.014214012 -0.036929088 -0.015669905) to (6.3605824 16.508732 20.722023) with tilt (0 0 0)
  triclinic box = (-0.014214012 -0.036929088 -0.015669905) to (6.3605824 16.508732 20.722023) with tilt (0 0 0)
Neighbor list info ...
  update: every = 1 steps, delay = 0 steps, check = yes
  max neighbors/atom: 2000, page size: 100000
  master list distance cutoff = 8.5
  ghost atom cutoff = 8.5
  1 neighbor lists, perpetual/occasional/extra = 1 0 0
  (1) pair eam/alloy, perpetual
      attributes: half, newton on
      pair build: half/nsq/newton
      stencil: none
      bin: none
Setting up cg style minimization ...
  Unit style    : metal
  Current step  : 53
Per MPI rank memory allocation (min/avg/max) = 4.465 | 4.465 | 4.465 Mbytes
   Step          Temp          PotEng         Press           Pxx            Pyy            Pzz            Pxy            Pxz            Pyz             Lx             Ly             Lz           Volume    
        53   0             -146.75339     -370.45667     -696.62925     -253.80493     -160.93583     -0.0084933646   3.5689202e-06  0.00064077404  6.3747965      16.545661      20.737693      2187.3128    
        54   0             -146.75339     -370.49844     -689.61975     -260.82332     -161.05225     -0.00035337791 -5.661491e-06  -0.0013716429   6.3747965      16.545661      20.737693      2187.3128    
        55   0             -146.75339     -370.50057     -689.25487     -261.18908     -161.05775      6.199248e-05  -1.5846768e-06  0.00017791985  6.3747965      16.545661      20.737693      2187.3128    
        56   0             -146.75339     -370.50066     -689.24483     -261.1992      -161.05793      5.2408994e-05  2.1861303e-07 -4.6257022e-05  6.3747965      16.545661      20.737693      2187.3128    
        57   0             -146.75339     -370.50066     -689.24401     -261.20001     -161.05794      3.4560264e-05  2.1468543e-09  1.5416726e-05  6.3747965      16.545661      20.737693      2187.3128    
        58   0             -146.75339     -370.50066     -689.24437     -261.19966     -161.05794      1.9844798e-05 -3.6721367e-09 -9.0413117e-06  6.3747965      16.545661      20.737693      2187.3128    
        59   0             -146.75339     -370.50066     -689.24479     -261.19925     -161.05794      8.9440087e-06 -1.7080222e-08  6.1377699e-06  6.3747965      16.545661      20.737693      2187.3128    
        60   0             -146.75339     -370.50066     -689.24525     -261.1988      -161.05793     -1.4831954e-06 -2.9320197e-08 -6.2694519e-06  6.3747965      16.545661      20.737693      2187.3128    
        61   0             -146.75339     -370.50066     -689.24557     -261.19848     -161.05793     -8.1548087e-06 -2.4085914e-08  3.4393142e-06  6.3747965      16.545661      20.737693      2187.3128    
        62   0             -146.75339     -370.50066     -689.24558     -261.19848     -161.05793     -7.392049e-06  -1.2737897e-08 -1.3951872e-06  6.3747965      16.545661      20.737693      2187.3128    
        63   0             -146.75339     -370.50066     -689.24538     -261.19867     -161.05793     -2.4477466e-06 -3.1844773e-09  9.4566218e-07  6.3747965      16.545661      20.737693      2187.3128    
        64   0             -146.75339     -370.50066     -689.24511     -261.19894     -161.05793      3.5932694e-06  2.263074e-09  -1.0511561e-06  6.3747965      16.545661      20.737693      2187.3128    
        65   0             -146.75339     -370.50066     -689.24499     -261.19906     -161.05794      6.0390764e-06  2.6160382e-09  7.1570975e-07  6.3747965      16.545661      20.737693      2187.3128    
        66   0             -146.75339     -370.50066     -689.24506     -261.19898     -161.05793      3.968834e-06   1.1382823e-09 -5.3835498e-07  6.3747965      16.545661      20.737693      2187.3128    
        67   0             -146.75339     -370.50066     -689.24521     -261.19884     -161.05793      5.8252162e-07 -2.9448078e-10  3.2530044e-07  6.3747965      16.545661      20.737693      2187.3128    
        68   0             -146.75339     -370.50066     -689.24532     -261.19873     -161.05793     -1.9645105e-06 -9.3235644e-10 -1.5469467e-07  6.3747965      16.545661      20.737693      2187.3128    
        69   0             -146.75339     -370.50066     -689.24534     -261.1987      -161.05793     -2.2494649e-06 -7.8499279e-10  7.2947454e-08  6.3747965      16.545661      20.737693      2187.3128    
        70   0             -146.75339     -370.50066     -689.24529     -261.19875     -161.05793     -9.6431275e-07 -4.0468267e-10 -5.629947e-08   6.3747965      16.545661      20.737693      2187.3128    
        71   0             -146.75339     -370.50066     -689.24524     -261.19881     -161.05793      3.5543024e-07 -1.322504e-10   6.4479339e-08  6.3747965      16.545661      20.737693      2187.3128    
        72   0             -146.75339     -370.50066     -689.24521     -261.19884     -161.05793      9.6572574e-07 -3.0423437e-11 -5.7786337e-08  6.3747965      16.545661      20.737693      2187.3128    
        73   0             -146.75339     -370.50066     -689.24521     -261.19884     -161.05793      8.1258871e-07  1.5479193e-11  2.5034702e-08  6.3747965      16.545661      20.737693      2187.3128    
        74   0             -146.75339     -370.50066     -689.24523     -261.19881     -161.05793      2.6904892e-07  1.2042055e-11 -1.8019513e-08  6.3747965      16.545661      20.737693      2187.3128    
        75   0             -146.75339     -370.50066     -689.24525     -261.19879     -161.05793     -2.0343903e-07  7.9759394e-12  1.0722287e-08  6.3747965      16.545661      20.737693      2187.3128    
        76   0             -146.75339     -370.50066     -689.24526     -261.19879     -161.05793     -2.5735939e-07 -2.0737188e-12 -1.1915341e-08  6.3747965      16.545661      20.737693      2187.3128    
        77   0             -146.75339     -370.50066     -689.24525     -261.19879     -161.05793     -1.6206361e-07  1.9657126e-12  9.0361736e-09  6.3747965      16.545661      20.737693      2187.3128    
        78   0             -146.75339     -370.50066     -689.24525     -261.1988      -161.05793     -2.8830494e-08 -4.2681505e-12 -9.6426673e-09  6.3747965      16.545661      20.737693      2187.3128    
        79   0             -146.75339     -370.50066     -689.24524     -261.1988      -161.05793      5.5620152e-08 -4.6112289e-12  7.9034145e-09  6.3747965      16.545661      20.737693      2187.3128    
        80   0             -146.75339     -370.50066     -689.24524     -261.1988      -161.05793      9.0519428e-08  7.5096068e-12 -5.4609175e-09  6.3747965      16.545661      20.737693      2187.3128    
        81   0             -146.75339     -370.50066     -689.24524     -261.1988      -161.05793      5.5992457e-08 -2.7586051e-12  5.1754407e-09  6.3747965      16.545661      20.737693      2187.3128    
        82   0             -146.75339     -370.50066     -689.24525     -261.1988      -161.05793      1.1253188e-08  5.4892557e-12 -4.4405319e-09  6.3747965      16.545661      20.737693      2187.3128    
        83   0             -146.75339     -370.50066     -689.24525     -261.1988      -161.05793     -3.8410203e-09  5.2402062e-12  3.3504362e-09  6.3747965      16.545661      20.737693      2187.3128    
        84   0             -146.75339     -370.50066     -689.24525     -261.1988      -161.05793     -8.1122813e-09 -5.9212805e-12 -2.4565924e-09  6.3747965      16.545661      20.737693      2187.3128    
        85   0             -146.75339     -370.50066     -689.24525     -261.1988      -161.05793     -6.4917323e-09  7.3698341e-13  1.1047205e-09  6.3747965      16.545661      20.737693      2187.3128    
        86   0             -146.75339     -370.50066     -689.24525     -261.1988      -161.05793     -4.1027739e-10 -5.0369004e-12 -5.9720833e-10  6.3747965      16.545661      20.737693      2187.3128    
        87   0             -146.75339     -370.50066     -689.24525     -261.1988      -161.05793      5.6056534e-09  3.5540389e-12  4.0778085e-10  6.3747965      16.545661      20.737693      2187.3128    
        88   0             -146.75339     -370.50066     -689.24525     -261.1988      -161.05793      6.863374e-09   4.5680265e-12 -2.3875147e-10  6.3747965      16.545661      20.737693      2187.3128    
        89   0             -146.75339     -370.50066     -689.24525     -261.1988      -161.05793      3.3384281e-09  1.0653222e-11  1.6625752e-10  6.3747965      16.545661      20.737693      2187.3128    
        90   0             -146.75339     -370.50066     -689.24525     -261.1988      -161.05793      5.1452751e-10 -1.5565598e-12 -9.0308104e-11  6.3747965      16.545661      20.737693      2187.3128    
        91   0             -146.75339     -370.50066     -689.24525     -261.1988      -161.05793     -7.5595692e-10  2.0927787e-12  6.5779204e-11  6.3747965      16.545661      20.737693      2187.3128    
        92   0             -146.75339     -370.50066     -689.24525     -261.1988      -161.05793     -8.7789209e-10 -1.1443573e-11 -3.9802068e-11  6.3747965      16.545661      20.737693      2187.3128    
        93   0             -146.75339     -370.50066     -689.24525     -261.1988      -161.05793     -4.6216611e-10 -1.4409296e-12  2.8287109e-11  6.3747965      16.545661      20.737693      2187.3128    
Loop time of 0.01719 on 1 procs for 40 steps with 96 atoms

90.9% CPU use with 1 MPI tasks x 1 OpenMP threads

Minimization stats:
  Stopping criterion = force tolerance
  Energy initial, next-to-last, final = 
     -146.753388491267  -146.753393529712  -146.753393529711
  Force two-norm initial, final = 0.0038969083 7.7460098e-11
  Force max component initial, final = 0.00045448006 1.2946831e-11
  Final line search alpha, max atom move = 1 1.2946831e-11
  Iterations, force evaluations = 40 80

MPI task timing breakdown:
Section |  min time  |  avg time  |  max time  |%varavg| %total
---------------------------------------------------------------
Pair    | 0.016198   | 0.016198   | 0.016198   |   0.0 | 94.23
Neigh   | 0          | 0          | 0          |   0.0 |  0.00
Comm    | 0.000312   | 0.000312   | 0.000312   |   0.0 |  1.82
Output  | 0.000458   | 0.000458   | 0.000458   |   0.0 |  2.66
Modify  | 0          | 0          | 0          |   0.0 |  0.00
Other   |            | 0.000222   |            |       |  1.29

Nlocal:             96 ave          96 max          96 min
Histogram: 1 0 0 0 0 0 0 0 0 0
Nghost:           1310 ave        1310 max        1310 min
Histogram: 1 0 0 0 0 0 0 0 0 0
Neighs:           6144 ave        6144 max        6144 min
Histogram: 1 0 0 0 0 0 0 0 0 0

Total # of neighbors = 6144
Ave neighs/atom = 64
Neighbor list builds = 0
Dangerous builds = 0
OMP_NUM_THREADS environment is not set. Defaulting to 1 thread. (src/comm.cpp:98)
  using 1 OpenMP thread(s) per MPI task
Loaded 1 plugins from F:\Lammps\LAMMPS 64-bit 2Aug2023\plugins

The 'box' command has been removed and will be ignored

Reading restart file ...
  restart file = 2 Aug 2023, LAMMPS = 2 Aug 2023
  restoring atom style atomic from restart
  triclinic box = (-0.014214012 -0.036929088 -0.015669905) to (6.354214 16.508732 20.722023) with tilt (0 0 0)
  1 by 1 by 1 MPI processor grid
  pair style eam/alloy stores no restart info
  96 atoms
  read_restart CPU = 0.000 seconds
Changing box ...
  triclinic box = (-0.014214012 -0.036929088 -0.015669905) to (6.354214 16.492187 20.722023) with tilt (0 0 0)
  triclinic box = (-0.014214012 -0.036929088 -0.015669905) to (6.354214 16.492187 20.722023) with tilt (0 0 0)
Neighbor list info ...
  update: every = 1 steps, delay = 0 steps, check = yes
  max neighbors/atom: 2000, page size: 100000
  master list distance cutoff = 8.5
  ghost atom cutoff = 8.5
  1 neighbor lists, perpetual/occasional/extra = 1 0 0
  (1) pair eam/alloy, perpetual
      attributes: half, newton on
      pair build: half/nsq/newton
      stencil: none
      bin: none
Setting up cg style minimization ...
  Unit style    : metal
  Current step  : 53
Per MPI rank memory allocation (min/avg/max) = 4.465 | 4.465 | 4.465 Mbytes
   Step          Temp          PotEng         Press           Pxx            Pyy            Pzz            Pxy            Pxz            Pyz             Lx             Ly             Lz           Volume    
        53   0             -146.75339      368.54044      254.1868       692.72679      158.70772     -0.0087792368   3.2370673e-06  0.00022707087  6.368428       16.529116      20.737693      2182.9426    
        54   0             -146.75339      368.55193      261.78301      685.29052      158.58225     -0.00035235727 -1.1881622e-05 -0.0029517776   6.368428       16.529116      20.737693      2182.9426    
        55   0             -146.7534       368.54112      262.16858      684.88382      158.57097      5.0308899e-05 -7.3855368e-07  0.00044266364  6.368428       16.529116      20.737693      2182.9426    
        56   0             -146.7534       368.54085      262.17771      684.87417      158.57068      4.6251821e-05  1.0567887e-07 -0.00013784779  6.368428       16.529116      20.737693      2182.9426    
        57   0             -146.7534       368.54085      262.17758      684.87431      158.57067      3.1866186e-05 -1.3541566e-08  4.4047548e-05  6.368428       16.529116      20.737693      2182.9426    
        58   0             -146.7534       368.54089      262.17642      684.87554      158.5707       1.8656813e-05 -1.632896e-08  -2.5450462e-05  6.368428       16.529116      20.737693      2182.9426    
        59   0             -146.7534       368.54091      262.17542      684.8766       158.57073      8.8688424e-06 -2.4902255e-08  1.6960585e-05  6.368428       16.529116      20.737693      2182.9426    
        60   0             -146.7534       368.54094      262.17439      684.87768      158.57076     -5.048198e-07  -3.0909653e-08 -1.8116202e-05  6.368428       16.529116      20.737693      2182.9426    
        61   0             -146.7534       368.54096      262.17367      684.87844      158.57078     -6.7423595e-06 -2.2511332e-08  1.1247488e-05  6.368428       16.529116      20.737693      2182.9426    
        62   0             -146.7534       368.54097      262.17362      684.87849      158.57078     -6.8014483e-06 -1.1072891e-08 -4.8527754e-06  6.368428       16.529116      20.737693      2182.9426    
        63   0             -146.7534       368.54095      262.17403      684.87806      158.57077     -2.8114501e-06 -2.0135596e-09  3.2192843e-06  6.368428       16.529116      20.737693      2182.9426    
        64   0             -146.7534       368.54094      262.17459      684.87747      158.57075      2.3106061e-06  2.7886625e-09 -3.5683307e-06  6.368428       16.529116      20.737693      2182.9426    
        65   0             -146.7534       368.54093      262.17488      684.87716      158.57075      4.8159289e-06  2.8416635e-09  2.6468081e-06  6.368428       16.529116      20.737693      2182.9426    
        66   0             -146.7534       368.54093      262.17476      684.87729      158.57075      3.5114714e-06  1.111639e-09  -2.3153174e-06  6.368428       16.529116      20.737693      2182.9426    
        67   0             -146.7534       368.54094      262.17449      684.87758      158.57076      8.8761377e-07 -2.7170193e-10  1.6058163e-06  6.368428       16.529116      20.737693      2182.9426    
        68   0             -146.7534       368.54095      262.17425      684.87783      158.57076     -1.2357241e-06 -9.5001712e-10 -8.1667712e-07  6.368428       16.529116      20.737693      2182.9426    
        69   0             -146.7534       368.54095      262.17418      684.87791      158.57077     -1.7789376e-06 -8.8744292e-10  3.860753e-07   6.368428       16.529116      20.737693      2182.9426    
        70   0             -146.7534       368.54095      262.17425      684.87783      158.57076     -9.6913439e-07 -4.7327318e-10 -2.8259206e-07  6.368428       16.529116      20.737693      2182.9426    
        71   0             -146.7534       368.54094      262.17436      684.87771      158.57076      3.5073065e-08 -1.7424191e-10  2.961237e-07   6.368428       16.529116      20.737693      2182.9426    
        72   0             -146.7534       368.54094      262.17443      684.87764      158.57076      6.3455132e-07 -3.123299e-11  -2.8154969e-07  6.368428       16.529116      20.737693      2182.9426    
        73   0             -146.7534       368.54094      262.17444      684.87763      158.57076      6.3324652e-07  5.4964256e-12  1.4033402e-07  6.368428       16.529116      20.737693      2182.9426    
        74   0             -146.7534       368.54094      262.1744       684.87767      158.57076      2.7248807e-07  8.7150876e-12 -9.5971337e-08  6.368428       16.529116      20.737693      2182.9426    
        75   0             -146.7534       368.54094      262.17436      684.87771      158.57076     -7.4332792e-08  1.2777885e-11  4.6447899e-08  6.368428       16.529116      20.737693      2182.9426    
        76   0             -146.7534       368.54094      262.17435      684.87772      158.57076     -1.4865111e-07  3.6706498e-12 -4.4968945e-08  6.368428       16.529116      20.737693      2182.9426    
        77   0             -146.7534       368.54094      262.17436      684.87772      158.57076     -1.1393783e-07 -2.5438634e-12  2.9856178e-08  6.368428       16.529116      20.737693      2182.9426    
        78   0             -146.7534       368.54094      262.17436      684.87771      158.57076     -3.5482642e-08  8.7940263e-12 -2.8567882e-08  6.368428       16.529116      20.737693      2182.9426    
        79   0             -146.7534       368.54094      262.17437      684.8777       158.57076      1.5873625e-08  2.4267286e-12  1.842499e-08   6.368428       16.529116      20.737693      2182.9426    
        80   0             -146.7534       368.54094      262.17437      684.8777       158.57076      4.462356e-08  -7.9295202e-12 -1.3041081e-08  6.368428       16.529116      20.737693      2182.9426    
        81   0             -146.7534       368.54094      262.17437      684.8777       158.57076      3.4291691e-08 -8.5979528e-12  1.3324003e-08  6.368428       16.529116      20.737693      2182.9426    
        82   0             -146.7534       368.54094      262.17437      684.8777       158.57076      9.5305359e-09  4.4205675e-12 -1.2171351e-08  6.368428       16.529116      20.737693      2182.9426    
        83   0             -146.7534       368.54094      262.17437      684.8777       158.57076      2.1084401e-10 -9.8838897e-12  9.5193822e-09  6.368428       16.529116      20.737693      2182.9426    
        84   0             -146.7534       368.54094      262.17437      684.8777       158.57076     -3.0490482e-09 -6.157219e-12  -8.4843199e-09  6.368428       16.529116      20.737693      2182.9426    
        85   0             -146.7534       368.54094      262.17437      684.8777       158.57076     -3.2754431e-09 -5.859289e-12   5.4370312e-09  6.368428       16.529116      20.737693      2182.9426    
        86   0             -146.7534       368.54094      262.17437      684.8777       158.57076     -1.2415136e-09  1.0683462e-11 -3.9518174e-09  6.368428       16.529116      20.737693      2182.9426    
        87   0             -146.7534       368.54094      262.17437      684.8777       158.57076      1.6815396e-09  1.4361751e-12  3.1630261e-09  6.368428       16.529116      20.737693      2182.9426    
        88   0             -146.7534       368.54094      262.17437      684.8777       158.57076      3.0238362e-09  1.1056511e-11 -2.1716741e-09  6.368428       16.529116      20.737693      2182.9426    
        89   0             -146.7534       368.54094      262.17437      684.8777       158.57076      2.0650913e-09 -7.5310071e-12  1.8576694e-09  6.368428       16.529116      20.737693      2182.9426    
        90   0             -146.7534       368.54094      262.17437      684.8777       158.57076      5.9740302e-10 -1.3432312e-12 -9.6815057e-10  6.368428       16.529116      20.737693      2182.9426    
        91   0             -146.7534       368.54094      262.17437      684.8777       158.57076     -1.5705365e-10  5.436585e-13   4.6808878e-10  6.368428       16.529116      20.737693      2182.9426    
        92   0             -146.7534       368.54094      262.17437      684.8777       158.57076     -3.3901245e-10 -2.1453503e-12 -1.101489e-10   6.368428       16.529116      20.737693      2182.9426    
        93   0             -146.7534       368.54094      262.17437      684.8777       158.57076     -2.2326667e-10  3.7979703e-12  4.9432121e-11  6.368428       16.529116      20.737693      2182.9426    
Loop time of 0.016486 on 1 procs for 40 steps with 96 atoms

94.8% CPU use with 1 MPI tasks x 1 OpenMP threads

Minimization stats:
  Stopping criterion = force tolerance
  Energy initial, next-to-last, final = 
     -146.753389617833  -146.753395090475  -146.753395090477
  Force two-norm initial, final = 0.0040290685 9.9964317e-11
  Force max component initial, final = 0.00046854703 1.6175275e-11
  Final line search alpha, max atom move = 1 1.6175275e-11
  Iterations, force evaluations = 40 80

MPI task timing breakdown:
Section |  min time  |  avg time  |  max time  |%varavg| %total
---------------------------------------------------------------
Pair    | 0.015572   | 0.015572   | 0.015572   |   0.0 | 94.46
Neigh   | 0          | 0          | 0          |   0.0 |  0.00
Comm    | 0.000292   | 0.000292   | 0.000292   |   0.0 |  1.77
Output  | 0.000419   | 0.000419   | 0.000419   |   0.0 |  2.54
Modify  | 0          | 0          | 0          |   0.0 |  0.00
Other   |            | 0.000203   |            |       |  1.23

Nlocal:             96 ave          96 max          96 min
Histogram: 1 0 0 0 0 0 0 0 0 0
Nghost:           1310 ave        1310 max        1310 min
Histogram: 1 0 0 0 0 0 0 0 0 0
Neighs:           6144 ave        6144 max        6144 min
Histogram: 1 0 0 0 0 0 0 0 0 0

Total # of neighbors = 6144
Ave neighs/atom = 64
Neighbor list builds = 0
Dangerous builds = 0
OMP_NUM_THREADS environment is not set. Defaulting to 1 thread. (src/comm.cpp:98)
  using 1 OpenMP thread(s) per MPI task
Loaded 1 plugins from F:\Lammps\LAMMPS 64-bit 2Aug2023\plugins

The 'box' command has been removed and will be ignored

Reading restart file ...
  restart file = 2 Aug 2023, LAMMPS = 2 Aug 2023
  restoring atom style atomic from restart
  triclinic box = (-0.014214012 -0.036929088 -0.015669905) to (6.354214 16.508732 20.722023) with tilt (0 0 0)
  1 by 1 by 1 MPI processor grid
  pair style eam/alloy stores no restart info
  96 atoms
  read_restart CPU = 0.000 seconds
Changing box ...
  triclinic box = (-0.014214012 -0.036929088 -0.015669905) to (6.354214 16.525278 20.722023) with tilt (0 0 0)
  triclinic box = (-0.014214012 -0.036929088 -0.015669905) to (6.354214 16.525278 20.722023) with tilt (0 0 0)
Neighbor list info ...
  update: every = 1 steps, delay = 0 steps, check = yes
  max neighbors/atom: 2000, page size: 100000
  master list distance cutoff = 8.5
  ghost atom cutoff = 8.5
  1 neighbor lists, perpetual/occasional/extra = 1 0 0
  (1) pair eam/alloy, perpetual
      attributes: half, newton on
      pair build: half/nsq/newton
      stencil: none
      bin: none
Setting up cg style minimization ...
  Unit style    : metal
  Current step  : 53
Per MPI rank memory allocation (min/avg/max) = 4.465 | 4.465 | 4.465 Mbytes
   Step          Temp          PotEng         Press           Pxx            Pyy            Pzz            Pxy            Pxz            Pyz             Lx             Ly             Lz           Volume    
        53   0             -146.75339     -370.39749     -252.07641     -698.18735     -160.92871     -0.008423733   -7.6846428e-06 -0.00068863349  6.368428       16.562207      20.737693      2187.3128    
        54   0             -146.75339     -370.54596     -258.9488      -691.54989     -161.1392      -0.00056084641 -8.1720152e-07  0.0033977367   6.368428       16.562207      20.737693      2187.3128    
        55   0             -146.75339     -370.55798     -259.32278     -691.19971     -161.15144     -0.00010372636 -5.0164932e-07 -0.00048091696  6.368428       16.562207      20.737693      2187.3128    
        56   0             -146.75339     -370.55815     -259.32821     -691.19462     -161.15162     -6.7829318e-05  4.3137456e-08  0.00015629399  6.368428       16.562207      20.737693      2187.3128    
        57   0             -146.75339     -370.55806     -259.32543     -691.1972      -161.15154     -4.3676266e-05  6.8174678e-08 -5.3335266e-05  6.368428       16.562207      20.737693      2187.3128    
        58   0             -146.75339     -370.55795     -259.32215     -691.20027     -161.15144     -2.4657108e-05  5.8956895e-08  3.3292879e-05  6.368428       16.562207      20.737693      2187.3128    
        59   0             -146.75339     -370.55787     -259.31957     -691.20267     -161.15136     -1.0595223e-05  1.8531458e-08 -2.3654226e-05  6.368428       16.562207      20.737693      2187.3128    
        60   0             -146.75339     -370.55779     -259.31733     -691.20476     -161.15129      1.4198999e-06 -1.6593662e-08  2.3461511e-05  6.368428       16.562207      20.737693      2187.3128    
        61   0             -146.75339     -370.55776     -259.31616     -691.20585     -161.15125      7.6953272e-06 -2.3966415e-08 -1.3404863e-05  6.368428       16.562207      20.737693      2187.3128    
        62   0             -146.75339     -370.55776     -259.31628     -691.20574     -161.15125      7.1412229e-06 -1.7848982e-08  6.1242125e-06  6.368428       16.562207      20.737693      2187.3128    
        63   0             -146.75339     -370.55779     -259.31721     -691.20488     -161.15128      2.2489761e-06 -6.7654543e-09 -3.8535897e-06  6.368428       16.562207      20.737693      2187.3128    
        64   0             -146.75339     -370.55782     -259.3181      -691.20405     -161.15131     -2.5388872e-06  1.3097974e-10  3.4036826e-06  6.368428       16.562207      20.737693      2187.3128    
        65   0             -146.75339     -370.55783     -259.3184      -691.20376     -161.15132     -4.2629149e-06  2.5761331e-09 -2.4143645e-06  6.368428       16.562207      20.737693      2187.3128    
        66   0             -146.75339     -370.55782     -259.3181      -691.20405     -161.15131     -2.7761303e-06  2.1222403e-09  2.1527677e-06  6.368428       16.562207      20.737693      2187.3128    
        67   0             -146.75339     -370.5578      -259.31765     -691.20447     -161.1513      -3.9008526e-07  4.9097326e-10 -1.3201461e-06  6.368428       16.562207      20.737693      2187.3128    
        68   0             -146.75339     -370.5578      -259.3174      -691.2047      -161.15129      9.8055652e-07 -4.3002855e-10  6.9791022e-07  6.368428       16.562207      20.737693      2187.3128    
        69   0             -146.75339     -370.55779     -259.31738     -691.20472     -161.15129      1.208352e-06  -6.562329e-10  -4.7639893e-07  6.368428       16.562207      20.737693      2187.3128    
        70   0             -146.75339     -370.5578      -259.31752     -691.20459     -161.15129      5.7020015e-07 -4.3760423e-10  4.5411206e-07  6.368428       16.562207      20.737693      2187.3128    
        71   0             -146.75339     -370.5578      -259.31763     -691.20448     -161.15129     -3.9943033e-08 -1.6347054e-10 -4.5126053e-07  6.368428       16.562207      20.737693      2187.3128    
        72   0             -146.75339     -370.5578      -259.31768     -691.20444     -161.1513      -3.4156942e-07 -4.6661215e-11  3.4974145e-07  6.368428       16.562207      20.737693      2187.3128    
        73   0             -146.75339     -370.5578      -259.31767     -691.20445     -161.1513      -3.3315282e-07  1.0855257e-11 -2.0195377e-07  6.368428       16.562207      20.737693      2187.3128    
        74   0             -146.75339     -370.5578      -259.31762     -691.20449     -161.15129     -1.2709856e-07  2.8793179e-12  1.7035175e-07  6.368428       16.562207      20.737693      2187.3128    
        75   0             -146.75339     -370.5578      -259.3176      -691.20452     -161.15129      1.95856e-08    4.8564665e-12 -1.0486837e-07  6.368428       16.562207      20.737693      2187.3128    
        76   0             -146.75339     -370.5578      -259.31759     -691.20452     -161.15129      5.1390651e-08  8.5083464e-12  1.2346616e-07  6.368428       16.562207      20.737693      2187.3128    
        77   0             -146.75339     -370.5578      -259.3176      -691.20451     -161.15129      4.307953e-08  -3.6404439e-12 -9.0256752e-08  6.368428       16.562207      20.737693      2187.3128    
        78   0             -146.75339     -370.5578      -259.3176      -691.20451     -161.15129      1.7303646e-08  3.8691629e-12  6.9089406e-08  6.368428       16.562207      20.737693      2187.3128    
        79   0             -146.75339     -370.5578      -259.31761     -691.20451     -161.15129      5.1818701e-10  6.6468279e-12 -3.6815536e-08  6.368428       16.562207      20.737693      2187.3128    
        80   0             -146.75339     -370.5578      -259.31761     -691.20451     -161.15129     -1.0957131e-08 -6.9924477e-12  2.7608572e-08  6.368428       16.562207      20.737693      2187.3128    
        81   0             -146.75339     -370.5578      -259.31761     -691.20451     -161.15129     -1.153876e-08  -3.3634398e-12 -3.0491467e-08  6.368428       16.562207      20.737693      2187.3128    
        82   0             -146.75339     -370.5578      -259.31761     -691.20451     -161.15129     -6.143439e-09  -2.0673655e-12  2.0072295e-08  6.368428       16.562207      20.737693      2187.3128    
        83   0             -146.75339     -370.5578      -259.31761     -691.20451     -161.15129     -2.4757954e-09 -9.9187801e-12 -8.5553352e-09  6.368428       16.562207      20.737693      2187.3128    
        84   0             -146.75339     -370.5578      -259.31761     -691.20451     -161.15129      1.1118157e-10  2.9720762e-12  4.0377548e-09  6.368428       16.562207      20.737693      2187.3128    
        85   0             -146.75339     -370.5578      -259.31761     -691.20451     -161.15129      1.5216611e-09  9.2008566e-12 -1.6489182e-09  6.368428       16.562207      20.737693      2187.3128    
        86   0             -146.75339     -370.5578      -259.31761     -691.20451     -161.15129      1.3283465e-09 -1.4485536e-12  1.2589501e-09  6.368428       16.562207      20.737693      2187.3128    
        87   0             -146.75339     -370.5578      -259.31761     -691.20451     -161.15129      2.7820234e-10  2.6785535e-12 -1.3389724e-09  6.368428       16.562207      20.737693      2187.3128    
        88   0             -146.75339     -370.5578      -259.31761     -691.20451     -161.15129     -7.6409677e-10 -2.3049791e-12  1.1639732e-09  6.368428       16.562207      20.737693      2187.3128    
        89   0             -146.75339     -370.5578      -259.31761     -691.20451     -161.15129     -1.1848571e-09 -2.2452581e-12 -9.7852601e-10  6.368428       16.562207      20.737693      2187.3128    
        90   0             -146.75339     -370.5578      -259.31761     -691.20451     -161.15129     -8.381204e-10   3.2452683e-12  5.2677616e-10  6.368428       16.562207      20.737693      2187.3128    
        91   0             -146.75339     -370.5578      -259.31761     -691.20451     -161.15129     -2.3037212e-10 -1.0176724e-11 -4.718476e-10   6.368428       16.562207      20.737693      2187.3128    
        92   0             -146.75339     -370.5578      -259.31761     -691.20451     -161.15129      1.2310037e-10  1.1029338e-12  3.6547651e-10  6.368428       16.562207      20.737693      2187.3128    
        93   0             -146.75339     -370.5578      -259.31761     -691.20451     -161.15129      2.6461389e-10 -1.6099275e-12 -3.8244364e-10  6.368428       16.562207      20.737693      2187.3128    
        94   0             -146.75339     -370.5578      -259.31761     -691.20451     -161.15129      1.8119372e-10 -8.2122823e-12  3.7931404e-10  6.368428       16.562207      20.737693      2187.3128    
Loop time of 0.021913 on 1 procs for 41 steps with 96 atoms

71.3% CPU use with 1 MPI tasks x 1 OpenMP threads

Minimization stats:
  Stopping criterion = force tolerance
  Energy initial, next-to-last, final = 
     -146.753387558166  -146.753392389787  -146.753392389785
  Force two-norm initial, final = 0.0038368265 7.4746146e-11
  Force max component initial, final = 0.00044635288 1.4945795e-11
  Final line search alpha, max atom move = 1 1.4945795e-11
  Iterations, force evaluations = 41 82

MPI task timing breakdown:
Section |  min time  |  avg time  |  max time  |%varavg| %total
---------------------------------------------------------------
Pair    | 0.020258   | 0.020258   | 0.020258   |   0.0 | 92.45
Neigh   | 0          | 0          | 0          |   0.0 |  0.00
Comm    | 0.00055    | 0.00055    | 0.00055    |   0.0 |  2.51
Output  | 0.000824   | 0.000824   | 0.000824   |   0.0 |  3.76
Modify  | 0          | 0          | 0          |   0.0 |  0.00
Other   |            | 0.000281   |            |       |  1.28

Nlocal:             96 ave          96 max          96 min
Histogram: 1 0 0 0 0 0 0 0 0 0
Nghost:           1310 ave        1310 max        1310 min
Histogram: 1 0 0 0 0 0 0 0 0 0
Neighs:           6144 ave        6144 max        6144 min
Histogram: 1 0 0 0 0 0 0 0 0 0

Total # of neighbors = 6144
Ave neighs/atom = 64
Neighbor list builds = 0
Dangerous builds = 0
OMP_NUM_THREADS environment is not set. Defaulting to 1 thread. (src/comm.cpp:98)
  using 1 OpenMP thread(s) per MPI task
Loaded 1 plugins from F:\Lammps\LAMMPS 64-bit 2Aug2023\plugins

The 'box' command has been removed and will be ignored

Reading restart file ...
  restart file = 2 Aug 2023, LAMMPS = 2 Aug 2023
  restoring atom style atomic from restart
  triclinic box = (-0.014214012 -0.036929088 -0.015669905) to (6.354214 16.508732 20.722023) with tilt (0 0 0)
  1 by 1 by 1 MPI processor grid
  pair style eam/alloy stores no restart info
  96 atoms
  read_restart CPU = 0.000 seconds
Changing box ...
  triclinic box = (-0.014214012 -0.036929088 -0.015669905) to (6.354214 16.508732 20.701286) with tilt (0 0 0)
Neighbor list info ...
  update: every = 1 steps, delay = 0 steps, check = yes
  max neighbors/atom: 2000, page size: 100000
  master list distance cutoff = 8.5
  ghost atom cutoff = 8.5
  1 neighbor lists, perpetual/occasional/extra = 1 0 0
  (1) pair eam/alloy, perpetual
      attributes: half, newton on
      pair build: half/nsq/newton
      stencil: none
      bin: none
Setting up cg style minimization ...
  Unit style    : metal
  Current step  : 53
Per MPI rank memory allocation (min/avg/max) = 4.465 | 4.465 | 4.465 Mbytes
   Step          Temp          PotEng         Press           Pxx            Pyy            Pzz            Pxy            Pxz            Pyz             Lx             Ly             Lz           Volume    
        53   0             -146.75339      339.68434      160.82547      160.80534      697.4222      -0.0086890092   1.3237926e-06 -9.2753745e-06  6.368428       16.545661      20.716955      2182.9426    
        54   0             -146.75339      339.6843       160.82323      160.80764      697.42202     -0.0067264848  -1.4923158e-06 -2.4916989e-06  6.368428       16.545661      20.716955      2182.9426    
        55   0             -146.75339      339.6843       160.8201       160.81082      697.42199     -0.004005997    1.5229537e-07 -1.0933304e-07  6.368428       16.545661      20.716955      2182.9426    
        56   0             -146.75339      339.68431      160.81785      160.81308      697.42199     -0.002059691    2.9531444e-08 -2.1635667e-08  6.368428       16.545661      20.716955      2182.9426    
        57   0             -146.75339      339.68431      160.8163       160.81464      697.42198     -0.00071680287 -5.7538427e-08 -6.1012923e-08  6.368428       16.545661      20.716955      2182.9426    
        58   0             -146.75339      339.68431      160.81548      160.81546      697.42198     -9.8164699e-06 -4.7832073e-08 -3.0403489e-08  6.368428       16.545661      20.716955      2182.9426    
        59   0             -146.75339      339.68431      160.81519      160.81575      697.42198      0.00024052767 -4.6560747e-08 -1.4723489e-08  6.368428       16.545661      20.716955      2182.9426    
        60   0             -146.75339      339.68431      160.81521      160.81573      697.42198      0.00022329429 -3.9100823e-08 -7.6490671e-09  6.368428       16.545661      20.716955      2182.9426    
        61   0             -146.75339      339.68431      160.81535      160.81559      697.42198      0.00010315407 -2.4890824e-08 -1.2165069e-09  6.368428       16.545661      20.716955      2182.9426    
        62   0             -146.75339      339.68431      160.81551      160.81543      697.42198     -3.3277331e-05 -9.5359216e-09  4.8256774e-10  6.368428       16.545661      20.716955      2182.9426    
        63   0             -146.75339      339.68431      160.81558      160.81536      697.42198     -9.5505156e-05  2.789592e-12   7.4385609e-10  6.368428       16.545661      20.716955      2182.9426    
        64   0             -146.75339      339.68431      160.81556      160.81538      697.42198     -7.5381271e-05  2.5893028e-09 -3.0864089e-11  6.368428       16.545661      20.716955      2182.9426    
        65   0             -146.75339      339.68431      160.81549      160.81545      697.42198     -1.8231142e-05  1.4230981e-09 -6.6670034e-10  6.368428       16.545661      20.716955      2182.9426    
        66   0             -146.75339      339.68431      160.81544      160.8155       697.42198      2.6817371e-05 -2.799141e-11  -3.5395763e-10  6.368428       16.545661      20.716955      2182.9426    
        67   0             -146.75339      339.68431      160.81542      160.81552      697.42198      4.1712137e-05 -1.1024885e-09 -1.9041602e-10  6.368428       16.545661      20.716955      2182.9426    
        68   0             -146.75339      339.68431      160.81544      160.8155       697.42198      2.7934433e-05 -1.2675035e-09 -9.2267539e-11  6.368428       16.545661      20.716955      2182.9426    
        69   0             -146.75339      339.68431      160.81547      160.81547      697.42198      3.8279815e-06 -9.0107513e-10 -1.0821715e-11  6.368428       16.545661      20.716955      2182.9426    
        70   0             -146.75339      339.68431      160.81549      160.81545      697.42198     -1.4285118e-05 -4.3443152e-10  4.7571113e-13  6.368428       16.545661      20.716955      2182.9426    
        71   0             -146.75339      339.68431      160.81549      160.81545      697.42198     -1.5739977e-05 -1.534301e-10  -2.6382397e-12  6.368428       16.545661      20.716955      2182.9426    
        72   0             -146.75339      339.68431      160.81548      160.81546      697.42198     -8.3110026e-06 -3.8831477e-11 -1.9835777e-11  6.368428       16.545661      20.716955      2182.9426    
        73   0             -146.75339      339.68431      160.81547      160.81547      697.42198     -1.2911063e-06  9.3911594e-12 -1.3121899e-11  6.368428       16.545661      20.716955      2182.9426    
        74   0             -146.75339      339.68431      160.81547      160.81547      697.42198      2.6441471e-06  9.6126971e-12  5.2365526e-13  6.368428       16.545661      20.716955      2182.9426    
        75   0             -146.75339      339.68431      160.81547      160.81547      697.42198      3.7352799e-06  5.8019948e-12 -8.1512369e-12  6.368428       16.545661      20.716955      2182.9426    
        76   0             -146.75339      339.68431      160.81547      160.81547      697.42198      2.2116536e-06 -4.7745184e-13  3.7471117e-12  6.368428       16.545661      20.716955      2182.9426    
        77   0             -146.75339      339.68431      160.81547      160.81547      697.42198      6.8587711e-07  4.3696393e-12 -6.8174155e-13  6.368428       16.545661      20.716955      2182.9426    
        78   0             -146.75339      339.68431      160.81547      160.81547      697.42198     -4.180451e-07  -1.087317e-12   1.7841838e-11  6.368428       16.545661      20.716955      2182.9426    
        79   0             -146.75339      339.68431      160.81547      160.81547      697.42198     -7.6194376e-07  4.8560035e-12  1.5679936e-11  6.368428       16.545661      20.716955      2182.9426    
        80   0             -146.75339      339.68431      160.81547      160.81547      697.42198     -6.0155559e-07 -7.2190719e-12  1.1438443e-11  6.368428       16.545661      20.716955      2182.9426    
        81   0             -146.75339      339.68431      160.81547      160.81547      697.42198     -2.1485319e-07 -6.7148827e-12  1.2370897e-11  6.368428       16.545661      20.716955      2182.9426    
        82   0             -146.75339      339.68431      160.81547      160.81547      697.42198      1.3133473e-07  9.0601262e-12  4.8207019e-12  6.368428       16.545661      20.716955      2182.9426    
        83   0             -146.75339      339.68431      160.81547      160.81547      697.42198      1.6889736e-07 -1.7621156e-12 -1.4743216e-11  6.368428       16.545661      20.716955      2182.9426    
        84   0             -146.75339      339.68431      160.81547      160.81547      697.42198      9.1350799e-08  1.1875182e-11  1.3183072e-11  6.368428       16.545661      20.716955      2182.9426    
        85   0             -146.75339      339.68431      160.81547      160.81547      697.42198      3.016876e-08   7.5284607e-12  1.8822843e-12  6.368428       16.545661      20.716955      2182.9426    
        86   0             -146.75339      339.68431      160.81547      160.81547      697.42198     -2.4029438e-09 -3.7992435e-12  6.5822406e-12  6.368428       16.545661      20.716955      2182.9426    
        87   0             -146.75339      339.68431      160.81547      160.81547      697.42198     -1.4334113e-08 -5.5180701e-12  1.7284821e-11  6.368428       16.545661      20.716955      2182.9426    
        88   0             -146.75339      339.68431      160.81547      160.81547      697.42198     -1.2622149e-08 -2.5616883e-12 -6.7894945e-12  6.368428       16.545661      20.716955      2182.9426    
        89   0             -146.75339      339.68431      160.81547      160.81547      697.42198     -5.4790629e-09  9.0906831e-13  2.1758386e-11  6.368428       16.545661      20.716955      2182.9426    
Loop time of 0.023243 on 1 procs for 36 steps with 96 atoms

67.2% CPU use with 1 MPI tasks x 1 OpenMP threads

Minimization stats:
  Stopping criterion = force tolerance
  Energy initial, next-to-last, final = 
     -146.753387294999  -146.753387316711  -146.753387316713
  Force two-norm initial, final = 0.0004999732 8.0163837e-11
  Force max component initial, final = 6.8408155e-05 1.4918532e-11
  Final line search alpha, max atom move = 1 1.4918532e-11
  Iterations, force evaluations = 36 72

MPI task timing breakdown:
Section |  min time  |  avg time  |  max time  |%varavg| %total
---------------------------------------------------------------
Pair    | 0.021827   | 0.021827   | 0.021827   |   0.0 | 93.91
Neigh   | 0          | 0          | 0          |   0.0 |  0.00
Comm    | 0.000351   | 0.000351   | 0.000351   |   0.0 |  1.51
Output  | 0.000805   | 0.000805   | 0.000805   |   0.0 |  3.46
Modify  | 0          | 0          | 0          |   0.0 |  0.00
Other   |            | 0.00026    |            |       |  1.12

Nlocal:             96 ave          96 max          96 min
Histogram: 1 0 0 0 0 0 0 0 0 0
Nghost:           1310 ave        1310 max        1310 min
Histogram: 1 0 0 0 0 0 0 0 0 0
Neighs:           6144 ave        6144 max        6144 min
Histogram: 1 0 0 0 0 0 0 0 0 0

Total # of neighbors = 6144
Ave neighs/atom = 64
Neighbor list builds = 0
Dangerous builds = 0
OMP_NUM_THREADS environment is not set. Defaulting to 1 thread. (src/comm.cpp:98)
  using 1 OpenMP thread(s) per MPI task
Loaded 1 plugins from F:\Lammps\LAMMPS 64-bit 2Aug2023\plugins

The 'box' command has been removed and will be ignored

Reading restart file ...
  restart file = 2 Aug 2023, LAMMPS = 2 Aug 2023
  restoring atom style atomic from restart
  triclinic box = (-0.014214012 -0.036929088 -0.015669905) to (6.354214 16.508732 20.722023) with tilt (0 0 0)
  1 by 1 by 1 MPI processor grid
  pair style eam/alloy stores no restart info
  96 atoms
  read_restart CPU = 0.000 seconds
Changing box ...
  triclinic box = (-0.014214012 -0.036929088 -0.015669905) to (6.354214 16.508732 20.742761) with tilt (0 0 0)
Neighbor list info ...
  update: every = 1 steps, delay = 0 steps, check = yes
  max neighbors/atom: 2000, page size: 100000
  master list distance cutoff = 8.5
  ghost atom cutoff = 8.5
  1 neighbor lists, perpetual/occasional/extra = 1 0 0
  (1) pair eam/alloy, perpetual
      attributes: half, newton on
      pair build: half/nsq/newton
      stencil: none
      bin: none
Setting up cg style minimization ...
  Unit style    : metal
  Current step  : 53
Per MPI rank memory allocation (min/avg/max) = 4.465 | 4.465 | 4.465 Mbytes
   Step          Temp          PotEng         Press           Pxx            Pyy            Pzz            Pxy            Pxz            Pyz             Lx             Ly             Lz           Volume    
        53   0             -146.75339     -336.51819     -158.54726     -158.56572     -692.44157     -0.0079672209   2.4351181e-06 -1.1283602e-05  6.368428       16.545661      20.758431      2187.3128    
        54   0             -146.75339     -336.51821     -158.54945     -158.56368     -692.44151     -0.0061466042  -1.8554382e-06 -1.2376162e-06  6.368428       16.545661      20.758431      2187.3128    
        55   0             -146.75339     -336.5182      -158.55236     -158.56076     -692.44148     -0.0036268998   1.2502905e-07  4.5342482e-07  6.368428       16.545661      20.758431      2187.3128    
        56   0             -146.75339     -336.5182      -158.55442     -158.5587      -692.44147     -0.0018438547  -4.4454881e-08  2.6611013e-07  6.368428       16.545661      20.758431      2187.3128    
        57   0             -146.75339     -336.5182      -158.55583     -158.55729     -692.44147     -0.00063170822 -1.9441369e-08  9.1155178e-08  6.368428       16.545661      20.758431      2187.3128    
        58   0             -146.75339     -336.5182      -158.55657     -158.55655     -692.44147      1.0136098e-05  1.8159335e-08  6.4036611e-08  6.368428       16.545661      20.758431      2187.3128    
        59   0             -146.75339     -336.5182      -158.55682     -158.5563      -692.44147      0.00022380833  2.3884354e-08  2.7747715e-08  6.368428       16.545661      20.758431      2187.3128    
        60   0             -146.75339     -336.5182      -158.55679     -158.55634     -692.44147      0.0001935605   1.9096147e-08  4.428154e-09   6.368428       16.545661      20.758431      2187.3128    
        61   0             -146.75339     -336.5182      -158.55665     -158.55647     -692.44147      8.0485813e-05  3.3957209e-09 -4.9991726e-09  6.368428       16.545661      20.758431      2187.3128    
        62   0             -146.75339     -336.5182      -158.55652     -158.5566      -692.44147     -3.6326039e-05 -8.7628267e-09 -8.6283721e-09  6.368428       16.545661      20.758431      2187.3128    
        63   0             -146.75339     -336.5182      -158.55646     -158.55666     -692.44147     -8.6231349e-05 -1.2776686e-08 -6.815592e-09   6.368428       16.545661      20.758431      2187.3128    
        64   0             -146.75339     -336.5182      -158.55649     -158.55663     -692.44147     -6.1255137e-05 -8.5158013e-09 -2.7247833e-09  6.368428       16.545661      20.758431      2187.3128    
        65   0             -146.75339     -336.5182      -158.55655     -158.55657     -692.44147     -9.3430927e-06 -3.2332136e-09 -1.2146575e-10  6.368428       16.545661      20.758431      2187.3128    
        66   0             -146.75339     -336.5182      -158.5566      -158.55653     -692.44147      2.949836e-05   1.0128312e-10  7.1922839e-10  6.368428       16.545661      20.758431      2187.3128    
        67   0             -146.75339     -336.5182      -158.5566      -158.55652     -692.44147      3.5903277e-05  8.7570402e-10  7.3680188e-10  6.368428       16.545661      20.758431      2187.3128    
        68   0             -146.75339     -336.5182      -158.55659     -158.55654     -692.44147      2.1299992e-05  7.7245137e-10  4.9607737e-10  6.368428       16.545661      20.758431      2187.3128    
        69   0             -146.75339     -336.5182      -158.55656     -158.55656     -692.44147      5.6967759e-07  3.3561843e-10  1.8818011e-10  6.368428       16.545661      20.758431      2187.3128    
        70   0             -146.75339     -336.5182      -158.55655     -158.55658     -692.44147     -1.3566967e-05  1.9658397e-11 -1.3773747e-11  6.368428       16.545661      20.758431      2187.3128    
        71   0             -146.75339     -336.5182      -158.55655     -158.55658     -692.44147     -1.3063198e-05 -4.9752733e-11 -3.3408955e-11  6.368428       16.545661      20.758431      2187.3128    
        72   0             -146.75339     -336.5182      -158.55656     -158.55657     -692.44147     -5.3145991e-06 -4.9065306e-11 -3.8882099e-11  6.368428       16.545661      20.758431      2187.3128    
        73   0             -146.75339     -336.5182      -158.55656     -158.55656     -692.44147     -2.725357e-07  -3.0032074e-11 -6.9480143e-12  6.368428       16.545661      20.758431      2187.3128    
        74   0             -146.75339     -336.5182      -158.55656     -158.55656     -692.44147      2.5276761e-06  2.414256e-12   3.6684183e-12  6.368428       16.545661      20.758431      2187.3128    
        75   0             -146.75339     -336.5182      -158.55656     -158.55656     -692.44147      3.0236435e-06  1.2308894e-11  6.3643441e-12  6.368428       16.545661      20.758431      2187.3128    
        76   0             -146.75339     -336.5182      -158.55656     -158.55656     -692.44147      1.6436704e-06 -1.4833697e-11  3.0853239e-14  6.368428       16.545661      20.758431      2187.3128    
        77   0             -146.75339     -336.5182      -158.55656     -158.55656     -692.44147      4.4557135e-07  4.0419728e-12  3.1980454e-12  6.368428       16.545661      20.758431      2187.3128    
        78   0             -146.75339     -336.5182      -158.55656     -158.55656     -692.44147     -4.570609e-07  -8.7980571e-12  5.3927649e-13  6.368428       16.545661      20.758431      2187.3128    
        79   0             -146.75339     -336.5182      -158.55656     -158.55656     -692.44147     -6.9895158e-07  5.2402062e-12  2.4574644e-11  6.368428       16.545661      20.758431      2187.3128    
        80   0             -146.75339     -336.5182      -158.55656     -158.55656     -692.44147     -4.9908538e-07  8.1703505e-13  2.2757311e-11  6.368428       16.545661      20.758431      2187.3128    
        81   0             -146.75339     -336.5182      -158.55656     -158.55656     -692.44147     -1.7727622e-07  2.8627993e-12  5.6146938e-12  6.368428       16.545661      20.758431      2187.3128    
        82   0             -146.75339     -336.5182      -158.55656     -158.55656     -692.44147      6.9879419e-08  3.1512394e-13  3.5773675e-12  6.368428       16.545661      20.758431      2187.3128    
        83   0             -146.75339     -336.5182      -158.55656     -158.55656     -692.44147      9.9235075e-08  2.4409399e-12 -1.0668828e-11  6.368428       16.545661      20.758431      2187.3128    
        84   0             -146.75339     -336.5182      -158.55656     -158.55656     -692.44147      5.9001766e-08  7.1004539e-12 -7.7821636e-12  6.368428       16.545661      20.758431      2187.3128    
        85   0             -146.75339     -336.5182      -158.55656     -158.55656     -692.44147      2.2020251e-08  3.4943179e-13  1.8735153e-11  6.368428       16.545661      20.758431      2187.3128    
        86   0             -146.75339     -336.5182      -158.55656     -158.55656     -692.44147      7.9088485e-10 -4.2541732e-12  5.9570972e-12  6.368428       16.545661      20.758431      2187.3128    
        87   0             -146.75339     -336.5182      -158.55656     -158.55656     -692.44147     -7.8911698e-09 -1.8449998e-12  1.0336331e-12  6.368428       16.545661      20.758431      2187.3128    
        88   0             -146.75339     -336.5182      -158.55656     -158.55656     -692.44147     -7.5595349e-09  2.1957023e-12 -1.0120746e-11  6.368428       16.545661      20.758431      2187.3128    
Loop time of 0.01417 on 1 procs for 35 steps with 96 atoms

110.3% CPU use with 1 MPI tasks x 1 OpenMP threads

Minimization stats:
  Stopping criterion = force tolerance
  Energy initial, next-to-last, final = 
     -146.753389900512  -146.753389922149  -146.753389922149
  Force two-norm initial, final = 0.00049744942 9.451927e-11
  Force max component initial, final = 6.7123701e-05 1.673893e-11
  Final line search alpha, max atom move = 1 1.673893e-11
  Iterations, force evaluations = 35 70

MPI task timing breakdown:
Section |  min time  |  avg time  |  max time  |%varavg| %total
---------------------------------------------------------------
Pair    | 0.013389   | 0.013389   | 0.013389   |   0.0 | 94.49
Neigh   | 0          | 0          | 0          |   0.0 |  0.00
Comm    | 0.000261   | 0.000261   | 0.000261   |   0.0 |  1.84
[...]
        69   0             -146.75372     -0.73268175    -1.7621944      0.16224392    -0.59809474     213.49408     -1.2365365e-07 -1.6503727e-08  6.368428       16.545661      20.737693      2185.1277    
        70   0             -146.75372     -0.73268188    -1.7621006      0.16214913    -0.59809419     213.49409      8.3912973e-09 -4.0029162e-11  6.368428       16.545661      20.737693      2185.1277    
        71   0             -146.75372     -0.73268201    -1.7620155      0.16206316    -0.59809372     213.4941       4.0177486e-08  4.5639267e-09  6.368428       16.545661      20.737693      2185.1277    
        72   0             -146.75372     -0.73268207    -1.7619814      0.16202875    -0.59809354     213.4941      -6.4717017e-08 -7.3811232e-09  6.368428       16.545661      20.737693      2185.1277    
        73   0             -146.75372     -0.73268206    -1.7619872      0.1620346     -0.59809357     213.4941       5.9572112e-08  6.7665544e-09  6.368428       16.545661      20.737693      2185.1277    
        74   0             -146.75372     -0.73268201    -1.7620151      0.16206275    -0.59809372     213.4941      -5.5455416e-08 -6.2779546e-09  6.368428       16.545661      20.737693      2185.1277    
        75   0             -146.75372     -0.73268199    -1.7620332      0.16208108    -0.59809382     213.4941       3.0421748e-08  3.4473243e-09  6.368428       16.545661      20.737693      2185.1277    
        76   0             -146.75372     -0.73268198    -1.7620361      0.16208396    -0.59809384     213.4941      -3.6674819e-08 -4.1858894e-09  6.368428       16.545661      20.737693      2185.1277    
        77   0             -146.75372     -0.73268199    -1.7620337      0.16208157    -0.59809383     213.4941       3.4851307e-08  3.9566212e-09  6.368428       16.545661      20.737693      2185.1277    
        78   0             -146.75372     -0.73268199    -1.7620297      0.1620775     -0.59809381     213.4941      -4.1018811e-08 -4.6577516e-09  6.368428       16.545661      20.737693      2185.1277    
        79   0             -146.75372     -0.732682      -1.7620279      0.16207571    -0.5980938      213.4941       3.5935943e-08  4.0877388e-09  6.368428       16.545661      20.737693      2185.1277    
        80   0             -146.75372     -0.732682      -1.7620271      0.16207486    -0.59809379     213.4941      -2.6242045e-08 -2.9969952e-09  6.368428       16.545661      20.737693      2185.1277    
        81   0             -146.75372     -0.732682      -1.7620274      0.16207524    -0.59809379     213.4941       2.2222148e-08  2.5118574e-09  6.368428       16.545661      20.737693      2185.1277    
        82   0             -146.75372     -0.73268199    -1.7620283      0.16207608    -0.5980938      213.4941      -1.2885021e-08 -1.461447e-09   6.368428       16.545661      20.737693      2185.1277    
        83   0             -146.75372     -0.73268199    -1.7620286      0.16207639    -0.5980938      213.4941       7.6819155e-09  8.5981631e-10  6.368428       16.545661      20.737693      2185.1277    
        84   0             -146.75372     -0.73268199    -1.7620287      0.16207651    -0.5980938      213.4941      -5.5160956e-09 -6.3257118e-10  6.368428       16.545661      20.737693      2185.1277    
        85   0             -146.75372     -0.73268199    -1.7620287      0.16207654    -0.5980938      213.4941       2.7137375e-09  3.1577648e-10  6.368428       16.545661      20.737693      2185.1277    
        86   0             -146.75372     -0.732682      -1.7620287      0.16207649    -0.5980938      213.4941      -1.4940313e-09 -1.7001916e-10  6.368428       16.545661      20.737693      2185.1277    
        87   0             -146.75372     -0.732682      -1.7620286      0.16207641    -0.5980938      213.4941       8.2212069e-10  1.0879093e-10  6.368428       16.545661      20.737693      2185.1277    
        88   0             -146.75372     -0.732682      -1.7620285      0.16207636    -0.5980938      213.4941      -3.6767603e-10 -4.8110787e-11  6.368428       16.545661      20.737693      2185.1277    
        89   0             -146.75372     -0.73268199    -1.7620286      0.16207637    -0.5980938      213.4941       1.1986812e-10  1.7166457e-11  6.368428       16.545661      20.737693      2185.1277    
        90   0             -146.75372     -0.73268199    -1.7620286      0.16207641    -0.5980938      213.4941       2.8735481e-11  8.1671431e-12  6.368428       16.545661      20.737693      2185.1277    
        91   0             -146.75372     -0.73268199    -1.7620286      0.16207643    -0.5980938      213.4941      -6.7768521e-11  2.1675565e-11  6.368428       16.545661      20.737693      2185.1277    
        92   0             -146.75372     -0.73268199    -1.7620286      0.16207644    -0.5980938      213.4941       7.1838703e-11 -1.5315081e-11  6.368428       16.545661      20.737693      2185.1277    
        93   0             -146.75372     -0.73268199    -1.7620286      0.16207644    -0.5980938      213.4941      -4.8832002e-11 -1.0099227e-11  6.368428       16.545661      20.737693      2185.1277    
        94   0             -146.75372     -0.732682      -1.7620286      0.16207644    -0.5980938      213.4941       5.2631262e-11 -7.2591627e-12  6.368428       16.545661      20.737693      2185.1277    
Loop time of 0.01594 on 1 procs for 41 steps with 96 atoms

98.0% CPU use with 1 MPI tasks x 1 OpenMP threads

Minimization stats:
  Stopping criterion = force tolerance
  Energy initial, next-to-last, final = 
     -146.753712065193  -146.753717248764  -146.753717248765
  Force two-norm initial, final = 0.0039437005 6.6136953e-11
  Force max component initial, final = 0.00045952671 1.4032268e-11
  Final line search alpha, max atom move = 1 1.4032268e-11
  Iterations, force evaluations = 41 82

MPI task timing breakdown:
Section |  min time  |  avg time  |  max time  |%varavg| %total
---------------------------------------------------------------
Pair    | 0.01499    | 0.01499    | 0.01499    |   0.0 | 94.04
Neigh   | 0          | 0          | 0          |   0.0 |  0.00
Comm    | 0.000295   | 0.000295   | 0.000295   |   0.0 |  1.85
Output  | 0.000457   | 0.000457   | 0.000457   |   0.0 |  2.87
Modify  | 0          | 0          | 0          |   0.0 |  0.00
Other   |            | 0.000198   |            |       |  1.24

Nlocal:             96 ave          96 max          96 min
Histogram: 1 0 0 0 0 0 0 0 0 0
Nghost:           1310 ave        1310 max        1310 min
Histogram: 1 0 0 0 0 0 0 0 0 0
Neighs:           6144 ave        6144 max        6144 min
Histogram: 1 0 0 0 0 0 0 0 0 0

Total # of neighbors = 6144
Ave neighs/atom = 64
Neighbor list builds = 0
Dangerous builds = 0
OMP_NUM_THREADS environment is not set. Defaulting to 1 thread. (src/comm.cpp:98)
  using 1 OpenMP thread(s) per MPI task
Loaded 1 plugins from F:\Lammps\LAMMPS 64-bit 2Aug2023\plugins

The 'box' command has been removed and will be ignored

Reading restart file ...
  restart file = 2 Aug 2023, LAMMPS = 2 Aug 2023
  restoring atom style atomic from restart
  triclinic box = (-0.014214012 -0.036929088 -0.015669905) to (6.354214 16.508732 20.722023) with tilt (0 0 0)
  1 by 1 by 1 MPI processor grid
  pair style eam/alloy stores no restart info
  96 atoms
  read_restart CPU = 0.000 seconds
Changing box ...
  triclinic box = (-0.014214012 -0.036929088 -0.015669905) to (6.354214 16.508732 20.722023) with tilt (0.016545661 0 0)
Neighbor list info ...
  update: every = 1 steps, delay = 0 steps, check = yes
  max neighbors/atom: 2000, page size: 100000
  master list distance cutoff = 8.5
  ghost atom cutoff = 8.5
  1 neighbor lists, perpetual/occasional/extra = 1 0 0
  (1) pair eam/alloy, perpetual
      attributes: half, newton on
      pair build: half/nsq/newton
      stencil: none
      bin: none
Setting up cg style minimization ...
  Unit style    : metal
  Current step  : 53
Per MPI rank memory allocation (min/avg/max) = 4.465 | 4.465 | 4.465 Mbytes
   Step          Temp          PotEng         Press           Pxx            Pyy            Pzz            Pxy            Pxz            Pyz             Lx             Ly             Lz           Volume    
        53   0             -146.75371     -0.51934061    -1.5324382      0.2521925     -0.27777617    -221.10086      0.0013882668  -0.00016430514  6.368428       16.545661      20.737693      2185.1277    
        54   0             -146.75372     -0.72591361    -1.7177189      0.12676908    -0.58679099    -213.88336     -0.0030072272   0.00031096216  6.368428       16.545661      20.737693      2185.1277    
        55   0             -146.75372     -0.73253048    -1.7315367      0.13154495    -0.59759972    -213.51081      0.00042655231 -4.3439933e-05  6.368428       16.545661      20.737693      2185.1277    
        56   0             -146.75372     -0.73269879    -1.7398148      0.13966004    -0.59794164    -213.49829     -0.00012976816  1.3258044e-05  6.368428       16.545661      20.737693      2185.1277    
        57   0             -146.75372     -0.7327067     -1.7475692      0.14746837    -0.59801925    -213.49578      4.3678759e-05 -4.3170801e-06  6.368428       16.545661      20.737693      2185.1277    
        58   0             -146.75372     -0.73269801    -1.7542539      0.15421842    -0.59805858    -213.49481     -2.7734997e-05  2.8205892e-06  6.368428       16.545661      20.737693      2185.1277    
        59   0             -146.75372     -0.73268968    -1.7590184      0.15903228    -0.59808293    -213.49431      1.9921054e-05 -2.0426467e-06  6.368428       16.545661      20.737693      2185.1277    
        60   0             -146.75372     -0.73268335    -1.7623088      0.16235756    -0.59809881    -213.49402     -1.665906e-05   1.7018406e-06  6.368428       16.545661      20.737693      2185.1277    
        61   0             -146.75372     -0.73268025    -1.7637035      0.16376752    -0.5981048     -213.49392      9.2488296e-06 -9.8265526e-07  6.368428       16.545661      20.737693      2185.1277    
        62   0             -146.75372     -0.73267975    -1.7636195      0.16368342    -0.59810313    -213.49395     -4.7862069e-06  5.2021491e-07  6.368428       16.545661      20.737693      2185.1277    
        63   0             -146.75372     -0.73268143    -1.7625007      0.16255324    -0.5980968     -213.49407      2.4684377e-06 -1.9769157e-07  6.368428       16.545661      20.737693      2185.1277    
        64   0             -146.75372     -0.73268289    -1.7616113      0.16165464    -0.59809199    -213.49414     -2.0220059e-06  2.7353808e-07  6.368428       16.545661      20.737693      2185.1277    
        65   0             -146.75372     -0.7326834     -1.7613304      0.1613708     -0.59809056    -213.49416      1.3350537e-06 -9.7226751e-08  6.368428       16.545661      20.737693      2185.1277    
        66   0             -146.75372     -0.73268288    -1.7615815      0.16162459    -0.59809169    -213.49414     -1.3801008e-06  1.5826793e-07  6.368428       16.545661      20.737693      2185.1277    
        67   0             -146.75372     -0.73268216    -1.7619649      0.16201195    -0.59809358    -213.4941       7.3729865e-07 -7.9242881e-08  6.368428       16.545661      20.737693      2185.1277    
        68   0             -146.75372     -0.73268182    -1.7621561      0.1622052     -0.59809455    -213.49408     -2.9117255e-07  3.3275057e-08  6.368428       16.545661      20.737693      2185.1277    
        69   0             -146.75372     -0.73268175    -1.7621882      0.16223769    -0.59809469    -213.49408      1.1373375e-07 -1.2960775e-08  6.368428       16.545661      20.737693      2185.1277    
        70   0             -146.75372     -0.73268188    -1.7620994      0.16214798    -0.59809418    -213.49409     -1.2052509e-08  1.278723e-09   6.368428       16.545661      20.737693      2185.1277    
        71   0             -146.75372     -0.73268201    -1.7620178      0.16206552    -0.59809373    -213.4941      -3.5745618e-08  4.0116363e-09  6.368428       16.545661      20.737693      2185.1277    
        72   0             -146.75372     -0.73268206    -1.7619848      0.16203217    -0.59809355    -213.4941       5.8245003e-08 -6.622234e-09   6.368428       16.545661      20.737693      2185.1277    
        73   0             -146.75372     -0.73268206    -1.7619892      0.16203663    -0.59809358    -213.4941      -5.1314505e-08  5.8360651e-09  6.368428       16.545661      20.737693      2185.1277    
        74   0             -146.75372     -0.73268201    -1.7620153      0.16206297    -0.59809372    -213.4941       4.8330904e-08 -5.4606965e-09  6.368428       16.545661      20.737693      2185.1277    
        75   0             -146.75372     -0.73268199    -1.7620329      0.16208079    -0.59809382    -213.4941      -2.8333574e-08  3.2005059e-09  6.368428       16.545661      20.737693      2185.1277    
        76   0             -146.75372     -0.73268198    -1.7620356      0.16208353    -0.59809384    -213.4941       3.6027603e-08 -4.0749482e-09  6.368428       16.545661      20.737693      2185.1277    
        77   0             -146.75372     -0.73268199    -1.7620334      0.1620813     -0.59809383    -213.4941      -3.4561223e-08  3.9114613e-09  6.368428       16.545661      20.737693      2185.1277    
        78   0             -146.75372     -0.73268199    -1.7620297      0.1620775     -0.59809381    -213.4941       3.923595e-08  -4.4712223e-09  6.368428       16.545661      20.737693      2185.1277    
        79   0             -146.75372     -0.732682      -1.762028       0.16207577    -0.5980938     -213.4941      -3.2959991e-08  3.7246658e-09  6.368428       16.545661      20.737693      2185.1277    
        80   0             -146.75372     -0.732682      -1.7620271      0.16207495    -0.59809379    -213.4941       2.3677348e-08 -2.6840269e-09  6.368428       16.545661      20.737693      2185.1277    
        81   0             -146.75372     -0.732682      -1.7620275      0.16207531    -0.59809379    -213.4941      -2.0480174e-08  2.3151916e-09  6.368428       16.545661      20.737693      2185.1277    
        82   0             -146.75372     -0.73268199    -1.7620283      0.1620761     -0.5980938     -213.4941       1.2232686e-08 -1.3939381e-09  6.368428       16.545661      20.737693      2185.1277    
        83   0             -146.75372     -0.73268199    -1.7620286      0.16207639    -0.5980938     -213.4941      -7.3539288e-09  8.4252275e-10  6.368428       16.545661      20.737693      2185.1277    
        84   0             -146.75372     -0.73268199    -1.7620287      0.16207649    -0.5980938     -213.4941       4.9071202e-09 -5.4974557e-10  6.368428       16.545661      20.737693      2185.1277    
        85   0             -146.75372     -0.73268199    -1.7620287      0.16207651    -0.5980938     -213.4941      -2.0076831e-09  2.3969605e-10  6.368428       16.545661      20.737693      2185.1277    
        86   0             -146.75372     -0.732682      -1.7620287      0.16207648    -0.5980938     -213.4941       8.6284031e-10 -9.8929159e-11  6.368428       16.545661      20.737693      2185.1277    
        87   0             -146.75372     -0.732682      -1.7620286      0.16207643    -0.5980938     -213.4941      -4.0097266e-10  6.3368373e-11  6.368428       16.545661      20.737693      2185.1277    
        88   0             -146.75372     -0.732682      -1.7620286      0.1620764     -0.5980938     -213.4941       1.6883749e-10 -2.6723593e-11  6.368428       16.545661      20.737693      2185.1277    
        89   0             -146.75372     -0.73268199    -1.7620286      0.16207639    -0.5980938     -213.4941      -7.773665e-11   1.0148693e-11  6.368428       16.545661      20.737693      2185.1277    
        90   0             -146.75372     -0.73268199    -1.7620286      0.16207641    -0.5980938     -213.4941      -2.3144069e-11  4.309404e-12   6.368428       16.545661      20.737693      2185.1277    
        91   0             -146.75372     -0.73268199    -1.7620286      0.16207644    -0.5980938     -213.4941       7.7538229e-11 -8.3335674e-12  6.368428       16.545661      20.737693      2185.1277    
        92   0             -146.75372     -0.73268199    -1.7620286      0.16207644    -0.5980938     -213.4941      -7.3593969e-11  5.4894784e-12  6.368428       16.545661      20.737693      2185.1277    
        93   0             -146.75372     -0.732682      -1.7620286      0.16207644    -0.5980938     -213.4941       6.0889915e-11  5.5890567e-12  6.368428       16.545661      20.737693      2185.1277    
        94   0             -146.75372     -0.73268199    -1.7620286      0.16207644    -0.5980938     -213.4941      -4.6553972e-11  6.9622362e-13  6.368428       16.545661      20.737693      2185.1277    
Loop time of 0.015881 on 1 procs for 41 steps with 96 atoms

98.4% CPU use with 1 MPI tasks x 1 OpenMP threads

Minimization stats:
  Stopping criterion = force tolerance
  Energy initial, next-to-last, final = 
     -146.753712041896  -146.753717248763  -146.753717248763
  Force two-norm initial, final = 0.003952426 6.8635884e-11
  Force max component initial, final = 0.00046017487 1.3981566e-11
  Final line search alpha, max atom move = 1 1.3981566e-11
  Iterations, force evaluations = 41 82

MPI task timing breakdown:
Section |  min time  |  avg time  |  max time  |%varavg| %total
---------------------------------------------------------------
Pair    | 0.014988   | 0.014988   | 0.014988   |   0.0 | 94.38
Neigh   | 0          | 0          | 0          |   0.0 |  0.00
Comm    | 0.000299   | 0.000299   | 0.000299   |   0.0 |  1.88
Output  | 0.000406   | 0.000406   | 0.000406   |   0.0 |  2.56
Modify  | 0          | 0          | 0          |   0.0 |  0.00
Other   |            | 0.000188   |            |       |  1.18

Nlocal:             96 ave          96 max          96 min
Histogram: 1 0 0 0 0 0 0 0 0 0
Nghost:           1310 ave        1310 max        1310 min
Histogram: 1 0 0 0 0 0 0 0 0 0
Neighs:           6144 ave        6144 max        6144 min
Histogram: 1 0 0 0 0 0 0 0 0 0

Total # of neighbors = 6144
Ave neighs/atom = 64
Neighbor list builds = 0
Dangerous builds = 0
=========================================
Components of the Elastic Constant Tensor
=========================================
Elastic Constant C11all = 68.7894886277124 GPa
Elastic Constant C22all = 68.8041106016358 GPa
Elastic Constant C33all = 69.49317251241 GPa
Elastic Constant C12all = 26.0706094385565 GPa
Elastic Constant C13all = 15.9859062401062 GPa
Elastic Constant C23all = 15.9773521780106 GPa
Elastic Constant C44all = 12.7449612138049 GPa
Elastic Constant C55all = 12.7370898705446 GPa
Elastic Constant C66all = 21.3494096588022 GPa
Elastic Constant C14all = 4.35908992691248e-10 GPa
Elastic Constant C15all = -2.83400502083268e-13 GPa
Elastic Constant C16all = 1.26234702008904e-11 GPa
Elastic Constant C24all = -4.27939544081804e-10 GPa
Elastic Constant C25all = 8.19531476186212e-13 GPa
Elastic Constant C26all = -1.16289348544528e-11 GPa
Elastic Constant C34all = 3.99807825993915e-12 GPa
Elastic Constant C35all = -5.28966366932467e-13 GPa
Elastic Constant C36all = 5.18926234700089e-11 GPa
Elastic Constant C45all = -5.55105528476307e-13 GPa
Elastic Constant C46all = 3.58509669791212e-11 GPa
Elastic Constant C56all = 7.54869210092509e-12 GPa
=========================================
Average properties for a cubic crystal
=========================================
Bulk Modulus = 35.9060563839005 GPa
Shear Modulus 1 = 15.6104869143839 GPa
Shear Modulus 2 = 24.8421506475141 GPa
Poisson Ratio = 0.218896076686353
Total wall time: 0:00:00
