LAMMPS (2 Aug 2023 - Update 3)
OMP_NUM_THREADS environment is not set. Defaulting to 1 thread. (src/comm.cpp:98)
  using 1 OpenMP thread(s) per MPI task
Loaded 1 plugins from F:\Lammps\LAMMPS 64-bit 2Aug2023\plugins
Lattice spacing in x,y,z = 3.17 5.4906011 5.1765883
Created triclinic box = (0 0 0) to (6.34 16.471803 20.706353) with tilt (0 0 0)
  1 by 1 by 1 MPI processor grid
Created 96 atoms
  using lattice units in triclinic box = (0 0 0) to (6.34 16.471803 20.706353) with tilt (0 0 0)
  create_atoms CPU = 0.000 seconds
Neighbor list info ...
  update: every = 1 steps, delay = 0 steps, check = yes
  max neighbors/atom: 2000, page size: 100000
  master list distance cutoff = 8.5
  ghost atom cutoff = 8.5
  1 neighbor lists, perpetual/occasional/extra = 1 0 0
  (1) pair eam/alloy, perpetual
      attributes: half, newton on
      pair build: half/nsq/newton
      stencil: none
      bin: none
Setting up cg style minimization ...
  Unit style    : metal
  Current step  : 0
WARNING: Energy due to 3 extra global DOFs will be included in minimizer energies
 (src/min.cpp:228)
Per MPI rank memory allocation (min/avg/max) = 4.472 | 4.472 | 4.472 Mbytes
   Step          Temp          PotEng         Press           Pxx            Pyy            Pzz            Pxy            Pxz            Pyz             Lx             Ly             Lz           Volume    
         0   0             -146.72439      3772.2495      4425.4155      4425.4155      2465.9176      4.1001267e-12  1.1177022e-11 -7.5627415e-12  6.34           16.471803      20.706353      2162.39      
         1   0             -146.72575      3681.9194      4325.0865      4325.0865      2395.5851     -6.0779438e-12  6.9594384e-12 -9.5088338e-13  6.340634       16.47345       20.707507      2162.943     
         2   0             -146.72708      3591.118       4223.9692      4223.9692      2325.4156      8.1241232e-12  1.1633785e-11 -1.4285302e-11  6.341268       16.475098      20.708654      2163.4954    
         3   0             -146.72838      3500.0778      4122.6305      4122.6305      2254.9723      9.5039822e-14 -1.3151456e-12 -8.1682874e-13  6.341902       16.476745      20.709794      2164.0472    
         4   0             -146.72964      3409.5005      4021.7214      4021.7214      2185.0587     -2.6707095e-13  3.800625e-13   1.1386467e-11  6.342536       16.478392      20.710927      2164.5982    
         5   0             -146.73087      3320.0138      3921.937       3921.937       2116.1675      6.9626182e-12  6.4080733e-12 -1.6338533e-11  6.34317        16.480039      20.712052      2165.1486    
         6   0             -146.73207      3228.9018      3820.073       3820.073       2046.5595     -1.6991458e-12  6.242179e-12  -2.4486179e-12  6.343804       16.481686      20.71317       2165.6983    
         7   0             -146.73323      3138.4425      3719.2597      3719.2597      1976.808      -6.2534274e-12 -5.5323716e-12  1.3045722e-11  6.344438       16.483333      20.714279      2166.2473    
         8   0             -146.73437      3048.225       3618.3232      3618.3232      1908.0288     -3.6787634e-12  1.4468777e-12 -1.0825929e-12  6.345072       16.484981      20.71538       2166.7954    
         9   0             -146.73546      2958.4291      3517.496       3517.496       1840.2953      1.3590547e-11 -8.4738947e-12  1.3582853e-11  6.345706       16.486628      20.716472      2167.3427    
        10   0             -146.73653      2868.5093      3416.5005      3416.5005      1772.527      -1.73589e-11    5.8461287e-13 -8.9435513e-12  6.34634        16.488275      20.717556      2167.8892    
        11   0             -146.73756      2778.6041      3315.3793      3315.3793      1705.0537      4.0246108e-12  8.6131797e-13 -2.9428364e-11  6.346974       16.489922      20.718631      2168.4348    
        12   0             -146.73856      2688.9234      3214.6771      3214.6771      1637.4158      3.3008896e-12  2.7268219e-12 -2.2224623e-11  6.347608       16.491569      20.719696      2168.9796    
        13   0             -146.73953      2599.2424      3113.8114      3113.8114      1570.1044      1.1627083e-11  4.2019426e-12  1.5762409e-11  6.348242       16.493217      20.720752      2169.5234    
        14   0             -146.74046      2509.9394      3013.2832      3013.2832      1503.252      -7.2234844e-13 -8.1968618e-13 -2.4805753e-11  6.348876       16.494864      20.721796      2170.0662    
        15   0             -146.74136      2420.0874      2911.7719      2911.7719      1436.7184      1.9411471e-12  9.1679506e-12 -1.2025893e-11  6.34951        16.496511      20.72283       2170.6079    
        16   0             -146.74223      2331.7803      2812.0096      2812.0096      1371.3218      6.2674734e-12  8.3259083e-12  1.0189765e-11  6.350144       16.498158      20.723852      2171.1485    
        17   0             -146.74306      2242.8217      2711.3282      2711.3282      1305.8086     -2.1910231e-12  2.7438981e-12  2.2278814e-11  6.350778       16.499805      20.724863      2171.6879    
        18   0             -146.74387      2153.3007      2609.5744      2609.5744      1240.7532     -4.6624474e-12  5.4250211e-13  2.188433e-11   6.351412       16.501452      20.725861      2172.2261    
        19   0             -146.74464      2064.8459      2509.0414      2509.0414      1176.455       7.009851e-12  -5.1371463e-12 -1.456207e-11   6.352046       16.5031        20.726846      2172.7631    
        20   0             -146.74538      1976.6234      2408.4834      2408.4834      1112.9034      6.343119e-12  -2.2814767e-12 -2.3264923e-11  6.35268        16.504747      20.727818      2173.2988    
        21   0             -146.74608      1888.8568      2308.4282      2308.4282      1049.7139     -1.0294807e-11 -6.4438433e-13 -7.0779993e-12  6.353314       16.506394      20.728776      2173.833     
        22   0             -146.74676      1800.8585      2207.9779      2207.9779      986.61968     -5.4043441e-12  2.1474215e-13  1.3631014e-11  6.353948       16.508041      20.729718      2174.3658    
        23   0             -146.7474       1713.1586      2107.6256      2107.6256      924.22464      1.5795029e-12  8.2808888e-13 -3.6599484e-12  6.354582       16.509688      20.730645      2174.8969    
        24   0             -146.74801      1625.0375      2006.4409      2006.4409      862.2308      -9.9039858e-12 -6.8479572e-12  1.5147272e-11  6.355216       16.511336      20.731554      2175.4263    
        25   0             -146.74859      1537.8585      1906.2713      1906.2713      801.03281     -2.8917941e-12  3.9545028e-12 -2.3338719e-11  6.35585        16.512983      20.732444      2175.9538    
        26   0             -146.74914      1451.0089      1806.3575      1806.3575      740.31157     -2.6459145e-12 -7.0489613e-13  1.8705287e-11  6.356484       16.51463       20.733316      2176.4794    
        27   0             -146.74965      1363.9125      1705.8477      1705.8477      680.0421       2.9312544e-12 -1.021343e-14   1.375749e-11   6.357118       16.516277      20.734165      2177.0028    
        28   0             -146.75014      1277.3107      1605.5771      1605.5771      620.77791     -3.5432121e-12  1.9400873e-12 -1.0343729e-11  6.357752       16.517924      20.734992      2177.5239    
        29   0             -146.75059      1191.6897      1506.1782      1506.1782      562.71249     -7.4063066e-12 -7.339951e-12  -3.6546627e-12  6.358386       16.519571      20.735794      2178.0424    
        30   0             -146.75101      1105.9171      1406.1446      1406.1446      505.46209     -5.2255427e-12  2.6535959e-12 -8.1138798e-12  6.35902        16.521219      20.736568      2178.5582    
        31   0             -146.7514       1021.3416      1307.3531      1307.3531      449.31863     -5.6732775e-12 -2.3264519e-12 -1.1020035e-12  6.359654       16.522866      20.737314      2179.0709    
        32   0             -146.75176      936.15646      1207.341       1207.341       393.78739     -1.2292629e-12  3.2338285e-12 -1.3924845e-11  6.360288       16.524513      20.738027      2179.5803    
        33   0             -146.75209      851.68804      1107.8117      1107.8117      339.44069      7.761428e-12  -2.0397971e-12 -4.946508e-12   6.360922       16.52616       20.738703      2180.086     
        34   0             -146.75239      768.23487      1009.0818      1009.0818      286.54098      4.2621957e-12  1.1410041e-11  2.7928598e-11  6.361556       16.527807      20.739339      2180.5874    
        35   0             -146.75266      685.66815      910.64299      910.64299      235.71846      3.6597604e-12  4.4855002e-12 -1.7401702e-11  6.36219        16.529454      20.739928      2181.084     
        36   0             -146.7529       603.98749      812.5444       812.5444       186.87366     -5.3711963e-12  3.037223e-12  -2.4257016e-12  6.362824       16.531102      20.740465      2181.5752    
        37   0             -146.75312      523.66613      715.50454      715.50454      139.9893      -2.3283597e-12 -3.1893943e-12  2.2356329e-11  6.363458       16.532749      20.740942      2182.0602    
        38   0             -146.7533       443.54212      617.95239      617.95239      94.721573     -4.2532932e-12 -1.2632535e-12  1.6554734e-11  6.364092       16.534396      20.741348      2182.5377    
        39   0             -146.75346      364.15561      520.27026      520.27026      51.926321     -1.223769e-11   3.3306071e-12  1.5603945e-11  6.364726       16.536043      20.741666      2183.0061    
        40   0             -146.75359      287.36503      424.47945      424.47945      13.1362        1.1781977e-11  2.2912228e-12  3.1995653e-11  6.36536        16.53769       20.741873      2183.4628    
        41   0             -146.75369      213.16605      329.97907      329.97907     -20.459999     -5.9152497e-12  5.0905763e-14 -3.6855773e-12  6.365994       16.539338      20.741937      2183.9045    
        42   0             -146.75377      141.60192      236.24291      236.24291     -47.680063     -5.0539669e-12 -3.2878778e-12  2.9305883e-11  6.366628       16.540985      20.741809      2184.326     
        43   0             -146.75382      75.175928      145.41715      145.41715     -65.306512     -6.813747e-12   2.6257606e-12 -1.7413474e-11  6.367262       16.542632      20.74139       2184.7169    
        44   0             -146.75385      16.609202      57.914826      57.914826     -66.002046      1.2439913e-11  9.1480421e-12 -1.0949158e-11  6.367896       16.544279      20.740457      2185.0538    
        45   0             -146.75386     -13.965589     -8.721328      -8.721328      -24.454112      3.9326532e-12  8.9947359e-12 -7.0513032e-12  6.3684508      16.545721      20.738387      2185.2164    
        46   0             -146.75386      1.7061536      3.8327204      3.8327204     -2.5469799      4.1516023e-12 -6.176526e-12  -9.2088237e-12  6.3683959      16.545578      20.737817      2185.1186    
        47   0             -146.75386     -0.068869903   -0.058756566   -0.058756566   -0.089096575    9.1579065e-12  1.8315813e-13 -4.6501814e-12  6.3684283      16.545662      20.737695      2185.1281    
        48   0             -146.75386     -0.0029012471  -0.0059305395  -0.0059305394   0.0031573377  -4.375445e-13   3.9277251e-12 -1.3716511e-11  6.3684281      16.545661      20.737693      2185.1277    
        49   0             -146.75386      0.0013997657   0.00072980202  0.00072980203  0.002739693   -1.5822831e-12 -6.1663249e-12  7.9063275e-12  6.368428       16.545661      20.737693      2185.1277    
        50   0             -146.75386     -2.9842816e-06 -4.3020426e-06 -4.3020574e-06 -3.4874495e-07 -7.1635194e-12  1.0551945e-11 -1.9893012e-11  6.368428       16.545661      20.737693      2185.1277    
        51   0             -146.75386     -3.12852e-07   -1.638212e-07  -1.6378623e-07 -6.1094859e-07  9.1782592e-12  1.7908798e-12  2.6486706e-11  6.368428       16.545661      20.737693      2185.1277    
        52   0             -146.75386      6.0336954e-08  1.2320656e-07  1.233651e-07  -6.5560794e-08 -8.455802e-12  -3.3578997e-13 -1.4886689e-11  6.368428       16.545661      20.737693      2185.1277    
        53   0             -146.75386     -2.2261349e-11 -3.67283e-11   -8.0485295e-11  5.0429548e-11  6.4003604e-12  4.0498306e-12 -2.3729158e-11  6.368428       16.545661      20.737693      2185.1277    
Loop time of 0.014815 on 1 procs for 53 steps with 96 atoms

105.5% CPU use with 1 MPI tasks x 1 OpenMP threads

Minimization stats:
  Stopping criterion = force tolerance
  Energy initial, next-to-last, final = 
     -146.724386219683  -146.753862724566  -146.753862724546
  Force two-norm initial, final = 9.0788294 2.4545072e-13
  Force max component initial, final = 5.9727965 1.0927983e-13
  Final line search alpha, max atom move = 1 1.0927983e-13
  Iterations, force evaluations = 53 61

MPI task timing breakdown:
Section |  min time  |  avg time  |  max time  |%varavg| %total
---------------------------------------------------------------
Pair    | 0.011447   | 0.011447   | 0.011447   |   0.0 | 77.27
Neigh   | 0          | 0          | 0          |   0.0 |  0.00
Comm    | 0.000241   | 0.000241   | 0.000241   |   0.0 |  1.63
Output  | 0.00056    | 0.00056    | 0.00056    |   0.0 |  3.78
Modify  | 0          | 0          | 0          |   0.0 |  0.00
Other   |            | 0.002567   |            |       | 17.33

Nlocal:             96 ave          96 max          96 min
Histogram: 1 0 0 0 0 0 0 0 0 0
Nghost:           1310 ave        1310 max        1310 min
Histogram: 1 0 0 0 0 0 0 0 0 0
Neighs:           6144 ave        6144 max        6144 min
Histogram: 1 0 0 0 0 0 0 0 0 0

Total # of neighbors = 6144
Ave neighs/atom = 64
Neighbor list builds = 0
Dangerous builds = 0
Displacing atoms ...
System init for write_restart ...
OMP_NUM_THREADS environment is not set. Defaulting to 1 thread. (src/comm.cpp:98)
  using 1 OpenMP thread(s) per MPI task
Loaded 1 plugins from F:\Lammps\LAMMPS 64-bit 2Aug2023\plugins

The 'box' command has been removed and will be ignored

Reading restart file ...
  restart file = 2 Aug 2023, LAMMPS = 2 Aug 2023
  restoring atom style atomic from restart
  triclinic box = (-0.014214012 -0.036929088 -0.015669905) to (6.354214 16.508732 20.722023) with tilt (0 0 0)
  1 by 1 by 1 MPI processor grid
  pair style eam/alloy stores no restart info
  96 atoms
  read_restart CPU = 0.000 seconds
Changing box ...
  triclinic box = (-0.014214012 -0.036929088 -0.015669905) to (6.3535772 16.508732 20.722023) with tilt (0 0 0)
  triclinic box = (-0.014214012 -0.036929088 -0.015669905) to (6.3535772 16.508732 20.722023) with tilt (0 0 0)
  triclinic box = (-0.014214012 -0.036929088 -0.015669905) to (6.3535772 16.508732 20.722023) with tilt (0 0 0)
Neighbor list info ...
  update: every = 1 steps, delay = 0 steps, check = yes
  max neighbors/atom: 2000, page size: 100000
  master list distance cutoff = 8.5
  ghost atom cutoff = 8.5
  1 neighbor lists, perpetual/occasional/extra = 1 0 0
  (1) pair eam/alloy, perpetual
      attributes: half, newton on
      pair build: half/nsq/newton
      stencil: none
      bin: none
Setting up cg style minimization ...
  Unit style    : metal
  Current step  : 53
Per MPI rank memory allocation (min/avg/max) = 4.465 | 4.465 | 4.465 Mbytes
   Step          Temp          PotEng         Press           Pxx            Pyy            Pzz            Pxy            Pxz            Pyz             Lx             Ly             Lz           Volume    
        53   0             -146.75386      37.081207      69.766968      25.339512      16.13714      -0.0082285904   5.2167676e-06  0.00018565132  6.3677912      16.545661      20.737693      2184.9092    
        54   0             -146.75386      37.085919      69.535193      25.583639      16.138926     -0.0055644633   2.3921538e-06 -0.00018157631  6.3677912      16.545661      20.737693      2184.9092    
        55   0             -146.75386      37.095356      69.137083      26.005838      16.143148     -0.0010134562   5.1357295e-08  0.00015148772  6.3677912      16.545661      20.737693      2184.9092    
        56   0             -146.75386      37.097337      69.060225      26.087699      16.144088     -0.0001530217   2.4151361e-07 -5.7318535e-05  6.3677912      16.545661      20.737693      2184.9092    
        57   0             -146.75386      37.097722      69.045592      26.103302      16.144272     -1.8573325e-06  1.2756035e-07  1.9342136e-05  6.3677912      16.545661      20.737693      2184.9092    
        58   0             -146.75386      37.097795      69.042842      26.106236      16.144307      1.6882975e-05  8.5112677e-08 -1.1397265e-05  6.3677912      16.545661      20.737693      2184.9092    
        59   0             -146.75386      37.097809      69.042306      26.106808      16.144314      1.3882584e-05  4.6157378e-08  7.8466153e-06  6.3677912      16.545661      20.737693      2184.9092    
        60   0             -146.75386      37.097807      69.042369      26.10674       16.144313      4.4410928e-06  3.7517508e-09 -8.5418612e-06  6.3677912      16.545661      20.737693      2184.9092    
        61   0             -146.75386      37.097799      69.042664      26.106425      16.144309     -4.4791641e-06 -1.0652363e-08  5.0348443e-06  6.3677912      16.545661      20.737693      2184.9092    
        62   0             -146.75386      37.097793      69.042916      26.106156      16.144306     -6.989727e-06  -8.9019866e-09 -1.8964975e-06  6.3677912      16.545661      20.737693      2184.9092    
        63   0             -146.75386      37.09779       69.043004      26.106062      16.144304     -3.991217e-06  -1.9796862e-09  1.0773306e-06  6.3677912      16.545661      20.737693      2184.9092    
        64   0             -146.75386      37.097791      69.042962      26.106107      16.144305      1.6294051e-06  2.8694889e-09 -1.0419685e-06  6.3677912      16.545661      20.737693      2184.9092    
        65   0             -146.75386      37.097794      69.04287       26.106205      16.144306      4.8912789e-06  3.782097e-09   6.7329494e-07  6.3677912      16.545661      20.737693      2184.9092    
        66   0             -146.75386      37.097795      69.042812      26.106267      16.144307      3.8621657e-06  2.5214319e-09 -5.2912405e-07  6.3677912      16.545661      20.737693      2184.9092    
        67   0             -146.75386      37.097796      69.0428        26.10628       16.144307      1.1661112e-06  1.0911251e-09  3.8695409e-07  6.3677912      16.545661      20.737693      2184.9092    
        68   0             -146.75386      37.097795      69.042821      26.106257      16.144307     -1.2882348e-06  4.793118e-11  -2.0212088e-07  6.3677912      16.545661      20.737693      2184.9092    
        69   0             -146.75386      37.097794      69.042851      26.106225      16.144306     -2.0289392e-06 -1.9997911e-10  7.6971062e-08  6.3677912      16.545661      20.737693      2184.9092    
        70   0             -146.75386      37.097794      69.042868      26.106207      16.144306     -1.1758569e-06 -1.2842071e-10 -3.723982e-08   6.3677912      16.545661      20.737693      2184.9092    
        71   0             -146.75386      37.097794      69.042868      26.106207      16.144306      5.5252394e-08 -1.8541531e-11  3.1403001e-08  6.3677912      16.545661      20.737693      2184.9092    
        72   0             -146.75386      37.097794      69.042859      26.106217      16.144306      8.2727171e-07  3.1524164e-11 -2.7972049e-08  6.3677912      16.545661      20.737693      2184.9092    
        73   0             -146.75386      37.097794      69.042853      26.106224      16.144306      7.7719229e-07  1.8276942e-11  1.4450921e-08  6.3677912      16.545661      20.737693      2184.9092    
        74   0             -146.75386      37.097794      69.04285       26.106227      16.144306      3.4311578e-07  1.1563016e-12 -9.5467698e-09  6.3677912      16.545661      20.737693      2184.9092    
        75   0             -146.75386      37.097794      69.042849      26.106227      16.144306     -1.1188771e-07  1.5277428e-12  3.5587035e-09  6.3677912      16.545661      20.737693      2184.9092    
        76   0             -146.75386      37.097794      69.042851      26.106225      16.144306     -2.1752715e-07 -1.4428964e-11 -2.3456529e-09  6.3677912      16.545661      20.737693      2184.9092    
        77   0             -146.75386      37.097794      69.042852      26.106224      16.144306     -1.5909838e-07  1.7287281e-12  1.3540193e-09  6.3677912      16.545661      20.737693      2184.9092    
        78   0             -146.75386      37.097794      69.042853      26.106223      16.144306     -4.0922219e-08 -5.4571327e-13 -1.6445575e-09  6.3677912      16.545661      20.737693      2184.9092    
        79   0             -146.75386      37.097794      69.042853      26.106223      16.144306      4.1808273e-08  2.8545002e-12  2.4236846e-09  6.3677912      16.545661      20.737693      2184.9092    
        80   0             -146.75386      37.097794      69.042853      26.106224      16.144306      8.0223664e-08  2.7743605e-12 -2.1960441e-09  6.3677912      16.545661      20.737693      2184.9092    
        81   0             -146.75386      37.097794      69.042853      26.106224      16.144306      5.8489769e-08  2.3393163e-12  1.7768485e-09  6.3677912      16.545661      20.737693      2184.9092    
        82   0             -146.75386      37.097794      69.042852      26.106224      16.144306      1.9359334e-08  6.4747799e-12 -9.7092299e-10  6.3677912      16.545661      20.737693      2184.9092    
        83   0             -146.75386      37.097794      69.042852      26.106224      16.144306      5.74617e-10    4.2817503e-12  7.2811552e-10  6.3677912      16.545661      20.737693      2184.9092    
        84   0             -146.75386      37.097794      69.042852      26.106224      16.144306     -6.6129306e-09  7.232927e-12  -8.5664039e-10  6.3677912      16.545661      20.737693      2184.9092    
        85   0             -146.75386      37.097794      69.042852      26.106224      16.144306     -6.0121181e-09  5.5385445e-12  8.8083689e-10  6.3677912      16.545661      20.737693      2184.9092    
        86   0             -146.75386      37.097794      69.042852      26.106224      16.144306     -2.606347e-09  -4.75114e-12   -9.3840722e-10  6.3677912      16.545661      20.737693      2184.9092    
        87   0             -146.75386      37.097794      69.042852      26.106224      16.144306      1.5016923e-09 -1.1346766e-12  1.2532898e-09  6.3677912      16.545661      20.737693      2184.9092    
        88   0             -146.75386      37.097794      69.042852      26.106224      16.144306      4.1223804e-09 -2.9219193e-12 -1.0417234e-09  6.3677912      16.545661      20.737693      2184.9092    
        89   0             -146.75386      37.097794      69.042852      26.106224      16.144306      3.963027e-09  -9.3420007e-12  6.0999645e-10  6.3677912      16.545661      20.737693      2184.9092    
        90   0             -146.75386      37.097794      69.042852      26.106224      16.144306      1.6633786e-09 -6.7266475e-12 -1.7708419e-10  6.3677912      16.545661      20.737693      2184.9092    
        91   0             -146.75386      37.097794      69.042852      26.106224      16.144306     -8.0959554e-10  1.0804868e-11  7.6655522e-11  6.3677912      16.545661      20.737693      2184.9092    
        92   0             -146.75386      37.097794      69.042852      26.106224      16.144306     -1.3432115e-09 -4.6875371e-12 -8.8906125e-11  6.3677912      16.545661      20.737693      2184.9092    
        93   0             -146.75386      37.097794      69.042852      26.106224      16.144306     -9.7095875e-10  4.9355886e-12  3.7116791e-11  6.3677912      16.545661      20.737693      2184.9092    
Loop time of 0.016316 on 1 procs for 40 steps with 96 atoms

95.8% CPU use with 1 MPI tasks x 1 OpenMP threads

Minimization stats:
  Stopping criterion = force tolerance
  Energy initial, next-to-last, final = 
     -146.753857949271  -146.753858021949  -146.753858021949
  Force two-norm initial, final = 0.00063299797 8.7366586e-11
  Force max component initial, final = 9.8008556e-05 1.7630758e-11
  Final line search alpha, max atom move = 1 1.7630758e-11
  Iterations, force evaluations = 40 80

MPI task timing breakdown:
Section |  min time  |  avg time  |  max time  |%varavg| %total
---------------------------------------------------------------
Pair    | 0.01538    | 0.01538    | 0.01538    |   0.0 | 94.26
Neigh   | 0          | 0          | 0          |   0.0 |  0.00
Comm    | 0.000317   | 0.000317   | 0.000317   |   0.0 |  1.94
Output  | 0.000428   | 0.000428   | 0.000428   |   0.0 |  2.62
Modify  | 0          | 0          | 0          |   0.0 |  0.00
Other   |            | 0.000191   |            |       |  1.17

Nlocal:             96 ave          96 max          96 min
Histogram: 1 0 0 0 0 0 0 0 0 0
Nghost:           1310 ave        1310 max        1310 min
Histogram: 1 0 0 0 0 0 0 0 0 0
Neighs:           6144 ave        6144 max        6144 min
Histogram: 1 0 0 0 0 0 0 0 0 0

Total # of neighbors = 6144
Ave neighs/atom = 64
Neighbor list builds = 0
Dangerous builds = 0
OMP_NUM_THREADS environment is not set. Defaulting to 1 thread. (src/comm.cpp:98)
  using 1 OpenMP thread(s) per MPI task
Loaded 1 plugins from F:\Lammps\LAMMPS 64-bit 2Aug2023\plugins

The 'box' command has been removed and will be ignored

Reading restart file ...
  restart file = 2 Aug 2023, LAMMPS = 2 Aug 2023
  restoring atom style atomic from restart
  triclinic box = (-0.014214012 -0.036929088 -0.015669905) to (6.354214 16.508732 20.722023) with tilt (0 0 0)
  1 by 1 by 1 MPI processor grid
  pair style eam/alloy stores no restart info
  96 atoms
  read_restart CPU = 0.000 seconds
Changing box ...
  triclinic box = (-0.014214012 -0.036929088 -0.015669905) to (6.3548509 16.508732 20.722023) with tilt (0 0 0)
  triclinic box = (-0.014214012 -0.036929088 -0.015669905) to (6.3548509 16.508732 20.722023) with tilt (0 0 0)
  triclinic box = (-0.014214012 -0.036929088 -0.015669905) to (6.3548509 16.508732 20.722023) with tilt (0 0 0)
Neighbor list info ...
  update: every = 1 steps, delay = 0 steps, check = yes
  max neighbors/atom: 2000, page size: 100000
  master list distance cutoff = 8.5
  ghost atom cutoff = 8.5
  1 neighbor lists, perpetual/occasional/extra = 1 0 0
  (1) pair eam/alloy, perpetual
      attributes: half, newton on
      pair build: half/nsq/newton
      stencil: none
      bin: none
Setting up cg style minimization ...
  Unit style    : metal
  Current step  : 53
Per MPI rank memory allocation (min/avg/max) = 4.465 | 4.465 | 4.465 Mbytes
   Step          Temp          PotEng         Press           Pxx            Pyy            Pzz            Pxy            Pxz            Pyz             Lx             Ly             Lz           Volume    
        53   0             -146.75386     -36.807164     -69.191949     -25.283746     -15.945796     -0.0085861604   3.6436007e-06 -8.7248274e-05  6.3690649      16.545661      20.737693      2185.3462    
        54   0             -146.75386     -36.806028     -68.947545     -25.525688     -15.944851     -0.0058289328  -2.5194383e-06  0.00011013693  6.3690649      16.545661      20.737693      2185.3462    
        55   0             -146.75386     -36.803054     -68.527929     -25.939218     -15.942015     -0.0011149038  -1.5784998e-06 -0.00010262614  6.3690649      16.545661      20.737693      2185.3462    
        56   0             -146.75386     -36.802448     -68.447194     -26.018757     -15.941392     -0.00020130892 -4.1475724e-06  2.9825382e-05  6.3690649      16.545661      20.737693      2185.3462    
        57   0             -146.75386     -36.80236      -68.431864     -26.033924     -15.941291     -2.8609858e-05  2.4498376e-08 -1.0302956e-05  6.3690649      16.545661      20.737693      2185.3462    
        58   0             -146.75386     -36.802345     -68.428984     -26.036778     -15.941273      2.162058e-06   1.3533252e-08  6.0981914e-06  6.3690649      16.545661      20.737693      2185.3462    
        59   0             -146.75386     -36.802342     -68.428414     -26.037343     -15.941269      7.3498878e-06 -1.7566037e-10 -4.1462331e-06  6.3690649      16.545661      20.737693      2185.3462    
        60   0             -146.75386     -36.802343     -68.428467     -26.03729      -15.94127       5.5459588e-06 -6.6707534e-09  4.4306034e-06  6.3690649      16.545661      20.737693      2185.3462    
        61   0             -146.75386     -36.802344     -68.428767     -26.036993     -15.941272      1.3719555e-06 -5.2819123e-09 -2.5874624e-06  6.3690649      16.545661      20.737693      2185.3462    
        62   0             -146.75386     -36.802346     -68.429031     -26.036732     -15.941274     -1.566553e-06  -9.7547026e-10  9.8650954e-07  6.3690649      16.545661      20.737693      2185.3462    
        63   0             -146.75386     -36.802346     -68.429126     -26.036639     -15.941274     -2.0890403e-06  2.5041297e-09 -5.8498106e-07  6.3690649      16.545661      20.737693      2185.3462    
        64   0             -146.75386     -36.802346     -68.429088     -26.036675     -15.941274     -9.4991826e-07  3.3480369e-09  6.0007619e-07  6.3690649      16.545661      20.737693      2185.3462    
        65   0             -146.75386     -36.802345     -68.428995     -26.036768     -15.941274      4.3879802e-07  2.0482882e-09 -3.9663246e-07  6.3690649      16.545661      20.737693      2185.3462    
        66   0             -146.75386     -36.802345     -68.428932     -26.03683      -15.941273      9.3175409e-07  9.2734136e-10  3.1588132e-07  6.3690649      16.545661      20.737693      2185.3462    
        67   0             -146.75386     -36.802345     -68.428916     -26.036846     -15.941273      7.239953e-07   1.1218588e-11 -2.1453285e-07  6.3690649      16.545661      20.737693      2185.3462    
        68   0             -146.75386     -36.802345     -68.428936     -26.036826     -15.941273      1.7378438e-07 -3.2898912e-10  1.0693531e-07  6.3690649      16.545661      20.737693      2185.3462    
        69   0             -146.75386     -36.802345     -68.428968     -26.036795     -15.941273     -2.5135611e-07 -2.4905494e-10 -4.130465e-08   6.3690649      16.545661      20.737693      2185.3462    
        70   0             -146.75386     -36.802345     -68.428987     -26.036776     -15.941274     -3.3026277e-07 -1.1826129e-10  1.9784494e-08  6.3690649      16.545661      20.737693      2185.3462    
        71   0             -146.75386     -36.802345     -68.428988     -26.036775     -15.941274     -1.6586282e-07 -8.8479441e-12 -1.7114535e-08  6.3690649      16.545661      20.737693      2185.3462    
        72   0             -146.75386     -36.802345     -68.428979     -26.036784     -15.941273      3.8419714e-08  2.5224971e-11  1.4749083e-08  6.3690649      16.545661      20.737693      2185.3462    
        73   0             -146.75386     -36.802345     -68.428972     -26.036791     -15.941273      1.0365084e-07  4.1308211e-12 -6.5933453e-09  6.3690649      16.545661      20.737693      2185.3462    
        74   0             -146.75386     -36.802345     -68.428969     -26.036794     -15.941273      7.754618e-08   1.3579057e-11  3.7432663e-09  6.3690649      16.545661      20.737693      2185.3462    
        75   0             -146.75386     -36.802345     -68.428968     -26.036795     -15.941273      1.9793657e-08 -4.7094922e-12 -1.0412014e-09  6.3690649      16.545661      20.737693      2185.3462    
        76   0             -146.75386     -36.802345     -68.428969     -26.036793     -15.941273     -1.1988547e-08  9.9162599e-12  3.9323565e-10  6.3690649      16.545661      20.737693      2185.3462    
        77   0             -146.75386     -36.802345     -68.428971     -26.036792     -15.941273     -1.8206715e-08  6.3755561e-12 -7.2974206e-11  6.3690649      16.545661      20.737693      2185.3462    
        78   0             -146.75386     -36.802345     -68.428971     -26.036791     -15.941273     -1.028083e-08  -3.0396128e-12 -4.6042026e-11  6.3690649      16.545661      20.737693      2185.3462    
        79   0             -146.75386     -36.802345     -68.428972     -26.036791     -15.941273     -8.5879873e-10  6.0003738e-12  1.128386e-10   6.3690649      16.545661      20.737693      2185.3462    
        80   0             -146.75386     -36.802345     -68.428972     -26.036791     -15.941273      7.2791656e-09  5.0388895e-12 -1.1695745e-10  6.3690649      16.545661      20.737693      2185.3462    
        81   0             -146.75386     -36.802345     -68.428971     -26.036791     -15.941273      7.6988725e-09 -3.2685376e-13  1.0321486e-10  6.3690649      16.545661      20.737693      2185.3462    
        82   0             -146.75386     -36.802345     -68.428971     -26.036792     -15.941273      4.0792036e-09 -4.3610177e-12 -7.345011e-11   6.3690649      16.545661      20.737693      2185.3462    
        83   0             -146.75386     -36.802345     -68.428971     -26.036792     -15.941273      1.4219232e-09 -8.2082264e-12  7.9039134e-11  6.3690649      16.545661      20.737693      2185.3462    
        84   0             -146.75386     -36.802345     -68.428971     -26.036792     -15.941273     -2.3246552e-10  6.1593493e-12 -9.132721e-11   6.3690649      16.545661      20.737693      2185.3462    
        85   0             -146.75386     -36.802345     -68.428971     -26.036792     -15.941273     -6.2378833e-10 -3.994738e-12   1.0908196e-10  6.3690649      16.545661      20.737693      2185.3462    
        86   0             -146.75386     -36.802345     -68.428971     -26.036792     -15.941273     -4.4892538e-10 -2.0387027e-12 -9.9979266e-11  6.3690649      16.545661      20.737693      2185.3462    
        87   0             -146.75386     -36.802345     -68.428971     -26.036792     -15.941273     -1.6767598e-10 -2.1226418e-12  1.2619868e-10  6.3690649      16.545661      20.737693      2185.3462    
        88   0             -146.75386     -36.802345     -68.428971     -26.036792     -15.941273     -1.0449146e-11  4.0570564e-12 -9.8004452e-11  6.3690649      16.545661      20.737693      2185.3462    
        89   0             -146.75386     -36.802345     -68.428971     -26.036792     -15.941273      6.9669452e-11 -9.206593e-12   8.7501046e-11  6.3690649      16.545661      20.737693      2185.3462    
Loop time of 0.014402 on 1 procs for 36 steps with 96 atoms

108.5% CPU use with 1 MPI tasks x 1 OpenMP threads

Minimization stats:
  Stopping criterion = force tolerance
  Energy initial, next-to-last, final = 
     -146.753857984756  -146.753858058042  -146.753858058042
  Force two-norm initial, final = 0.00063265812 8.1918404e-11
  Force max component initial, final = 9.9829009e-05 1.9179144e-11
  Final line search alpha, max atom move = 1 1.9179144e-11
  Iterations, force evaluations = 36 72

MPI task timing breakdown:
Section |  min time  |  avg time  |  max time  |%varavg| %total
---------------------------------------------------------------
Pair    | 0.013625   | 0.013625   | 0.013625   |   0.0 | 94.60
Neigh   | 0          | 0          | 0          |   0.0 |  0.00
Comm    | 0.000261   | 0.000261   | 0.000261   |   0.0 |  1.81
Output  | 0.000337   | 0.000337   | 0.000337   |   0.0 |  2.34
Modify  | 0          | 0          | 0          |   0.0 |  0.00
Other   |            | 0.000179   |            |       |  1.24

Nlocal:             96 ave          96 max          96 min
Histogram: 1 0 0 0 0 0 0 0 0 0
Nghost:           1310 ave        1310 max        1310 min
Histogram: 1 0 0 0 0 0 0 0 0 0
Neighs:           6144 ave        6144 max        6144 min
Histogram: 1 0 0 0 0 0 0 0 0 0

Total # of neighbors = 6144
Ave neighs/atom = 64
Neighbor list builds = 0
Dangerous builds = 0
OMP_NUM_THREADS environment is not set. Defaulting to 1 thread. (src/comm.cpp:98)
  using 1 OpenMP thread(s) per MPI task
Loaded 1 plugins from F:\Lammps\LAMMPS 64-bit 2Aug2023\plugins

The 'box' command has been removed and will be ignored

Reading restart file ...
  restart file = 2 Aug 2023, LAMMPS = 2 Aug 2023
  restoring atom style atomic from restart
  triclinic box = (-0.014214012 -0.036929088 -0.015669905) to (6.354214 16.508732 20.722023) with tilt (0 0 0)
  1 by 1 by 1 MPI processor grid
  pair style eam/alloy stores no restart info
  96 atoms
  read_restart CPU = 0.000 seconds
Changing box ...
  triclinic box = (-0.014214012 -0.036929088 -0.015669905) to (6.354214 16.507078 20.722023) with tilt (0 0 0)
  triclinic box = (-0.014214012 -0.036929088 -0.015669905) to (6.354214 16.507078 20.722023) with tilt (0 0 0)
Neighbor list info ...
  update: every = 1 steps, delay = 0 steps, check = yes
  max neighbors/atom: 2000, page size: 100000
  master list distance cutoff = 8.5
  ghost atom cutoff = 8.5
  1 neighbor lists, perpetual/occasional/extra = 1 0 0
  (1) pair eam/alloy, perpetual
      attributes: half, newton on
      pair build: half/nsq/newton
      stencil: none
      bin: none
Setting up cg style minimization ...
  Unit style    : metal
  Current step  : 53
Per MPI rank memory allocation (min/avg/max) = 4.465 | 4.465 | 4.465 Mbytes
   Step          Temp          PotEng         Press           Pxx            Pyy            Pzz            Pxy            Pxz            Pyz             Lx             Ly             Lz           Volume    
        53   0             -146.75386      37.093384      25.412531      69.73496       16.132661     -0.0084233023   1.2324118e-05 -1.8087375e-05  6.368428       16.544007      20.737693      2184.9092    
        54   0             -146.75386      37.095792      25.636729      69.517933      16.132713     -0.0057813943  -3.8738287e-06  2.4940669e-05  6.368428       16.544007      20.737693      2184.9092    
        55   0             -146.75386      37.100312      26.026193      69.141309      16.133433     -0.0011867304   6.4472104e-07 -3.1720165e-05  6.368428       16.544007      20.737693      2184.9092    
        56   0             -146.75386      37.101236      26.105162      69.064929      16.133618     -0.00024414768 -1.3539021e-07  1.2631912e-05  6.368428       16.544007      20.737693      2184.9092    
        57   0             -146.75386      37.101415      26.120347      69.050243      16.133654     -5.3892113e-05 -4.8441081e-08 -4.3181273e-06  6.368428       16.544007      20.737693      2184.9092    
        58   0             -146.75386      37.101448      26.123191      69.047493      16.133662     -1.1213355e-05 -3.6308697e-08  2.4276008e-06  6.368428       16.544007      20.737693      2184.9092    
        59   0             -146.75386      37.101455      26.12373       69.046971      16.133663      1.8378549e-06 -9.2550682e-09 -1.7800477e-06  6.368428       16.544007      20.737693      2184.9092    
        60   0             -146.75386      37.101453      26.12363       69.047067      16.133662      7.0474348e-06  2.5404281e-08  1.8663099e-06  6.368428       16.544007      20.737693      2184.9092    
        61   0             -146.75386      37.101449      26.123292      69.047394      16.133661      7.0730303e-06  3.5441912e-08 -1.062696e-06   6.368428       16.544007      20.737693      2184.9092    
        62   0             -146.75386      37.101446      26.123026      69.047652      16.13366       3.5890601e-06  3.0497366e-08  4.3455842e-07  6.368428       16.544007      20.737693      2184.9092    
        63   0             -146.75386      37.101445      26.122945      69.04773       16.13366      -3.227326e-07   1.7714059e-08 -2.4526168e-07  6.368428       16.544007      20.737693      2184.9092    
        64   0             -146.75386      37.101446      26.123005      69.047671      16.13366      -3.3845025e-06  3.4857175e-09  2.621353e-07   6.368428       16.544007      20.737693      2184.9092    
        65   0             -146.75386      37.101447      26.12311       69.04757       16.133661     -3.7508343e-06 -2.6215964e-09 -1.7792914e-07  6.368428       16.544007      20.737693      2184.9092    
        66   0             -146.75386      37.101447      26.123167      69.047514      16.133661     -1.8647587e-06 -1.9479687e-09  1.3619867e-07  6.368428       16.544007      20.737693      2184.9092    
        67   0             -146.75386      37.101447      26.123172      69.047509      16.133661      2.7169528e-07 -4.0455417e-10 -9.8743136e-08  6.368428       16.544007      20.737693      2184.9092    
        68   0             -146.75386      37.101447      26.123143      69.047538      16.133661      1.5806352e-06  7.733991e-10   4.8773567e-08  6.368428       16.544007      20.737693      2184.9092    
        69   0             -146.75386      37.101447      26.123109      69.04757       16.133661      1.4645893e-06  9.6769719e-10 -1.8914141e-08  6.368428       16.544007      20.737693      2184.9092    
        70   0             -146.75386      37.101447      26.123094      69.047585      16.133661      4.9015973e-07  6.2266902e-10  1.0569836e-08  6.368428       16.544007      20.737693      2184.9092    
        71   0             -146.75386      37.101447      26.123098      69.047582      16.133661     -3.749912e-07   2.6689959e-10 -9.8283508e-09  6.368428       16.544007      20.737693      2184.9092    
        72   0             -146.75386      37.101447      26.123109      69.04757       16.133661     -7.1593308e-07  5.1788063e-11  9.069491e-09   6.368428       16.544007      20.737693      2184.9092    
        73   0             -146.75386      37.101447      26.123116      69.047564      16.133661     -5.5728602e-07 -3.1559782e-12 -4.2823424e-09  6.368428       16.544007      20.737693      2184.9092    
        74   0             -146.75386      37.101447      26.123118      69.047562      16.133661     -1.8971849e-07 -9.7859492e-12  2.7457337e-09  6.368428       16.544007      20.737693      2184.9092    
        75   0             -146.75386      37.101447      26.123117      69.047563      16.133661      1.4591814e-07 -1.1384927e-11 -1.0548901e-09  6.368428       16.544007      20.737693      2184.9092    
        76   0             -146.75386      37.101447      26.123115      69.047565      16.133661      1.8794141e-07 -2.3482208e-12  7.98894e-10    6.368428       16.544007      20.737693      2184.9092    
        77   0             -146.75386      37.101447      26.123114      69.047566      16.133661      1.2053959e-07 -2.9677134e-12 -5.0614019e-10  6.368428       16.544007      20.737693      2184.9092    
        78   0             -146.75386      37.101447      26.123113      69.047566      16.133661      2.3358495e-08 -2.6878605e-12  6.2569944e-10  6.368428       16.544007      20.737693      2184.9092    
        79   0             -146.75386      37.101447      26.123113      69.047566      16.133661     -3.7033954e-08  2.1001693e-12 -7.5578654e-10  6.368428       16.544007      20.737693      2184.9092    
        80   0             -146.75386      37.101447      26.123114      69.047566      16.133661     -6.3818364e-08 -2.9982429e-12  5.7248358e-10  6.368428       16.544007      20.737693      2184.9092    
        81   0             -146.75386      37.101447      26.123114      69.047566      16.133661     -4.4307335e-08  8.6245594e-13 -4.2933691e-10  6.368428       16.544007      20.737693      2184.9092    
        82   0             -146.75386      37.101447      26.123114      69.047566      16.133661     -1.1967518e-08  5.915074e-12   2.7790592e-10  6.368428       16.544007      20.737693      2184.9092    
        83   0             -146.75386      37.101447      26.123114      69.047566      16.133661      1.6351083e-09  3.5986547e-12 -2.5912251e-10  6.368428       16.544007      20.737693      2184.9092    
        84   0             -146.75386      37.101447      26.123114      69.047566      16.133661      5.5977436e-09 -6.888199e-12   3.1106476e-10  6.368428       16.544007      20.737693      2184.9092    
        85   0             -146.75386      37.101447      26.123114      69.047566      16.133661      4.4149654e-09  1.2359324e-11 -2.8214442e-10  6.368428       16.544007      20.737693      2184.9092    
        86   0             -146.75386      37.101447      26.123114      69.047566      16.133661      1.9905852e-09  9.1270227e-12  2.0840747e-10  6.368428       16.544007      20.737693      2184.9092    
        87   0             -146.75386      37.101447      26.123114      69.047566      16.133661     -3.982384e-10  -3.8556106e-12 -1.7847223e-10  6.368428       16.544007      20.737693      2184.9092    
        88   0             -146.75386      37.101447      26.123114      69.047566      16.133661     -1.9837135e-09 -5.1149489e-12  1.0219138e-10  6.368428       16.544007      20.737693      2184.9092    
        89   0             -146.75386      37.101447      26.123114      69.047566      16.133661     -1.9639712e-09 -9.760508e-12  -4.1834847e-11  6.368428       16.544007      20.737693      2184.9092    
        90   0             -146.75386      37.101447      26.123114      69.047566      16.133661     -7.1437938e-10 -2.6522428e-12  1.6829846e-11  6.368428       16.544007      20.737693      2184.9092    
        91   0             -146.75386      37.101447      26.123114      69.047566      16.133661      7.6183863e-10  2.0645516e-12  2.81769e-12    6.368428       16.544007      20.737693      2184.9092    
        92   0             -146.75386      37.101447      26.123114      69.047566      16.133661      1.0469681e-09  4.1698091e-12  1.4482888e-12  6.368428       16.544007      20.737693      2184.9092    
        93   0             -146.75386      37.101447      26.123114      69.047566      16.133661      6.9610371e-10  7.0497505e-12  1.6243705e-11  6.368428       16.544007      20.737693      2184.9092    
Loop time of 0.016136 on 1 procs for 40 steps with 96 atoms

96.8% CPU use with 1 MPI tasks x 1 OpenMP threads

Minimization stats:
  Stopping criterion = force tolerance
  Energy initial, next-to-last, final = 
     -146.753857953339  -146.753858021902  -146.753858021902
  Force two-norm initial, final = 0.00062384828 8.9985868e-11
  Force max component initial, final = 9.8391734e-05 1.7332177e-11
  Final line search alpha, max atom move = 1 1.7332177e-11
  Iterations, force evaluations = 40 80

MPI task timing breakdown:
Section |  min time  |  avg time  |  max time  |%varavg| %total
---------------------------------------------------------------
Pair    | 0.015232   | 0.015232   | 0.015232   |   0.0 | 94.40
Neigh   | 0          | 0          | 0          |   0.0 |  0.00
Comm    | 0.000308   | 0.000308   | 0.000308   |   0.0 |  1.91
Output  | 0.000395   | 0.000395   | 0.000395   |   0.0 |  2.45
Modify  | 0          | 0          | 0          |   0.0 |  0.00
Other   |            | 0.000201   |            |       |  1.25

Nlocal:             96 ave          96 max          96 min
Histogram: 1 0 0 0 0 0 0 0 0 0
Nghost:           1310 ave        1310 max        1310 min
Histogram: 1 0 0 0 0 0 0 0 0 0
Neighs:           6144 ave        6144 max        6144 min
Histogram: 1 0 0 0 0 0 0 0 0 0

Total # of neighbors = 6144
Ave neighs/atom = 64
Neighbor list builds = 0
Dangerous builds = 0
OMP_NUM_THREADS environment is not set. Defaulting to 1 thread. (src/comm.cpp:98)
  using 1 OpenMP thread(s) per MPI task
Loaded 1 plugins from F:\Lammps\LAMMPS 64-bit 2Aug2023\plugins

The 'box' command has been removed and will be ignored

Reading restart file ...
  restart file = 2 Aug 2023, LAMMPS = 2 Aug 2023
  restoring atom style atomic from restart
  triclinic box = (-0.014214012 -0.036929088 -0.015669905) to (6.354214 16.508732 20.722023) with tilt (0 0 0)
  1 by 1 by 1 MPI processor grid
  pair style eam/alloy stores no restart info
  96 atoms
  read_restart CPU = 0.000 seconds
Changing box ...
  triclinic box = (-0.014214012 -0.036929088 -0.015669905) to (6.354214 16.510387 20.722023) with tilt (0 0 0)
  triclinic box = (-0.014214012 -0.036929088 -0.015669905) to (6.354214 16.510387 20.722023) with tilt (0 0 0)
Neighbor list info ...
  update: every = 1 steps, delay = 0 steps, check = yes
  max neighbors/atom: 2000, page size: 100000
  master list distance cutoff = 8.5
  ghost atom cutoff = 8.5
  1 neighbor lists, perpetual/occasional/extra = 1 0 0
  (1) pair eam/alloy, perpetual
      attributes: half, newton on
      pair build: half/nsq/newton
      stencil: none
      bin: none
Setting up cg style minimization ...
  Unit style    : metal
  Current step  : 53
Per MPI rank memory allocation (min/avg/max) = 4.465 | 4.465 | 4.465 Mbytes
   Step          Temp          PotEng         Press           Pxx            Pyy            Pzz            Pxy            Pxz            Pyz             Lx             Ly             Lz           Volume    
        53   0             -146.75386     -36.787471     -25.168335     -69.246508     -15.94757      -0.0086253241   7.3259124e-06 -6.9529973e-05  6.368428       16.547316      20.737693      2185.3462    
        54   0             -146.75386     -36.790352     -25.422477     -69.000234     -15.948344     -0.0058376292  -3.3262797e-06  3.6824281e-05  6.368428       16.547316      20.737693      2185.3462    
        55   0             -146.75386     -36.795343     -25.854078     -68.583031     -15.948921     -0.0010944281   1.8895071e-07 -6.7587923e-06  6.368428       16.547316      20.737693      2185.3462    
        56   0             -146.75386     -36.796335     -25.93455      -68.505477     -15.948978     -0.0002073146  -1.4348464e-07  1.2341568e-06  6.368428       16.547316      20.737693      2185.3462    
        57   0             -146.75386     -36.796524     -25.949778     -68.490806     -15.948987     -3.711461e-05  -7.0342917e-08 -3.7102071e-07  6.368428       16.547316      20.737693      2185.3462    
        58   0             -146.75386     -36.796559     -25.952641     -68.488048     -15.948989     -3.3951527e-06 -6.5507759e-08  1.4455336e-07  6.368428       16.547316      20.737693      2185.3462    
        59   0             -146.75386     -36.796566     -25.953215     -68.487494     -15.948989      4.5727245e-06 -4.5770041e-08 -1.4310231e-07  6.368428       16.547316      20.737693      2185.3462    
        60   0             -146.75386     -36.796566     -25.953169     -68.487538     -15.948989      5.6604096e-06 -1.4620558e-08  1.252574e-07   6.368428       16.547316      20.737693      2185.3462    
        61   0             -146.75386     -36.796562     -25.952876     -68.487821     -15.948989      3.480473e-06   4.0692518e-09 -7.3749789e-08  6.368428       16.547316      20.737693      2185.3462    
        62   0             -146.75386     -36.796559     -25.952615     -68.488073     -15.948989      5.6222468e-07  1.0916249e-08  3.4316457e-08  6.368428       16.547316      20.737693      2185.3462    
        63   0             -146.75386     -36.796558     -25.952516     -68.488168     -15.948989     -1.2310995e-06  9.1267465e-09 -1.3074675e-08  6.368428       16.547316      20.737693      2185.3462    
        64   0             -146.75386     -36.796558     -25.952548     -68.488137     -15.948989     -1.8143281e-06  3.6646119e-09  1.7880788e-08  6.368428       16.547316      20.737693      2185.3462    
        65   0             -146.75386     -36.796559     -25.952639     -68.48805      -15.948989     -1.2403001e-06 -5.4749023e-10 -1.1682398e-08  6.368428       16.547316      20.737693      2185.3462    
        66   0             -146.75386     -36.79656      -25.952703     -68.487988     -15.948989     -2.5624584e-07 -1.2818047e-09  8.0316516e-09  6.368428       16.547316      20.737693      2185.3462    
        67   0             -146.75386     -36.79656      -25.952721     -68.48797      -15.94899       4.6319154e-07 -1.106821e-09  -6.5939158e-09  6.368428       16.547316      20.737693      2185.3462    
        68   0             -146.75386     -36.79656      -25.952704     -68.487987     -15.94899       6.9441365e-07 -5.3270041e-10  2.9404333e-09  6.368428       16.547316      20.737693      2185.3462    
        69   0             -146.75386     -36.79656      -25.952674     -68.488016     -15.948989      4.4576736e-07 -1.3585289e-10 -1.2238752e-09  6.368428       16.547316      20.737693      2185.3462    
        70   0             -146.75386     -36.79656      -25.952653     -68.488036     -15.948989      3.6686044e-08  4.8455753e-12  6.1646125e-10  6.368428       16.547316      20.737693      2185.3462    
        71   0             -146.75386     -36.796559     -25.952651     -68.488038     -15.948989     -2.1692977e-07  2.4468247e-11 -4.6230516e-10  6.368428       16.547316      20.737693      2185.3462    
        72   0             -146.75386     -36.79656      -25.952659     -68.48803      -15.948989     -2.5847781e-07  1.1561975e-11  3.9381833e-10  6.368428       16.547316      20.737693      2185.3462    
        73   0             -146.75386     -36.79656      -25.952666     -68.488024     -15.94899      -1.6855827e-07  1.062084e-11  -1.8558975e-10  6.368428       16.547316      20.737693      2185.3462    
        74   0             -146.75386     -36.79656      -25.95267      -68.48802      -15.94899      -4.1561111e-08  1.1503472e-11  1.1434269e-10  6.368428       16.547316      20.737693      2185.3462    
        75   0             -146.75386     -36.79656      -25.952671     -68.488019     -15.94899       6.1232186e-08  1.0893006e-11 -3.7325267e-11  6.368428       16.547316      20.737693      2185.3462    
        76   0             -146.75386     -36.79656      -25.95267      -68.48802      -15.94899       6.5940782e-08 -2.9531301e-12  5.1017048e-12  6.368428       16.547316      20.737693      2185.3462    
        77   0             -146.75386     -36.79656      -25.952668     -68.488021     -15.94899       3.867541e-08   7.1602595e-13 -1.1821413e-11  6.368428       16.547316      20.737693      2185.3462    
        78   0             -146.75386     -36.79656      -25.952667     -68.488022     -15.94899       5.8690332e-09 -6.1529903e-12 -5.0645641e-12  6.368428       16.547316      20.737693      2185.3462    
        79   0             -146.75386     -36.79656      -25.952667     -68.488022     -15.94899      -1.2903267e-08 -1.503273e-12  -9.400265e-12   6.368428       16.547316      20.737693      2185.3462    
        80   0             -146.75386     -36.79656      -25.952667     -68.488022     -15.94899      -2.0290218e-08  9.6580836e-12  8.5810043e-13  6.368428       16.547316      20.737693      2185.3462    
        81   0             -146.75386     -36.79656      -25.952667     -68.488022     -15.94899      -1.3730675e-08 -6.1936881e-13  2.4848378e-12  6.368428       16.547316      20.737693      2185.3462    
        82   0             -146.75386     -36.79656      -25.952668     -68.488022     -15.94899      -3.6215422e-09  3.5025497e-12  1.939946e-11   6.368428       16.547316      20.737693      2185.3462    
        83   0             -146.75386     -36.79656      -25.952668     -68.488022     -15.94899       5.7898392e-10 -1.479363e-11  -6.4833217e-12  6.368428       16.547316      20.737693      2185.3462    
        84   0             -146.75386     -36.79656      -25.952668     -68.488022     -15.94899       1.6811157e-09  5.6951407e-12 -1.8859381e-11  6.368428       16.547316      20.737693      2185.3462    
        85   0             -146.75386     -36.79656      -25.952668     -68.488022     -15.94899       1.2820883e-09  1.1153726e-12  2.9586158e-11  6.368428       16.547316      20.737693      2185.3462    
        86   0             -146.75386     -36.79656      -25.952668     -68.488022     -15.94899       5.8082677e-10  5.0897617e-12 -5.1274985e-12  6.368428       16.547316      20.737693      2185.3462    
        87   0             -146.75386     -36.79656      -25.952668     -68.488022     -15.94899       3.523916e-11   1.0305432e-11 -1.0252652e-11  6.368428       16.547316      20.737693      2185.3462    
        88   0             -146.75386     -36.79656      -25.952668     -68.488022     -15.94899      -1.6729698e-10  2.4507673e-12 -1.5487708e-11  6.368428       16.547316      20.737693      2185.3462    
        89   0             -146.75386     -36.79656      -25.952668     -68.488022     -15.94899      -1.8373633e-10  3.9146143e-12  4.5321351e-12  6.368428       16.547316      20.737693      2185.3462    
Loop time of 0.014106 on 1 procs for 36 steps with 96 atoms

110.8% CPU use with 1 MPI tasks x 1 OpenMP threads

Minimization stats:
  Stopping criterion = force tolerance
  Energy initial, next-to-last, final = 
      -146.75385797899  -146.753858054461   -146.75385805446
  Force two-norm initial, final = 0.00063793113 9.9925818e-11
  Force max component initial, final = 9.8825374e-05 2.307881e-11
  Final line search alpha, max atom move = 1 2.307881e-11
  Iterations, force evaluations = 36 72

MPI task timing breakdown:
Section |  min time  |  avg time  |  max time  |%varavg| %total
---------------------------------------------------------------
Pair    | 0.013368   | 0.013368   | 0.013368   |   0.0 | 94.77
Neigh   | 0          | 0          | 0          |   0.0 |  0.00
Comm    | 0.000261   | 0.000261   | 0.000261   |   0.0 |  1.85
Output  | 0.000315   | 0.000315   | 0.000315   |   0.0 |  2.23
Modify  | 0          | 0          | 0          |   0.0 |  0.00
Other   |            | 0.000162   |            |       |  1.15

Nlocal:             96 ave          96 max          96 min
Histogram: 1 0 0 0 0 0 0 0 0 0
Nghost:           1310 ave        1310 max        1310 min
Histogram: 1 0 0 0 0 0 0 0 0 0
Neighs:           6144 ave        6144 max        6144 min
Histogram: 1 0 0 0 0 0 0 0 0 0

Total # of neighbors = 6144
Ave neighs/atom = 64
Neighbor list builds = 0
Dangerous builds = 0
OMP_NUM_THREADS environment is not set. Defaulting to 1 thread. (src/comm.cpp:98)
  using 1 OpenMP thread(s) per MPI task
Loaded 1 plugins from F:\Lammps\LAMMPS 64-bit 2Aug2023\plugins

The 'box' command has been removed and will be ignored

Reading restart file ...
  restart file = 2 Aug 2023, LAMMPS = 2 Aug 2023
  restoring atom style atomic from restart
  triclinic box = (-0.014214012 -0.036929088 -0.015669905) to (6.354214 16.508732 20.722023) with tilt (0 0 0)
  1 by 1 by 1 MPI processor grid
  pair style eam/alloy stores no restart info
  96 atoms
  read_restart CPU = 0.000 seconds
Changing box ...
  triclinic box = (-0.014214012 -0.036929088 -0.015669905) to (6.354214 16.508732 20.719949) with tilt (0 0 0)
Neighbor list info ...
  update: every = 1 steps, delay = 0 steps, check = yes
  max neighbors/atom: 2000, page size: 100000
  master list distance cutoff = 8.5
  ghost atom cutoff = 8.5
  1 neighbor lists, perpetual/occasional/extra = 1 0 0
  (1) pair eam/alloy, perpetual
      attributes: half, newton on
      pair build: half/nsq/newton
      stencil: none
      bin: none
Setting up cg style minimization ...
  Unit style    : metal
  Current step  : 53
Per MPI rank memory allocation (min/avg/max) = 4.465 | 4.465 | 4.465 Mbytes
   Step          Temp          PotEng         Press           Pxx            Pyy            Pzz            Pxy            Pxz            Pyz             Lx             Ly             Lz           Volume    
        53   0             -146.75386      34.085704      16.084106      16.064489      70.108519     -0.0084677276   8.3976697e-06  3.1585328e-06  6.368428       16.545661      20.735619      2184.9092    
        54   0             -146.75386      34.085582      16.08166       16.066524      70.108561     -0.0065379627  -8.1836801e-07  9.7749892e-07  6.368428       16.545661      20.735619      2184.9092    
        55   0             -146.75386      34.085568      16.078552      16.069569      70.108581     -0.0038762359  -1.4418728e-07  7.1868936e-08  6.368428       16.545661      20.735619      2184.9092    
        56   0             -146.75386      34.085563      16.076355      16.071751      70.108584     -0.0019862379  -1.3172276e-07  1.5331395e-07  6.368428       16.545661      20.735619      2184.9092    
        57   0             -146.75386      34.085562      16.074848      16.073253      70.108585     -0.00068811437  4.2293109e-08  7.4100853e-08  6.368428       16.545661      20.735619      2184.9092    
        58   0             -146.75386      34.085561      16.07405       16.074049      70.108585     -1.882339e-07   4.6624115e-08  5.0326596e-08  6.368428       16.545661      20.735619      2184.9092    
        59   0             -146.75386      34.085561      16.073775      16.074323      70.108586      0.00023632679  4.8249884e-08  2.7395908e-08  6.368428       16.545661      20.735619      2184.9092    
        60   0             -146.75386      34.085561      16.073803      16.074295      70.108586      0.00021276241  4.6975492e-08  7.9398471e-09  6.368428       16.545661      20.735619      2184.9092    
        61   0             -146.75386      34.085561      16.073939      16.074159      70.108586      9.4923464e-05  2.7010019e-08  2.4619659e-10  6.368428       16.545661      20.735619      2184.9092    
        62   0             -146.75386      34.085561      16.074089      16.074009      70.108586     -3.4683313e-05  6.9739574e-09 -3.4731042e-09  6.368428       16.545661      20.735619      2184.9092    
        63   0             -146.75386      34.085561      16.074156      16.073941      70.108586     -9.2845792e-05 -4.4668527e-09 -2.8903314e-09  6.368428       16.545661      20.735619      2184.9092    
        64   0             -146.75386      34.085561      16.074131      16.073967      70.108586     -7.061667e-05  -5.8280855e-09 -6.189924e-10   6.368428       16.545661      20.735619      2184.9092    
        65   0             -146.75386      34.085561      16.074066      16.074031      70.108586     -1.5158431e-05 -2.9039553e-09  5.8926807e-10  6.368428       16.545661      20.735619      2184.9092    
        66   0             -146.75386      34.085561      16.074016      16.074081      70.108586      2.8110743e-05  2.906273e-11   6.5568119e-10  6.368428       16.545661      20.735619      2184.9092    
        67   0             -146.75386      34.085561      16.074003      16.074095      70.108586      3.9827701e-05  1.3322171e-09  4.9983577e-10  6.368428       16.545661      20.735619      2184.9092    
        68   0             -146.75386      34.085561      16.074019      16.074079      70.108586      2.5788092e-05  1.5317039e-09  2.349555e-10   6.368428       16.545661      20.735619      2184.9092    
        69   0             -146.75386      34.085561      16.074045      16.074052      70.108586      2.7796031e-06  1.0268708e-09  6.416459e-11   6.368428       16.545661      20.735619      2184.9092    
        70   0             -146.75386      34.085561      16.074065      16.074032      70.108586     -1.4099441e-05  4.1288107e-10  1.5021754e-11  6.368428       16.545661      20.735619      2184.9092    
        71   0             -146.75386      34.085561      16.074066      16.074032      70.108586     -1.4850344e-05  1.1722659e-10 -9.0308531e-12  6.368428       16.545661      20.735619      2184.9092    
        72   0             -146.75386      34.085561      16.074057      16.07404       70.108586     -7.1077073e-06  1.2019685e-11  8.8988173e-12  6.368428       16.545661      20.735619      2184.9092    
        73   0             -146.75386      34.085561      16.07405       16.074048      70.108586     -9.5277624e-07 -1.6569839e-11  1.4299731e-13  6.368428       16.545661      20.735619      2184.9092    
        74   0             -146.75386      34.085561      16.074046      16.074052      70.108586      2.6123108e-06 -1.4883089e-12  1.0814419e-11  6.368428       16.545661      20.735619      2184.9092    
        75   0             -146.75386      34.085561      16.074045      16.074053      70.108586      3.5194676e-06 -1.1345493e-11  1.516804e-11   6.368428       16.545661      20.735619      2184.9092    
        76   0             -146.75386      34.085561      16.074046      16.074051      70.108586      2.0445404e-06 -5.0882357e-14  1.3459735e-11  6.368428       16.545661      20.735619      2184.9092    
        77   0             -146.75386      34.085561      16.074048      16.074049      70.108586      6.184849e-07  -5.8959931e-12  1.0986018e-11  6.368428       16.545661      20.735619      2184.9092    
        78   0             -146.75386      34.085561      16.074049      16.074048      70.108586     -4.3912811e-07 -5.5906989e-12 -5.9679439e-12  6.368428       16.545661      20.735619      2184.9092    
        79   0             -146.75386      34.085561      16.07405       16.074048      70.108586     -7.4998555e-07  4.2257797e-12  4.5091607e-12  6.368428       16.545661      20.735619      2184.9092    
        80   0             -146.75386      34.085561      16.074049      16.074048      70.108586     -5.6956703e-07 -4.167265e-12  -2.3393521e-11  6.368428       16.545661      20.735619      2184.9092    
        81   0             -146.75386      34.085561      16.074049      16.074048      70.108586     -1.9967991e-07 -5.8972651e-12 -3.5947391e-12  6.368428       16.545661      20.735619      2184.9092    
        82   0             -146.75386      34.085561      16.074049      16.074049      70.108586      1.1339825e-07 -5.5868828e-12 -1.0832933e-11  6.368428       16.545661      20.735619      2184.9092    
        83   0             -146.75386      34.085561      16.074049      16.074049      70.108586      1.4481322e-07  4.1036621e-12 -1.823086e-11   6.368428       16.545661      20.735619      2184.9092    
        84   0             -146.75386      34.085561      16.074049      16.074049      70.108586      8.0977179e-08 -7.0128608e-12 -2.0814869e-11  6.368428       16.545661      20.735619      2184.9092    
        85   0             -146.75386      34.085561      16.074049      16.074049      70.108586      2.7547885e-08  5.8400225e-12 -5.3097528e-13  6.368428       16.545661      20.735619      2184.9092    
        86   0             -146.75386      34.085561      16.074049      16.074049      70.108586     -2.8802225e-09  1.6880222e-12  1.9933372e-11  6.368428       16.545661      20.735619      2184.9092    
        87   0             -146.75386      34.085561      16.074049      16.074049      70.108586     -1.2986686e-08 -3.5286914e-12  4.2574719e-12  6.368428       16.545661      20.735619      2184.9092    
        88   0             -146.75386      34.085561      16.074049      16.074049      70.108586     -1.0006458e-08  6.7838902e-12  1.9463992e-12  6.368428       16.545661      20.735619      2184.9092    
Loop time of 0.016554 on 1 procs for 35 steps with 96 atoms

94.4% CPU use with 1 MPI tasks x 1 OpenMP threads

Minimization stats:
  Stopping criterion = force tolerance
  Energy initial, next-to-last, final = 
     -146.753857924089  -146.753857945783  -146.753857945784
  Force two-norm initial, final = 0.00049904886 9.9550815e-11
  Force max component initial, final = 6.7883544e-05 1.6300313e-11
  Final line search alpha, max atom move = 1 1.6300313e-11
  Iterations, force evaluations = 35 70

MPI task timing breakdown:
Section |  min time  |  avg time  |  max time  |%varavg| %total
---------------------------------------------------------------
Pair    | 0.015075   | 0.015075   | 0.015075   |   0.0 | 91.07
Neigh   | 0          | 0          | 0          |   0.0 |  0.00
Comm    | 0.000495   | 0.000495   | 0.000495   |   0.0 |  2.99
Output  | 0.000731   | 0.000731   | 0.000731   |   0.0 |  4.42
Modify  | 0          | 0          | 0          |   0.0 |  0.00
Other   |            | 0.000253   |            |       |  1.53

Nlocal:             96 ave          96 max          96 min
Histogram: 1 0 0 0 0 0 0 0 0 0
Nghost:           1310 ave        1310 max        1310 min
Histogram: 1 0 0 0 0 0 0 0 0 0
Neighs:           6144 ave        6144 max        6144 min
Histogram: 1 0 0 0 0 0 0 0 0 0

Total # of neighbors = 6144
Ave neighs/atom = 64
Neighbor list builds = 0
Dangerous builds = 0
OMP_NUM_THREADS environment is not set. Defaulting to 1 thread. (src/comm.cpp:98)
  using 1 OpenMP thread(s) per MPI task
Loaded 1 plugins from F:\Lammps\LAMMPS 64-bit 2Aug2023\plugins

The 'box' command has been removed and will be ignored

Reading restart file ...
  restart file = 2 Aug 2023, LAMMPS = 2 Aug 2023
  restoring atom style atomic from restart
  triclinic box = (-0.014214012 -0.036929088 -0.015669905) to (6.354214 16.508732 20.722023) with tilt (0 0 0)
  1 by 1 by 1 MPI processor grid
  pair style eam/alloy stores no restart info
  96 atoms
  read_restart CPU = 0.000 seconds
Changing box ...
  triclinic box = (-0.014214012 -0.036929088 -0.015669905) to (6.354214 16.508732 20.724097) with tilt (0 0 0)
Neighbor list info ...
  update: every = 1 steps, delay = 0 steps, check = yes
  max neighbors/atom: 2000, page size: 100000
  master list distance cutoff = 8.5
  ghost atom cutoff = 8.5
  1 neighbor lists, perpetual/occasional/extra = 1 0 0
  (1) pair eam/alloy, perpetual
      attributes: half, newton on
      pair build: half/nsq/newton
      stencil: none
      bin: none
Setting up cg style minimization ...
  Unit style    : metal
  Current step  : 53
Per MPI rank memory allocation (min/avg/max) = 4.465 | 4.465 | 4.465 Mbytes
   Step          Temp          PotEng         Press           Pxx            Pyy            Pzz            Pxy            Pxz            Pyz             Lx             Ly             Lz           Volume    
        53   0             -146.75386     -33.772709     -15.899713     -15.919658     -69.498755     -0.0086108425   1.3052477e-05  9.8436393e-06  6.368428       16.545661      20.739767      2185.3462    
        54   0             -146.75386     -33.772933     -15.90222      -15.917662     -69.498917     -0.0066711042  -1.6054985e-06 -2.6167327e-07  6.368428       16.545661      20.739767      2185.3462    
        55   0             -146.75386     -33.772971     -15.905366     -15.914602     -69.498944     -0.0039853604  -7.1884811e-07 -6.3128373e-07  6.368428       16.545661      20.739767      2185.3462    
        56   0             -146.75386     -33.77298      -15.907602     -15.912387     -69.498951     -0.0020640273  -4.1049452e-07 -9.8018872e-08  6.368428       16.545661      20.739767      2185.3462    
        57   0             -146.75386     -33.772983     -15.909148     -15.910848     -69.498954     -0.00073292082 -8.6346294e-08 -6.1295887e-08  6.368428       16.545661      20.739767      2185.3462    
        58   0             -146.75386     -33.772984     -15.90998      -15.910018     -69.498954     -1.5915478e-05 -2.0230148e-08 -2.7651262e-08  6.368428       16.545661      20.739767      2185.3462    
        59   0             -146.75386     -33.772984     -15.910275     -15.909724     -69.498954      0.00023760105  1.9720984e-08 -2.3464826e-10  6.368428       16.545661      20.739767      2185.3462    
        60   0             -146.75386     -33.772985     -15.910254     -15.909745     -69.498955      0.00022001459  4.8737518e-08  4.743071e-09   6.368428       16.545661      20.739767      2185.3462    
        61   0             -146.75386     -33.772985     -15.91012      -15.90988      -69.498955      0.00010361668  4.4705467e-08  9.6112378e-09  6.368428       16.545661      20.739767      2185.3462    
        62   0             -146.75386     -33.772985     -15.909966     -15.910034     -69.498955     -2.9476741e-05  2.8502484e-08  8.0672656e-09  6.368428       16.545661      20.739767      2185.3462    
        63   0             -146.75386     -33.772985     -15.909891     -15.910109     -69.498955     -9.3959735e-05  1.1576942e-08  5.7028464e-09  6.368428       16.545661      20.739767      2185.3462    
        64   0             -146.75386     -33.772985     -15.909912     -15.910088     -69.498955     -7.5830621e-05  1.0040871e-09  2.6731177e-09  6.368428       16.545661      20.739767      2185.3462    
        65   0             -146.75386     -33.772985     -15.909976     -15.910024     -69.498955     -2.0799877e-05 -2.5831838e-09  4.0421036e-10  6.368428       16.545661      20.739767      2185.3462    
        66   0             -146.75386     -33.772985     -15.91003      -15.90997      -69.498955      2.6199885e-05 -1.4287109e-09 -3.3643706e-10  6.368428       16.545661      20.739767      2185.3462    
        67   0             -146.75386     -33.772985     -15.910048     -15.909952     -69.498955      4.1378565e-05  3.0046382e-11 -4.0995782e-10  6.368428       16.545661      20.739767      2185.3462    
        68   0             -146.75386     -33.772985     -15.910034     -15.909966     -69.498955      2.9050356e-05  1.0126413e-09 -4.0523425e-10  6.368428       16.545661      20.739767      2185.3462    
        69   0             -146.75386     -33.772985     -15.910007     -15.909994     -69.498955      5.5675809e-06  1.0939681e-09 -1.8716402e-10  6.368428       16.545661      20.739767      2185.3462    
        70   0             -146.75386     -33.772985     -15.909985     -15.910016     -69.498955     -1.3439095e-05  6.2441024e-10  2.9199509e-11  6.368428       16.545661      20.739767      2185.3462    
        71   0             -146.75386     -33.772985     -15.909982     -15.910019     -69.498955     -1.586407e-05   2.5526643e-10  8.7390935e-11  6.368428       16.545661      20.739767      2185.3462    
        72   0             -146.75386     -33.772985     -15.90999      -15.91001      -69.498955     -8.4012825e-06  6.3784812e-11  4.4044677e-11  6.368428       16.545661      20.739767      2185.3462    
        73   0             -146.75386     -33.772985     -15.909998     -15.910002     -69.498955     -1.9193416e-06  8.0568817e-12  4.1321535e-11  6.368428       16.545661      20.739767      2185.3462    
        74   0             -146.75386     -33.772985     -15.910003     -15.909997     -69.498955      2.3589373e-06 -9.5906779e-12  1.7679981e-11  6.368428       16.545661      20.739767      2185.3462    
        75   0             -146.75386     -33.772985     -15.910005     -15.909996     -69.498955      3.9280206e-06 -1.5055622e-11  1.9070272e-11  6.368428       16.545661      20.739767      2185.3462    
        76   0             -146.75386     -33.772985     -15.910003     -15.909997     -69.498955      2.4786908e-06  3.3079636e-12  1.5919446e-11  6.368428       16.545661      20.739767      2185.3462    
        77   0             -146.75386     -33.772985     -15.910001     -15.909999     -69.498955      8.9391413e-07 -2.6682459e-12  5.4525638e-12  6.368428       16.545661      20.739767      2185.3462    
        78   0             -146.75386     -33.772985     -15.91         -15.910001     -69.498955     -3.9505926e-07 -6.0461587e-12 -1.1079315e-11  6.368428       16.545661      20.739767      2185.3462    
        79   0             -146.75386     -33.772985     -15.909999     -15.910001     -69.498955     -8.5210225e-07 -1.0187154e-12  1.3148631e-11  6.368428       16.545661      20.739767      2185.3462    
        80   0             -146.75386     -33.772985     -15.909999     -15.910001     -69.498955     -7.2257194e-07  1.0110846e-12  2.1095352e-11  6.368428       16.545661      20.739767      2185.3462    
        81   0             -146.75386     -33.772985     -15.91         -15.91         -69.498955     -3.0687018e-07  1.9560354e-12 -9.9002531e-12  6.368428       16.545661      20.739767      2185.3462    
        82   0             -146.75386     -33.772985     -15.91         -15.91         -69.498955      8.2807103e-08  3.7772594e-13 -1.7170573e-11  6.368428       16.545661      20.739767      2185.3462    
        83   0             -146.75386     -33.772985     -15.91         -15.91         -69.498955      1.4982711e-07  2.7903391e-12 -4.4087998e-12  6.368428       16.545661      20.739767      2185.3462    
        84   0             -146.75386     -33.772985     -15.91         -15.91         -69.498955      9.5328139e-08 -5.7053151e-12 -5.5502344e-13  6.368428       16.545661      20.739767      2185.3462    
        85   0             -146.75386     -33.772985     -15.91         -15.91         -69.498955      3.8683455e-08  3.8154136e-13 -6.4760684e-12  6.368428       16.545661      20.739767      2185.3462    
        86   0             -146.75386     -33.772985     -15.91         -15.91         -69.498955      3.3466557e-09  6.6833328e-12  6.9250651e-12  6.368428       16.545661      20.739767      2185.3462    
        87   0             -146.75386     -33.772985     -15.91         -15.91         -69.498955     -1.1575302e-08 -1.8686624e-11  1.2033586e-11  6.368428       16.545661      20.739767      2185.3462    
        88   0             -146.75386     -33.772985     -15.91         -15.91         -69.498955     -1.0795937e-08  3.6577098e-12  5.2673176e-12  6.368428       16.545661      20.739767      2185.3462    
        89   0             -146.75386     -33.772985     -15.91         -15.91         -69.498955     -5.106926e-09  -2.9162478e-12  6.9569695e-12  6.368428       16.545661      20.739767      2185.3462    
Loop time of 0.021933 on 1 procs for 36 steps with 96 atoms

0.0% CPU use with 1 MPI tasks x 1 OpenMP threads

Minimization stats:
  Stopping criterion = force tolerance
  Energy initial, next-to-last, final = 
     -146.753857956896  -146.753857978527  -146.753857978526
  Force two-norm initial, final = 0.00049778462 7.0383406e-11
  Force max component initial, final = 6.7586037e-05 1.4554191e-11
  Final line search alpha, max atom move = 1 1.4554191e-11
  Iterations, force evaluations = 36 72

MPI task timing breakdown:
Section |  min time  |  avg time  |  max time  |%varavg| %total
---------------------------------------------------------------
Pair    | 0.020612   | 0.020612   | 0.020612   |   0.0 | 93.98
Neigh   | 0          | 0          | 0          |   0.0 |  0.00
Comm    | 0.000352   | 0.000352   | 0.000352   |   0.0 |  1.60
Output  | 0.000664   | 0.000664   | 0.000664   |   0.0 |  3.03
Modify  | 0          | 0          | 0          |   0.0 |  0.00
Other   |            | 0.000305   |            |       |  1.39

Nlocal:             96 ave          96 max          96 min
Histogram: 1 0 0 0 0 0 0 0 0 0
Nghost:           1310 ave        1310 max        1310 min
Histogram: 1 0 0 0 0 0 0 0 0 0
Neighs:           6144 ave        6144 max        6144 min
Histogram: 1 0 0 0 0 0 0 0 0 0

Total # of neighbors = 6144
Ave neighs/atom = 64
Neighbor list builds = 0
Dangerous builds = 0
OMP_NUM_THREADS environment is not set. Defaulting to 1 thread. (src/comm.cpp:98)
  using 1 OpenMP thread(s) per MPI task
Loaded 1 plugins from F:\Lammps\LAMMPS 64-bit 2Aug2023\plugins

The 'box' command has been removed and will be ignored

Reading restart file ...
  restart file = 2 Aug 2023, LAMMPS = 2 Aug 2023
  restoring atom style atomic from restart
  triclinic box = (-0.014214012 -0.036929088 -0.015669905) to (6.354214 16.508732 20.722023) with tilt (0 0 0)
  1 by 1 by 1 MPI processor grid
  pair style eam/alloy stores no restart info
  96 atoms
  read_restart CPU = 0.000 seconds
Changing box ...
[...]
        67   0             -146.75386      0.085723622    0.070381651    0.13838473     0.048404485    21.314403      4.3125108e-07  3.2227277e-08  6.368428       16.545661      20.737693      2185.1277    
        68   0             -146.75386      0.085722923    0.070465833    0.13829874     0.048404195    21.314416     -2.1634217e-07 -1.5758363e-08  6.368428       16.545661      20.737693      2185.1277    
        69   0             -146.75386      0.085722138    0.070482549    0.1382801      0.048403762    21.314446      8.2138063e-08  6.4156347e-09  6.368428       16.545661      20.737693      2185.1277    
        70   0             -146.75386      0.085721776    0.070444607    0.13831722     0.048403498    21.314468     -3.682945e-08  -2.4919261e-09  6.368428       16.545661      20.737693      2185.1277    
        71   0             -146.75386      0.085721877    0.070399199    0.13836294     0.048403492    21.314473      2.8624575e-08  2.2602249e-09  6.368428       16.545661      20.737693      2185.1277    
        72   0             -146.75386      0.08572216     0.070373811    0.13838905     0.04840362     21.314466     -2.2137576e-08 -1.5722859e-09  6.368428       16.545661      20.737693      2185.1277    
        73   0             -146.75386      0.085722309    0.070377111    0.1383861      0.048403711    21.314459      9.7177172e-09  7.4019685e-10  6.368428       16.545661      20.737693      2185.1277    
        74   0             -146.75386      0.085722345    0.070393939    0.13836934     0.048403755    21.314454     -4.9832694e-09 -3.7937993e-10  6.368428       16.545661      20.737693      2185.1277    
        75   0             -146.75386      0.085722318    0.070410581    0.13835261     0.048403763    21.314452      6.327962e-10   4.2335164e-11  6.368428       16.545661      20.737693      2185.1277    
        76   0             -146.75386      0.085722274    0.070414126    0.13834895     0.048403743    21.314453      7.5837275e-10  4.4336687e-11  6.368428       16.545661      20.737693      2185.1277    
        77   0             -146.75386      0.085722248    0.070411842    0.13835118     0.048403724    21.314455     -1.1108988e-09 -9.9596108e-11  6.368428       16.545661      20.737693      2185.1277    
        78   0             -146.75386      0.08572224     0.070407541    0.13835547     0.048403714    21.314456      1.7555914e-09  1.2724826e-10  6.368428       16.545661      20.737693      2185.1277    
        79   0             -146.75386      0.085722244    0.070404747    0.13835827     0.048403712    21.314456     -2.4320937e-09 -1.6837206e-10  6.368428       16.545661      20.737693      2185.1277    
        80   0             -146.75386      0.085722251    0.070403323    0.13835972     0.048403714    21.314456      2.1106753e-09  1.4604228e-10  6.368428       16.545661      20.737693      2185.1277    
        81   0             -146.75386      0.085722256    0.070403987    0.13835906     0.048403718    21.314456     -1.707113e-09  -1.1527584e-10  6.368428       16.545661      20.737693      2185.1277    
        82   0             -146.75386      0.085722256    0.070405347    0.1383577      0.04840372     21.314456      1.0919165e-09  7.1223674e-11  6.368428       16.545661      20.737693      2185.1277    
        83   0             -146.75386      0.085722255    0.070405976    0.13835707     0.04840372     21.314456     -9.145914e-10  -6.64776e-11    6.368428       16.545661      20.737693      2185.1277    
        84   0             -146.75386      0.085722253    0.070406218    0.13835682     0.048403719    21.314456      1.1286588e-09  7.7615847e-11  6.368428       16.545661      20.737693      2185.1277    
        85   0             -146.75386      0.085722252    0.070406215    0.13835682     0.048403719    21.314456     -1.0302723e-09 -8.9939136e-11  6.368428       16.545661      20.737693      2185.1277    
        86   0             -146.75386      0.085722252    0.07040613     0.13835691     0.048403719    21.314456      9.0852047e-10  6.8893784e-11  6.368428       16.545661      20.737693      2185.1277    
        87   0             -146.75386      0.085722252    0.070406039    0.138357       0.048403719    21.314456     -8.6172992e-10 -5.8248391e-11  6.368428       16.545661      20.737693      2185.1277    
        88   0             -146.75386      0.085722252    0.070405978    0.13835706     0.048403719    21.314456      5.49257e-10    4.8008665e-11  6.368428       16.545661      20.737693      2185.1277    
        89   0             -146.75386      0.085722253    0.070405961    0.13835708     0.048403719    21.314456     -3.4731367e-10 -3.13494e-11    6.368428       16.545661      20.737693      2185.1277    
        90   0             -146.75386      0.085722253    0.070405993    0.13835705     0.048403719    21.314456      1.5749186e-10 -2.3810562e-12  6.368428       16.545661      20.737693      2185.1277    
        91   0             -146.75386      0.085722253    0.070406048    0.13835699     0.048403719    21.314456     -1.1097859e-10 -1.7281418e-11  6.368428       16.545661      20.737693      2185.1277    
        92   0             -146.75386      0.085722252    0.070406068    0.13835697     0.048403719    21.314456      9.1610881e-11  3.4000523e-12  6.368428       16.545661      20.737693      2185.1277    
        93   0             -146.75386      0.085722252    0.070406065    0.13835697     0.048403719    21.314456     -4.440568e-11   1.2381023e-11  6.368428       16.545661      20.737693      2185.1277    
Loop time of 0.016085 on 1 procs for 40 steps with 96 atoms

97.1% CPU use with 1 MPI tasks x 1 OpenMP threads

Minimization stats:
  Stopping criterion = force tolerance
  Energy initial, next-to-last, final = 
     -146.753861199253  -146.753861271514  -146.753861271513
  Force two-norm initial, final = 0.0006309906 9.7161066e-11
  Force max component initial, final = 9.9689263e-05 1.6856058e-11
  Final line search alpha, max atom move = 1 1.6856058e-11
  Iterations, force evaluations = 40 80

MPI task timing breakdown:
Section |  min time  |  avg time  |  max time  |%varavg| %total
---------------------------------------------------------------
Pair    | 0.015111   | 0.015111   | 0.015111   |   0.0 | 93.94
Neigh   | 0          | 0          | 0          |   0.0 |  0.00
Comm    | 0.000324   | 0.000324   | 0.000324   |   0.0 |  2.01
Output  | 0.000443   | 0.000443   | 0.000443   |   0.0 |  2.75
Modify  | 0          | 0          | 0          |   0.0 |  0.00
Other   |            | 0.000207   |            |       |  1.29

Nlocal:             96 ave          96 max          96 min
Histogram: 1 0 0 0 0 0 0 0 0 0
Nghost:           1310 ave        1310 max        1310 min
Histogram: 1 0 0 0 0 0 0 0 0 0
Neighs:           6144 ave        6144 max        6144 min
Histogram: 1 0 0 0 0 0 0 0 0 0

Total # of neighbors = 6144
Ave neighs/atom = 64
Neighbor list builds = 0
Dangerous builds = 0
OMP_NUM_THREADS environment is not set. Defaulting to 1 thread. (src/comm.cpp:98)
  using 1 OpenMP thread(s) per MPI task
Loaded 1 plugins from F:\Lammps\LAMMPS 64-bit 2Aug2023\plugins

The 'box' command has been removed and will be ignored

Reading restart file ...
  restart file = 2 Aug 2023, LAMMPS = 2 Aug 2023
  restoring atom style atomic from restart
  triclinic box = (-0.014214012 -0.036929088 -0.015669905) to (6.354214 16.508732 20.722023) with tilt (0 0 0)
  1 by 1 by 1 MPI processor grid
  pair style eam/alloy stores no restart info
  96 atoms
  read_restart CPU = 0.000 seconds
Changing box ...
  triclinic box = (-0.014214012 -0.036929088 -0.015669905) to (6.354214 16.508732 20.722023) with tilt (0.0016545661 0 0)
Neighbor list info ...
  update: every = 1 steps, delay = 0 steps, check = yes
  max neighbors/atom: 2000, page size: 100000
  master list distance cutoff = 8.5
  ghost atom cutoff = 8.5
  1 neighbor lists, perpetual/occasional/extra = 1 0 0
  (1) pair eam/alloy, perpetual
      attributes: half, newton on
      pair build: half/nsq/newton
      stencil: none
      bin: none
Setting up cg style minimization ...
  Unit style    : metal
  Current step  : 53
Per MPI rank memory allocation (min/avg/max) = 4.465 | 4.465 | 4.465 Mbytes
   Step          Temp          PotEng         Press           Pxx            Pyy            Pzz            Pxy            Pxz            Pyz             Lx             Ly             Lz           Volume    
        53   0             -146.75386      0.070034847    0.04187868     0.12773527     0.040490588   -22.078461     -0.00018491689  9.3487941e-06  6.368428       16.545661      20.737693      2185.1277    
        54   0             -146.75386      0.074445776    0.049122854    0.13182092     0.042393557   -21.83177       0.000199641   -1.0308983e-05  6.368428       16.545661      20.737693      2185.1277    
        55   0             -146.75386      0.08347657     0.06435624     0.13894128     0.047132193   -21.4117       -0.00016509202  1.7285866e-05  6.368428       16.545661      20.737693      2185.1277    
        56   0             -146.75386      0.085303638    0.067975014    0.13977276     0.048163138   -21.332464      6.2949003e-05 -4.9676726e-06  6.368428       16.545661      20.737693      2185.1277    
        57   0             -146.75386      0.085656438    0.069151745    0.13945287     0.048364699   -21.317385     -2.0806682e-05  2.6444851e-06  6.368428       16.545661      20.737693      2185.1277    
        58   0             -146.75386      0.08572317     0.069746619    0.13901913     0.048403756   -21.314517      1.2705515e-05 -3.5224654e-07  6.368428       16.545661      20.737693      2185.1277    
        59   0             -146.75386      0.085735929    0.070122234    0.138674       0.048411552   -21.313929     -8.4149916e-06  9.4131465e-07  6.368428       16.545661      20.737693      2185.1277    
        60   0             -146.75386      0.085733999    0.070458466    0.13833271     0.048410819   -21.313957      9.1499639e-06 -7.4491081e-07  6.368428       16.545661      20.737693      2185.1277    
        61   0             -146.75386      0.085726406    0.070666836    0.13810575     0.048406628   -21.314236     -5.346907e-06   3.8219847e-07  6.368428       16.545661      20.737693      2185.1277    
        62   0             -146.75386      0.085720296    0.070648113    0.13810976     0.048403019   -21.314496      2.0486634e-06 -1.5786881e-07  6.368428       16.545661      20.737693      2185.1277    
        63   0             -146.75386      0.085718468    0.070492965    0.13826073     0.048401715   -21.314601     -1.1924607e-06  8.8416023e-08  6.368428       16.545661      20.737693      2185.1277    
        64   0             -146.75386      0.085719844    0.070296767    0.13846056     0.048402208   -21.314579      1.2013931e-06 -8.63081e-08    6.368428       16.545661      20.737693      2185.1277    
        65   0             -146.75386      0.085722225    0.070211296    0.13855193     0.04840345    -21.314494     -7.8742749e-07  6.0873557e-08  6.368428       16.545661      20.737693      2185.1277    
        66   0             -146.75386      0.085723519    0.070273694    0.13849258     0.048404279   -21.314428      6.2434785e-07 -4.5524298e-08  6.368428       16.545661      20.737693      2185.1277    
        67   0             -146.75386      0.085723604    0.070382024    0.13838431     0.048404476   -21.314403     -4.3262089e-07  3.1803168e-08  6.368428       16.545661      20.737693      2185.1277    
        68   0             -146.75386      0.085722911    0.070468489    0.13829605     0.048404192   -21.314416      2.1731804e-07 -1.7005087e-08  6.368428       16.545661      20.737693      2185.1277    
        69   0             -146.75386      0.085722136    0.070485017    0.13827763     0.048403765   -21.314446     -8.1650843e-08  5.2825338e-09  6.368428       16.545661      20.737693      2185.1277    
        70   0             -146.75386      0.085721781    0.070445361    0.13831648     0.048403502   -21.314468      3.7721733e-08 -3.1645611e-09  6.368428       16.545661      20.737693      2185.1277    
        71   0             -146.75386      0.085721882    0.070398425    0.13836373     0.048403494   -21.314473     -2.9018697e-08  2.0515223e-09  6.368428       16.545661      20.737693      2185.1277    
        72   0             -146.75386      0.085722162    0.070372446    0.13839042     0.048403619   -21.314466      2.2886202e-08 -1.6887158e-09  6.368428       16.545661      20.737693      2185.1277    
        73   0             -146.75386      0.085722309    0.070375965    0.13838725     0.048403709   -21.314459     -9.7227859e-09  7.516546e-10   6.368428       16.545661      20.737693      2185.1277    
        74   0             -146.75386      0.085722344    0.070393514    0.13836976     0.048403754   -21.314454      4.7728233e-09 -3.5492649e-10  6.368428       16.545661      20.737693      2185.1277    
        75   0             -146.75386      0.085722317    0.070410908    0.13835228     0.048403763   -21.314452     -4.4967365e-10  2.9098806e-11  6.368428       16.545661      20.737693      2185.1277    
        76   0             -146.75386      0.085722273    0.070414523    0.13834855     0.048403742   -21.314453     -9.6145954e-10  8.0130674e-11  6.368428       16.545661      20.737693      2185.1277    
        77   0             -146.75386      0.085722248    0.070412095    0.13835092     0.048403724   -21.314455      1.2622154e-09 -8.2147342e-11  6.368428       16.545661      20.737693      2185.1277    
        78   0             -146.75386      0.085722241    0.070407631    0.13835538     0.048403714   -21.314456     -1.9245713e-09  1.4821249e-10  6.368428       16.545661      20.737693      2185.1277    
        79   0             -146.75386      0.085722244    0.070404734    0.13835829     0.048403712   -21.314456      2.574358e-09  -2.2180484e-10  6.368428       16.545661      20.737693      2185.1277    
        80   0             -146.75386      0.085722251    0.070403205    0.13835983     0.048403714   -21.314456     -2.1631297e-09  1.5841486e-10  6.368428       16.545661      20.737693      2185.1277    
        81   0             -146.75386      0.085722256    0.07040388     0.13835917     0.048403718   -21.314456      1.75102e-09   -1.0917001e-10  6.368428       16.545661      20.737693      2185.1277    
        82   0             -146.75386      0.085722256    0.070405296    0.13835775     0.04840372    -21.314456     -1.1525558e-09  8.1193562e-11  6.368428       16.545661      20.737693      2185.1277    
        83   0             -146.75386      0.085722255    0.070405952    0.13835709     0.04840372    -21.314456      9.6267169e-10 -5.5744782e-11  6.368428       16.545661      20.737693      2185.1277    
        84   0             -146.75386      0.085722253    0.070406213    0.13835683     0.048403719   -21.314456     -1.2156564e-09  8.332211e-11   6.368428       16.545661      20.737693      2185.1277    
        85   0             -146.75386      0.085722252    0.070406219    0.13835682     0.048403719   -21.314456      1.1207982e-09 -7.405727e-11   6.368428       16.545661      20.737693      2185.1277    
        86   0             -146.75386      0.085722252    0.070406136    0.1383569      0.048403719   -21.314456     -9.6006677e-10  6.3650742e-11  6.368428       16.545661      20.737693      2185.1277    
        87   0             -146.75386      0.085722252    0.070406043    0.138357       0.048403719   -21.314456      8.5173889e-10 -5.2373487e-11  6.368428       16.545661      20.737693      2185.1277    
        88   0             -146.75386      0.085722252    0.070405977    0.13835706     0.048403719   -21.314456     -5.1436537e-10  1.8661474e-11  6.368428       16.545661      20.737693      2185.1277    
        89   0             -146.75386      0.085722253    0.070405955    0.13835708     0.048403719   -21.314456      3.4275761e-10 -2.4809366e-11  6.368428       16.545661      20.737693      2185.1277    
        90   0             -146.75386      0.085722253    0.070405987    0.13835705     0.048403719   -21.314456     -1.5025711e-10  1.3530104e-11  6.368428       16.545661      20.737693      2185.1277    
        91   0             -146.75386      0.085722253    0.070406044    0.138357       0.048403719   -21.314456      9.8651023e-11 -3.483977e-11   6.368428       16.545661      20.737693      2185.1277    
        92   0             -146.75386      0.085722252    0.070406065    0.13835697     0.048403719   -21.314456     -8.8479385e-11 -8.4295386e-12  6.368428       16.545661      20.737693      2185.1277    
        93   0             -146.75386      0.085722252    0.070406064    0.13835697     0.048403719   -21.314456      3.8068916e-11 -2.1374107e-11  6.368428       16.545661      20.737693      2185.1277    
Loop time of 0.015533 on 1 procs for 40 steps with 96 atoms

100.6% CPU use with 1 MPI tasks x 1 OpenMP threads

Minimization stats:
  Stopping criterion = force tolerance
  Energy initial, next-to-last, final = 
     -146.753861196927  -146.753861271513  -146.753861271514
  Force two-norm initial, final = 0.00063644127 9.5043088e-11
  Force max component initial, final = 0.00010037994 1.6184373e-11
  Final line search alpha, max atom move = 1 1.6184373e-11
  Iterations, force evaluations = 40 80

MPI task timing breakdown:
Section |  min time  |  avg time  |  max time  |%varavg| %total
---------------------------------------------------------------
Pair    | 0.014687   | 0.014687   | 0.014687   |   0.0 | 94.55
Neigh   | 0          | 0          | 0          |   0.0 |  0.00
Comm    | 0.000288   | 0.000288   | 0.000288   |   0.0 |  1.85
Output  | 0.000364   | 0.000364   | 0.000364   |   0.0 |  2.34
Modify  | 0          | 0          | 0          |   0.0 |  0.00
Other   |            | 0.000194   |            |       |  1.25

Nlocal:             96 ave          96 max          96 min
Histogram: 1 0 0 0 0 0 0 0 0 0
Nghost:           1310 ave        1310 max        1310 min
Histogram: 1 0 0 0 0 0 0 0 0 0
Neighs:           6144 ave        6144 max        6144 min
Histogram: 1 0 0 0 0 0 0 0 0 0

Total # of neighbors = 6144
Ave neighs/atom = 64
Neighbor list builds = 0
Dangerous builds = 0
=========================================
Components of the Elastic Constant Tensor
=========================================
Elastic Constant C11all = 68.735911826513 GPa
Elastic Constant C22all = 68.7677938892251 GPa
Elastic Constant C33all = 69.8037704549539 GPa
Elastic Constant C12all = 26.0546992196539 GPa
Elastic Constant C13all = 16.0174071351631 GPa
Elastic Constant C23all = 16.0166747314735 GPa
Elastic Constant C44all = 12.7679763772566 GPa
Elastic Constant C55all = 12.7670812253071 GPa
Elastic Constant C66all = 21.3144555902955 GPa
Elastic Constant C14all = -3.46081138815225e-11 GPa
Elastic Constant C15all = -9.34249567361263e-11 GPa
Elastic Constant C16all = -1.15902175866583e-10 GPa
Elastic Constant C24all = 3.81321418188949e-11 GPa
Elastic Constant C25all = 1.01707334807974e-10 GPa
Elastic Constant C26all = 9.8250013685886e-11 GPa
Elastic Constant C34all = -7.68416802080215e-12 GPa
Elastic Constant C35all = 3.40381058095921e-12 GPa
Elastic Constant C36all = -1.22039332505128e-09 GPa
Elastic Constant C45all = 4.70081489621041e-11 GPa
Elastic Constant C46all = 3.79068962764214e-11 GPa
Elastic Constant C56all = 9.93359585234771e-11 GPa
=========================================
Average properties for a cubic crystal
=========================================
Bulk Modulus = 35.9427820381414 GPa
Shear Modulus 1 = 15.6165043976197 GPa
Shear Modulus 2 = 24.8697825140669 GPa
Poisson Ratio = 0.218875660443257
Total wall time: 0:00:00
