LAMMPS (2 Aug 2023 - Update 3)
OMP_NUM_THREADS environment is not set. Defaulting to 1 thread. (src/comm.cpp:98)
  using 1 OpenMP thread(s) per MPI task
Loaded 1 plugins from F:\Lammps\LAMMPS 64-bit 2Aug2023\plugins
Lattice spacing in x,y,z = 3.17 5.4906011 5.1765883
Created triclinic box = (0 0 0) to (6.34 16.471803 20.706353) with tilt (0 0 0)
  1 by 1 by 1 MPI processor grid
Created 96 atoms
  using lattice units in triclinic box = (0 0 0) to (6.34 16.471803 20.706353) with tilt (0 0 0)
  create_atoms CPU = 0.000 seconds
Neighbor list info ...
  update: every = 1 steps, delay = 0 steps, check = yes
  max neighbors/atom: 2000, page size: 100000
  master list distance cutoff = 8.5
  ghost atom cutoff = 8.5
  1 neighbor lists, perpetual/occasional/extra = 1 0 0
  (1) pair eam/alloy, perpetual
      attributes: half, newton on
      pair build: half/nsq/newton
      stencil: none
      bin: none
Setting up cg style minimization ...
  Unit style    : metal
  Current step  : 0
WARNING: Energy due to 3 extra global DOFs will be included in minimizer energies
 (src/min.cpp:228)
Per MPI rank memory allocation (min/avg/max) = 4.472 | 4.472 | 4.472 Mbytes
   Step          Temp          PotEng         Press           Pxx            Pyy            Pzz            Pxy            Pxz            Pyz             Lx             Ly             Lz           Volume    
         0   0             -146.72439      3772.2495      4425.4155      4425.4155      2465.9176      4.1001267e-12  1.1177022e-11 -7.5627415e-12  6.34           16.471803      20.706353      2162.39      
         1   0             -146.72575      3681.9194      4325.0865      4325.0865      2395.5851     -6.0779438e-12  6.9594384e-12 -9.5088338e-13  6.340634       16.47345       20.707507      2162.943     
         2   0             -146.72708      3591.118       4223.9692      4223.9692      2325.4156      8.1241232e-12  1.1633785e-11 -1.4285302e-11  6.341268       16.475098      20.708654      2163.4954    
         3   0             -146.72838      3500.0778      4122.6305      4122.6305      2254.9723      9.5039822e-14 -1.3151456e-12 -8.1682874e-13  6.341902       16.476745      20.709794      2164.0472    
         4   0             -146.72964      3409.5005      4021.7214      4021.7214      2185.0587     -2.6707095e-13  3.800625e-13   1.1386467e-11  6.342536       16.478392      20.710927      2164.5982    
         5   0             -146.73087      3320.0138      3921.937       3921.937       2116.1675      6.9626182e-12  6.4080733e-12 -1.6338533e-11  6.34317        16.480039      20.712052      2165.1486    
         6   0             -146.73207      3228.9018      3820.073       3820.073       2046.5595     -1.6991458e-12  6.242179e-12  -2.4486179e-12  6.343804       16.481686      20.71317       2165.6983    
         7   0             -146.73323      3138.4425      3719.2597      3719.2597      1976.808      -6.2534274e-12 -5.5323716e-12  1.3045722e-11  6.344438       16.483333      20.714279      2166.2473    
         8   0             -146.73437      3048.225       3618.3232      3618.3232      1908.0288     -3.6787634e-12  1.4468777e-12 -1.0825929e-12  6.345072       16.484981      20.71538       2166.7954    
         9   0             -146.73546      2958.4291      3517.496       3517.496       1840.2953      1.3590547e-11 -8.4738947e-12  1.3582853e-11  6.345706       16.486628      20.716472      2167.3427    
        10   0             -146.73653      2868.5093      3416.5005      3416.5005      1772.527      -1.73589e-11    5.8461287e-13 -8.9435513e-12  6.34634        16.488275      20.717556      2167.8892    
        11   0             -146.73756      2778.6041      3315.3793      3315.3793      1705.0537      4.0246108e-12  8.6131797e-13 -2.9428364e-11  6.346974       16.489922      20.718631      2168.4348    
        12   0             -146.73856      2688.9234      3214.6771      3214.6771      1637.4158      3.3008896e-12  2.7268219e-12 -2.2224623e-11  6.347608       16.491569      20.719696      2168.9796    
        13   0             -146.73953      2599.2424      3113.8114      3113.8114      1570.1044      1.1627083e-11  4.2019426e-12  1.5762409e-11  6.348242       16.493217      20.720752      2169.5234    
        14   0             -146.74046      2509.9394      3013.2832      3013.2832      1503.252      -7.2234844e-13 -8.1968618e-13 -2.4805753e-11  6.348876       16.494864      20.721796      2170.0662    
        15   0             -146.74136      2420.0874      2911.7719      2911.7719      1436.7184      1.9411471e-12  9.1679506e-12 -1.2025893e-11  6.34951        16.496511      20.72283       2170.6079    
        16   0             -146.74223      2331.7803      2812.0096      2812.0096      1371.3218      6.2674734e-12  8.3259083e-12  1.0189765e-11  6.350144       16.498158      20.723852      2171.1485    
        17   0             -146.74306      2242.8217      2711.3282      2711.3282      1305.8086     -2.1910231e-12  2.7438981e-12  2.2278814e-11  6.350778       16.499805      20.724863      2171.6879    
        18   0             -146.74387      2153.3007      2609.5744      2609.5744      1240.7532     -4.6624474e-12  5.4250211e-13  2.188433e-11   6.351412       16.501452      20.725861      2172.2261    
        19   0             -146.74464      2064.8459      2509.0414      2509.0414      1176.455       7.009851e-12  -5.1371463e-12 -1.456207e-11   6.352046       16.5031        20.726846      2172.7631    
        20   0             -146.74538      1976.6234      2408.4834      2408.4834      1112.9034      6.343119e-12  -2.2814767e-12 -2.3264923e-11  6.35268        16.504747      20.727818      2173.2988    
        21   0             -146.74608      1888.8568      2308.4282      2308.4282      1049.7139     -1.0294807e-11 -6.4438433e-13 -7.0779993e-12  6.353314       16.506394      20.728776      2173.833     
        22   0             -146.74676      1800.8585      2207.9779      2207.9779      986.61968     -5.4043441e-12  2.1474215e-13  1.3631014e-11  6.353948       16.508041      20.729718      2174.3658    
        23   0             -146.7474       1713.1586      2107.6256      2107.6256      924.22464      1.5795029e-12  8.2808888e-13 -3.6599484e-12  6.354582       16.509688      20.730645      2174.8969    
        24   0             -146.74801      1625.0375      2006.4409      2006.4409      862.2308      -9.9039858e-12 -6.8479572e-12  1.5147272e-11  6.355216       16.511336      20.731554      2175.4263    
        25   0             -146.74859      1537.8585      1906.2713      1906.2713      801.03281     -2.8917941e-12  3.9545028e-12 -2.3338719e-11  6.35585        16.512983      20.732444      2175.9538    
        26   0             -146.74914      1451.0089      1806.3575      1806.3575      740.31157     -2.6459145e-12 -7.0489613e-13  1.8705287e-11  6.356484       16.51463       20.733316      2176.4794    
        27   0             -146.74965      1363.9125      1705.8477      1705.8477      680.0421       2.9312544e-12 -1.021343e-14   1.375749e-11   6.357118       16.516277      20.734165      2177.0028    
        28   0             -146.75014      1277.3107      1605.5771      1605.5771      620.77791     -3.5432121e-12  1.9400873e-12 -1.0343729e-11  6.357752       16.517924      20.734992      2177.5239    
        29   0             -146.75059      1191.6897      1506.1782      1506.1782      562.71249     -7.4063066e-12 -7.339951e-12  -3.6546627e-12  6.358386       16.519571      20.735794      2178.0424    
        30   0             -146.75101      1105.9171      1406.1446      1406.1446      505.46209     -5.2255427e-12  2.6535959e-12 -8.1138798e-12  6.35902        16.521219      20.736568      2178.5582    
        31   0             -146.7514       1021.3416      1307.3531      1307.3531      449.31863     -5.6732775e-12 -2.3264519e-12 -1.1020035e-12  6.359654       16.522866      20.737314      2179.0709    
        32   0             -146.75176      936.15646      1207.341       1207.341       393.78739     -1.2292629e-12  3.2338285e-12 -1.3924845e-11  6.360288       16.524513      20.738027      2179.5803    
        33   0             -146.75209      851.68804      1107.8117      1107.8117      339.44069      7.761428e-12  -2.0397971e-12 -4.946508e-12   6.360922       16.52616       20.738703      2180.086     
        34   0             -146.75239      768.23487      1009.0818      1009.0818      286.54098      4.2621957e-12  1.1410041e-11  2.7928598e-11  6.361556       16.527807      20.739339      2180.5874    
        35   0             -146.75266      685.66815      910.64299      910.64299      235.71846      3.6597604e-12  4.4855002e-12 -1.7401702e-11  6.36219        16.529454      20.739928      2181.084     
        36   0             -146.7529       603.98749      812.5444       812.5444       186.87366     -5.3711963e-12  3.037223e-12  -2.4257016e-12  6.362824       16.531102      20.740465      2181.5752    
        37   0             -146.75312      523.66613      715.50454      715.50454      139.9893      -2.3283597e-12 -3.1893943e-12  2.2356329e-11  6.363458       16.532749      20.740942      2182.0602    
        38   0             -146.7533       443.54212      617.95239      617.95239      94.721573     -4.2532932e-12 -1.2632535e-12  1.6554734e-11  6.364092       16.534396      20.741348      2182.5377    
        39   0             -146.75346      364.15561      520.27026      520.27026      51.926321     -1.223769e-11   3.3306071e-12  1.5603945e-11  6.364726       16.536043      20.741666      2183.0061    
        40   0             -146.75359      287.36503      424.47945      424.47945      13.1362        1.1781977e-11  2.2912228e-12  3.1995653e-11  6.36536        16.53769       20.741873      2183.4628    
        41   0             -146.75369      213.16605      329.97907      329.97907     -20.459999     -5.9152497e-12  5.0905763e-14 -3.6855773e-12  6.365994       16.539338      20.741937      2183.9045    
        42   0             -146.75377      141.60192      236.24291      236.24291     -47.680063     -5.0539669e-12 -3.2878778e-12  2.9305883e-11  6.366628       16.540985      20.741809      2184.326     
        43   0             -146.75382      75.175928      145.41715      145.41715     -65.306512     -6.813747e-12   2.6257606e-12 -1.7413474e-11  6.367262       16.542632      20.74139       2184.7169    
        44   0             -146.75385      16.609202      57.914826      57.914826     -66.002046      1.2439913e-11  9.1480421e-12 -1.0949158e-11  6.367896       16.544279      20.740457      2185.0538    
        45   0             -146.75386     -13.965589     -8.721328      -8.721328      -24.454112      3.9326532e-12  8.9947359e-12 -7.0513032e-12  6.3684508      16.545721      20.738387      2185.2164    
        46   0             -146.75386      1.7061536      3.8327204      3.8327204     -2.5469799      4.1516023e-12 -6.176526e-12  -9.2088237e-12  6.3683959      16.545578      20.737817      2185.1186    
        47   0             -146.75386     -0.068869903   -0.058756566   -0.058756566   -0.089096575    9.1579065e-12  1.8315813e-13 -4.6501814e-12  6.3684283      16.545662      20.737695      2185.1281    
        48   0             -146.75386     -0.0029012471  -0.0059305395  -0.0059305394   0.0031573377  -4.375445e-13   3.9277251e-12 -1.3716511e-11  6.3684281      16.545661      20.737693      2185.1277    
        49   0             -146.75386      0.0013997657   0.00072980202  0.00072980203  0.002739693   -1.5822831e-12 -6.1663249e-12  7.9063275e-12  6.368428       16.545661      20.737693      2185.1277    
        50   0             -146.75386     -2.9842816e-06 -4.3020426e-06 -4.3020574e-06 -3.4874495e-07 -7.1635194e-12  1.0551945e-11 -1.9893012e-11  6.368428       16.545661      20.737693      2185.1277    
        51   0             -146.75386     -3.12852e-07   -1.638212e-07  -1.6378623e-07 -6.1094859e-07  9.1782592e-12  1.7908798e-12  2.6486706e-11  6.368428       16.545661      20.737693      2185.1277    
        52   0             -146.75386      6.0336954e-08  1.2320656e-07  1.233651e-07  -6.5560794e-08 -8.455802e-12  -3.3578997e-13 -1.4886689e-11  6.368428       16.545661      20.737693      2185.1277    
        53   0             -146.75386     -2.2261349e-11 -3.67283e-11   -8.0485295e-11  5.0429548e-11  6.4003604e-12  4.0498306e-12 -2.3729158e-11  6.368428       16.545661      20.737693      2185.1277    
Loop time of 0.015727 on 1 procs for 53 steps with 96 atoms

99.4% CPU use with 1 MPI tasks x 1 OpenMP threads

Minimization stats:
  Stopping criterion = force tolerance
  Energy initial, next-to-last, final = 
     -146.724386219683  -146.753862724566  -146.753862724546
  Force two-norm initial, final = 9.0788294 2.4545072e-13
  Force max component initial, final = 5.9727965 1.0927983e-13
  Final line search alpha, max atom move = 1 1.0927983e-13
  Iterations, force evaluations = 53 61

MPI task timing breakdown:
Section |  min time  |  avg time  |  max time  |%varavg| %total
---------------------------------------------------------------
Pair    | 0.012411   | 0.012411   | 0.012411   |   0.0 | 78.92
Neigh   | 0          | 0          | 0          |   0.0 |  0.00
Comm    | 0.000229   | 0.000229   | 0.000229   |   0.0 |  1.46
Output  | 0.000561   | 0.000561   | 0.000561   |   0.0 |  3.57
Modify  | 0          | 0          | 0          |   0.0 |  0.00
Other   |            | 0.002526   |            |       | 16.06

Nlocal:             96 ave          96 max          96 min
Histogram: 1 0 0 0 0 0 0 0 0 0
Nghost:           1310 ave        1310 max        1310 min
Histogram: 1 0 0 0 0 0 0 0 0 0
Neighs:           6144 ave        6144 max        6144 min
Histogram: 1 0 0 0 0 0 0 0 0 0

Total # of neighbors = 6144
Ave neighs/atom = 64
Neighbor list builds = 0
Dangerous builds = 0
Displacing atoms ...
System init for write_restart ...
OMP_NUM_THREADS environment is not set. Defaulting to 1 thread. (src/comm.cpp:98)
  using 1 OpenMP thread(s) per MPI task
Loaded 1 plugins from F:\Lammps\LAMMPS 64-bit 2Aug2023\plugins

The 'box' command has been removed and will be ignored

Reading restart file ...
  restart file = 2 Aug 2023, LAMMPS = 2 Aug 2023
  restoring atom style atomic from restart
  triclinic box = (-0.014214012 -0.036929088 -0.015669905) to (6.354214 16.508732 20.722023) with tilt (0 0 0)
  1 by 1 by 1 MPI processor grid
  pair style eam/alloy stores no restart info
  96 atoms
  read_restart CPU = 0.000 seconds
Changing box ...
  triclinic box = (-0.014214012 -0.036929088 -0.015669905) to (6.3541503 16.508732 20.722023) with tilt (0 0 0)
  triclinic box = (-0.014214012 -0.036929088 -0.015669905) to (6.3541503 16.508732 20.722023) with tilt (0 0 0)
  triclinic box = (-0.014214012 -0.036929088 -0.015669905) to (6.3541503 16.508732 20.722023) with tilt (0 0 0)
Neighbor list info ...
  update: every = 1 steps, delay = 0 steps, check = yes
  max neighbors/atom: 2000, page size: 100000
  master list distance cutoff = 8.5
  ghost atom cutoff = 8.5
  1 neighbor lists, perpetual/occasional/extra = 1 0 0
  (1) pair eam/alloy, perpetual
      attributes: half, newton on
      pair build: half/nsq/newton
      stencil: none
      bin: none
Setting up cg style minimization ...
  Unit style    : metal
  Current step  : 53
Per MPI rank memory allocation (min/avg/max) = 4.465 | 4.465 | 4.465 Mbytes
   Step          Temp          PotEng         Press           Pxx            Pyy            Pzz            Pxy            Pxz            Pyz             Lx             Ly             Lz           Volume    
        53   0             -146.75386      3.693614       6.9587753      2.520403       1.6016637     -0.0085101845   1.3051792e-05  3.0377218e-05  6.3683643      16.545661      20.737693      2185.1058    
        54   0             -146.75386      3.6934013      6.9390858      2.5396834      1.6014348     -0.0065664128  -1.661654e-06  -7.3523251e-06  6.3683643      16.545661      20.737693      2185.1058    
        55   0             -146.75386      3.6934183      6.9111788      2.5676671      1.601409      -0.0037880932  -6.7400369e-07  4.9228881e-06  6.3683643      16.545661      20.737693      2185.1058    
        56   0             -146.75386      3.6934588      6.891271       2.5876829      1.6014226     -0.0018083321  -3.6953465e-07 -3.2452291e-06  6.3683643      16.545661      20.737693      2185.1058    
        57   0             -146.75386      3.6934905      6.8786795      2.6003548      1.6014372     -0.00055706844 -6.6447017e-08  1.6970892e-06  6.3683643      16.545661      20.737693      2185.1058    
        58   0             -146.75386      3.6935055      6.8730992      2.6059728      1.6014446     -3.4854955e-06 -1.8838436e-08 -1.423759e-06   6.3683643      16.545661      20.737693      2185.1058    
        59   0             -146.75386      3.69351        6.8714272      2.6076561      1.6014468      0.00016154743  1.4833885e-08  1.0173405e-06  6.3683643      16.545661      20.737693      2185.1058    
        60   0             -146.75386      3.6935094      6.8715688      2.6075131      1.6014464      0.00014641746  4.3037725e-08 -9.5919125e-07  6.3683643      16.545661      20.737693      2185.1058    
        61   0             -146.75386      3.6935069      6.8723908      2.6066848      1.601445       6.4042071e-05  4.1689294e-08  5.6559328e-07  6.3683643      16.545661      20.737693      2185.1058    
        62   0             -146.75386      3.6935043      6.873239       2.6058304      1.6014436     -2.0310341e-05  2.896345e-08  -2.2896202e-07  6.3683643      16.545661      20.737693      2185.1058    
        63   0             -146.75386      3.6935032      6.8736015      2.6054652      1.601443      -5.5892785e-05  1.3966331e-08  1.427521e-07   6.3683643      16.545661      20.737693      2185.1058    
        64   0             -146.75386      3.6935035      6.8734787      2.6055888      1.6014431     -4.3114801e-05  2.1622699e-09 -1.245416e-07   6.3683643      16.545661      20.737693      2185.1058    
        65   0             -146.75386      3.6935045      6.873145       2.6059247      1.6014436     -9.6927192e-06 -2.3906475e-09  8.6769049e-08  6.3683643      16.545661      20.737693      2185.1058    
        66   0             -146.75386      3.6935052      6.8728921      2.6061794      1.601444       1.5259214e-05 -1.4654822e-09 -7.2254161e-08  6.3683643      16.545661      20.737693      2185.1058    
        67   0             -146.75386      3.6935054      6.8728193      2.6062527      1.6014441      2.2155545e-05 -3.4895795e-11  4.8611383e-08  6.3683643      16.545661      20.737693      2185.1058    
        68   0             -146.75386      3.6935051      6.8728928      2.6061787      1.601444       1.4581887e-05  9.5376626e-10 -2.4166135e-08  6.3683643      16.545661      20.737693      2185.1058    
        69   0             -146.75386      3.6935048      6.8730197      2.6060508      1.6014438      1.9044695e-06  1.066196e-09   9.2717733e-09  6.3683643      16.545661      20.737693      2185.1058    
        70   0             -146.75386      3.6935045      6.8731098      2.6059601      1.6014436     -6.9265945e-06  6.3316122e-10 -4.6502105e-09  6.3683643      16.545661      20.737693      2185.1058    
        71   0             -146.75386      3.6935045      6.8731175      2.6059524      1.6014436     -7.5464507e-06  2.787975e-10   3.843457e-09   6.3683643      16.545661      20.737693      2185.1058    
        72   0             -146.75386      3.6935046      6.8730789      2.6059912      1.6014437     -3.6270777e-06  5.7432107e-11 -3.2059636e-09  6.3683643      16.545661      20.737693      2185.1058    
        73   0             -146.75386      3.6935047      6.873048       2.6060223      1.6014437     -5.6751229e-07  6.5339785e-12  1.5518996e-09  6.3683643      16.545661      20.737693      2185.1058    
        74   0             -146.75386      3.6935047      6.8730301      2.6060404      1.6014437      1.159748e-06  -1.194483e-11  -9.3874644e-10  6.3683643      16.545661      20.737693      2185.1058    
        75   0             -146.75386      3.6935048      6.8730246      2.6060459      1.6014438      1.6461862e-06 -1.4446745e-11  2.6759807e-10  6.3683643      16.545661      20.737693      2185.1058    
        76   0             -146.75386      3.6935047      6.8730314      2.6060391      1.6014437      9.5928586e-07  1.9308116e-12 -1.1666614e-10  6.3683643      16.545661      20.737693      2185.1058    
        77   0             -146.75386      3.6935047      6.8730382      2.6060322      1.6014437      2.8983159e-07 -4.280093e-12   4.8079152e-11  6.3683643      16.545661      20.737693      2185.1058    
        78   0             -146.75386      3.6935047      6.873043       2.6060274      1.6014437     -1.6622021e-07  3.0030608e-12 -3.8454835e-11  6.3683643      16.545661      20.737693      2185.1058    
        79   0             -146.75386      3.6935047      6.8730444      2.606026       1.6014437     -2.9681801e-07 -2.0529183e-12  1.1965291e-11  6.3683643      16.545661      20.737693      2185.1058    
        80   0             -146.75386      3.6935047      6.8730438      2.6060266      1.6014437     -2.3121856e-07  9.2381324e-12 -1.6667391e-11  6.3683643      16.545661      20.737693      2185.1058    
        81   0             -146.75386      3.6935047      6.8730422      2.6060281      1.6014437     -8.1297685e-08 -4.1846972e-13  7.9960389e-12  6.3683643      16.545661      20.737693      2185.1058    
        82   0             -146.75386      3.6935047      6.873041       2.6060294      1.6014437      3.7767978e-08  1.029003e-12   1.8363092e-11  6.3683643      16.545661      20.737693      2185.1058    
        83   0             -146.75386      3.6935047      6.8730408      2.6060296      1.6014437      5.1100917e-08  4.8715472e-13  2.5095086e-11  6.3683643      16.545661      20.737693      2185.1058    
        84   0             -146.75386      3.6935047      6.873041       2.6060293      1.6014437      2.8736901e-08  6.5161713e-12  4.4491126e-12  6.3683643      16.545661      20.737693      2185.1058    
        85   0             -146.75386      3.6935047      6.8730412      2.6060292      1.6014437      9.4420798e-09  1.097688e-11  -2.0317623e-12  6.3683643      16.545661      20.737693      2185.1058    
        86   0             -146.75386      3.6935047      6.8730413      2.606029       1.6014437     -5.9378818e-10 -4.1147402e-12 -4.2649489e-12  6.3683643      16.545661      20.737693      2185.1058    
        87   0             -146.75386      3.6935047      6.8730414      2.606029       1.6014437     -3.8086125e-09  4.0600466e-12  1.1501796e-11  6.3683643      16.545661      20.737693      2185.1058    
        88   0             -146.75386      3.6935047      6.8730414      2.606029       1.6014437     -3.0268741e-09  1.4843591e-12 -1.3393376e-12  6.3683643      16.545661      20.737693      2185.1058    
        89   0             -146.75386      3.6935047      6.8730414      2.606029       1.6014437     -9.7082176e-10  1.9626103e-12 -8.5302059e-12  6.3683643      16.545661      20.737693      2185.1058    
Loop time of 0.014659 on 1 procs for 36 steps with 96 atoms

106.6% CPU use with 1 MPI tasks x 1 OpenMP threads

Minimization stats:
  Stopping criterion = force tolerance
  Energy initial, next-to-last, final = 
     -146.753862655377  -146.753862677705  -146.753862677706
  Force two-norm initial, final = 0.00050055983 8.1326917e-11
  Force max component initial, final = 6.7765866e-05 1.5490876e-11
  Final line search alpha, max atom move = 1 1.5490876e-11
  Iterations, force evaluations = 36 72

MPI task timing breakdown:
Section |  min time  |  avg time  |  max time  |%varavg| %total
---------------------------------------------------------------
Pair    | 0.013891   | 0.013891   | 0.013891   |   0.0 | 94.76
Neigh   | 0          | 0          | 0          |   0.0 |  0.00
Comm    | 0.000272   | 0.000272   | 0.000272   |   0.0 |  1.86
Output  | 0.000322   | 0.000322   | 0.000322   |   0.0 |  2.20
Modify  | 0          | 0          | 0          |   0.0 |  0.00
Other   |            | 0.000174   |            |       |  1.19

Nlocal:             96 ave          96 max          96 min
Histogram: 1 0 0 0 0 0 0 0 0 0
Nghost:           1310 ave        1310 max        1310 min
Histogram: 1 0 0 0 0 0 0 0 0 0
Neighs:           6144 ave        6144 max        6144 min
Histogram: 1 0 0 0 0 0 0 0 0 0

Total # of neighbors = 6144
Ave neighs/atom = 64
Neighbor list builds = 0
Dangerous builds = 0
OMP_NUM_THREADS environment is not set. Defaulting to 1 thread. (src/comm.cpp:98)
  using 1 OpenMP thread(s) per MPI task
Loaded 1 plugins from F:\Lammps\LAMMPS 64-bit 2Aug2023\plugins

The 'box' command has been removed and will be ignored

Reading restart file ...
  restart file = 2 Aug 2023, LAMMPS = 2 Aug 2023
  restoring atom style atomic from restart
  triclinic box = (-0.014214012 -0.036929088 -0.015669905) to (6.354214 16.508732 20.722023) with tilt (0 0 0)
  1 by 1 by 1 MPI processor grid
  pair style eam/alloy stores no restart info
  96 atoms
  read_restart CPU = 0.000 seconds
Changing box ...
  triclinic box = (-0.014214012 -0.036929088 -0.015669905) to (6.3542777 16.508732 20.722023) with tilt (0 0 0)
  triclinic box = (-0.014214012 -0.036929088 -0.015669905) to (6.3542777 16.508732 20.722023) with tilt (0 0 0)
  triclinic box = (-0.014214012 -0.036929088 -0.015669905) to (6.3542777 16.508732 20.722023) with tilt (0 0 0)
Neighbor list info ...
  update: every = 1 steps, delay = 0 steps, check = yes
  max neighbors/atom: 2000, page size: 100000
  master list distance cutoff = 8.5
  ghost atom cutoff = 8.5
  1 neighbor lists, perpetual/occasional/extra = 1 0 0
  (1) pair eam/alloy, perpetual
      attributes: half, newton on
      pair build: half/nsq/newton
      stencil: none
      bin: none
Setting up cg style minimization ...
  Unit style    : metal
  Current step  : 53
Per MPI rank memory allocation (min/avg/max) = 4.465 | 4.465 | 4.465 Mbytes
   Step          Temp          PotEng         Press           Pxx            Pyy            Pzz            Pxy            Pxz            Pyz             Lx             Ly             Lz           Volume    
        53   0             -146.75386     -3.6877628     -6.9265369     -2.5384655     -1.5982862     -0.0085770362   1.3051912e-05 -1.0693204e-05  6.3684917      16.545661      20.737693      2185.1495    
        54   0             -146.75386     -3.6879813     -6.9117063     -2.5537215     -1.598516      -0.0066292355  -1.6426187e-06  6.6794981e-06  6.3684917      16.545661      20.737693      2185.1495    
        55   0             -146.75386     -3.6879765     -6.8903618     -2.5750216     -1.5985461     -0.0038798135  -6.8914799e-07 -5.9690722e-06  6.3684917      16.545661      20.737693      2185.1495    
        56   0             -146.75386     -3.6879471     -6.8750691     -2.5902346     -1.5985377     -0.001913487   -3.8500471e-07  2.9570501e-06  6.3684917      16.545661      20.737693      2185.1495    
        57   0             -146.75386     -3.6879225     -6.8650367     -2.6002043     -1.5985267     -0.00062260252 -7.2709685e-08 -1.7388261e-06  6.3684917      16.545661      20.737693      2185.1495    
        58   0             -146.75386     -3.68791       -6.8602775     -2.6049319     -1.5985205     -8.9608609e-06 -1.9043314e-08  1.3721889e-06  6.3684917      16.545661      20.737693      2185.1495    
        59   0             -146.75386     -3.687906      -6.8587744     -2.6064249     -1.5985186      0.00018570292  1.6595006e-08 -1.0360838e-06  6.3684917      16.545661      20.737693      2185.1495    
        60   0             -146.75386     -3.6879065     -6.8588989     -2.6063017     -1.598519       0.00017067689  4.4905648e-08  9.533156e-07   6.3684917      16.545661      20.737693      2185.1495    
        61   0             -146.75386     -3.6879088     -6.859629      -2.6055771     -1.5985202      7.7268056e-05  4.2646087e-08 -5.3907283e-07  6.3684917      16.545661      20.737693      2185.1495    
        62   0             -146.75386     -3.6879111     -6.8604041     -2.6048077     -1.5985215     -2.2543594e-05  2.8781032e-08  2.4711266e-07  6.3684917      16.545661      20.737693      2185.1495    
        63   0             -146.75386     -3.6879122     -6.8607455     -2.6044689     -1.5985221     -6.6990662e-05  1.3236871e-08 -1.3186435e-07  6.3684917      16.545661      20.737693      2185.1495    
        64   0             -146.75386     -3.6879119     -6.8606331     -2.6045806     -1.598522      -5.3110548e-05  1.8109659e-09  1.3065747e-07  6.3684917      16.545661      20.737693      2185.1495    
        65   0             -146.75386     -3.687911      -6.8603227     -2.6048889     -1.5985215     -1.3431593e-05 -2.4312922e-09 -8.732941e-08   6.3684917      16.545661      20.737693      2185.1495    
        66   0             -146.75386     -3.6879104     -6.8600811     -2.6051288     -1.5985212      1.784352e-05  -1.4614998e-09  7.3586681e-08  6.3684917      16.545661      20.737693      2185.1495    
        67   0             -146.75386     -3.6879102     -6.8600094     -2.6052        -1.5985211      2.740446e-05  -1.3009187e-11 -5.001905e-08   6.3684917      16.545661      20.737693      2185.1495    
        68   0             -146.75386     -3.6879104     -6.8600789     -2.605131      -1.5985212      1.8718381e-05  9.7230575e-10  2.3421793e-08  6.3684917      16.545661      20.737693      2185.1495    
        69   0             -146.75386     -3.6879107     -6.860201      -2.6050098     -1.5985214      3.0583435e-06  1.0748479e-09 -9.6850603e-09  6.3684917      16.545661      20.737693      2185.1495    
        70   0             -146.75386     -3.687911      -6.86029       -2.6049214     -1.5985215     -8.5167856e-06  6.3209413e-10  4.8194818e-09  6.3684917      16.545661      20.737693      2185.1495    
        71   0             -146.75386     -3.687911      -6.8602981     -2.6049134     -1.5985215     -9.7095493e-06  2.7002713e-10 -3.8236464e-09  6.3684917      16.545661      20.737693      2185.1495    
        72   0             -146.75386     -3.6879109     -6.8602605     -2.6049507     -1.5985215     -4.9559531e-06  6.2345653e-11  3.3181862e-09  6.3684917      16.545661      20.737693      2185.1495    
        73   0             -146.75386     -3.6879108     -6.8602299     -2.6049811     -1.5985214     -9.9695281e-07  1.2238405e-11 -1.5602288e-09  6.3684917      16.545661      20.737693      2185.1495    
        74   0             -146.75386     -3.6879108     -6.8602116     -2.6049993     -1.5985214      1.4093173e-06 -8.6414176e-12  9.8814391e-10  6.3684917      16.545661      20.737693      2185.1495    
        75   0             -146.75386     -3.6879107     -6.8602059     -2.6050049     -1.5985214      2.2015291e-06 -2.0060706e-11 -2.7579875e-10  6.3684917      16.545661      20.737693      2185.1495    
        76   0             -146.75386     -3.6879108     -6.8602127     -2.6049982     -1.5985214      1.3378325e-06 -5.2237713e-12  1.2470902e-10  6.3684917      16.545661      20.737693      2185.1495    
        77   0             -146.75386     -3.6879108     -6.8602196     -2.6049913     -1.5985214      4.423412e-07   1.0938503e-12 -4.956407e-11   6.3684917      16.545661      20.737693      2185.1495    
        78   0             -146.75386     -3.6879108     -6.8602245     -2.6049864     -1.5985214     -2.077061e-07  -3.9849222e-12  5.2586209e-11  6.3684917      16.545661      20.737693      2185.1495    
        79   0             -146.75386     -3.6879108     -6.860226      -2.6049849     -1.5985214     -4.1491256e-07 -7.9545814e-12 -2.6682495e-11  6.3684917      16.545661      20.737693      2185.1495    
        80   0             -146.75386     -3.6879108     -6.8602254     -2.6049855     -1.5985214     -3.4277994e-07 -2.5896271e-12  1.8813272e-11  6.3684917      16.545661      20.737693      2185.1495    
        81   0             -146.75386     -3.6879108     -6.8602238     -2.6049871     -1.5985214     -1.3323778e-07 -9.671672e-12  -2.7104773e-11  6.3684917      16.545661      20.737693      2185.1495    
        82   0             -146.75386     -3.6879108     -6.8602225     -2.6049884     -1.5985214      4.5327949e-08  2.4001111e-12  1.1919083e-11  6.3684917      16.545661      20.737693      2185.1495    
        83   0             -146.75386     -3.6879108     -6.8602223     -2.6049886     -1.5985214      7.0478653e-08 -3.6402321e-12 -1.2211495e-11  6.3684917      16.545661      20.737693      2185.1495    
        84   0             -146.75386     -3.6879108     -6.8602225     -2.6049884     -1.5985214      4.1920366e-08  8.0436157e-12  7.6632125e-12  6.3684917      16.545661      20.737693      2185.1495    
        85   0             -146.75386     -3.6879108     -6.8602228     -2.6049882     -1.5985214      1.510287e-08  -6.1942455e-12 -1.1129251e-11  6.3684917      16.545661      20.737693      2185.1495    
        86   0             -146.75386     -3.6879108     -6.8602229     -2.6049881     -1.5985214      1.1024739e-10  3.7101877e-12  2.8403839e-12  6.3684917      16.545661      20.737693      2185.1495    
        87   0             -146.75386     -3.6879108     -6.8602229     -2.604988      -1.5985214     -5.2947609e-09  3.2217708e-12 -5.4128003e-12  6.3684917      16.545661      20.737693      2185.1495    
        88   0             -146.75386     -3.6879108     -6.8602229     -2.604988      -1.5985214     -4.516508e-09   6.7920474e-13 -5.6163173e-14  6.3684917      16.545661      20.737693      2185.1495    
        89   0             -146.75386     -3.6879108     -6.8602229     -2.6049881     -1.5985214     -1.6535621e-09 -6.9014324e-12 -9.6459753e-12  6.3684917      16.545661      20.737693      2185.1495    
Loop time of 0.014561 on 1 procs for 36 steps with 96 atoms

107.3% CPU use with 1 MPI tasks x 1 OpenMP threads

Minimization stats:
  Stopping criterion = force tolerance
  Energy initial, next-to-last, final = 
     -146.753862655712  -146.753862677763  -146.753862677763
  Force two-norm initial, final = 0.00049958634 8.1610485e-11
  Force max component initial, final = 6.7749558e-05 1.5335084e-11
  Final line search alpha, max atom move = 1 1.5335084e-11
  Iterations, force evaluations = 36 72

MPI task timing breakdown:
Section |  min time  |  avg time  |  max time  |%varavg| %total
---------------------------------------------------------------
Pair    | 0.013809   | 0.013809   | 0.013809   |   0.0 | 94.84
Neigh   | 0          | 0          | 0          |   0.0 |  0.00
Comm    | 0.000266   | 0.000266   | 0.000266   |   0.0 |  1.83
Output  | 0.000301   | 0.000301   | 0.000301   |   0.0 |  2.07
Modify  | 0          | 0          | 0          |   0.0 |  0.00
Other   |            | 0.000185   |            |       |  1.27

Nlocal:             96 ave          96 max          96 min
Histogram: 1 0 0 0 0 0 0 0 0 0
Nghost:           1310 ave        1310 max        1310 min
Histogram: 1 0 0 0 0 0 0 0 0 0
Neighs:           6144 ave        6144 max        6144 min
Histogram: 1 0 0 0 0 0 0 0 0 0

Total # of neighbors = 6144
Ave neighs/atom = 64
Neighbor list builds = 0
Dangerous builds = 0
OMP_NUM_THREADS environment is not set. Defaulting to 1 thread. (src/comm.cpp:98)
  using 1 OpenMP thread(s) per MPI task
Loaded 1 plugins from F:\Lammps\LAMMPS 64-bit 2Aug2023\plugins

The 'box' command has been removed and will be ignored

Reading restart file ...
  restart file = 2 Aug 2023, LAMMPS = 2 Aug 2023
  restoring atom style atomic from restart
  triclinic box = (-0.014214012 -0.036929088 -0.015669905) to (6.354214 16.508732 20.722023) with tilt (0 0 0)
  1 by 1 by 1 MPI processor grid
  pair style eam/alloy stores no restart info
  96 atoms
  read_restart CPU = 0.000 seconds
Changing box ...
  triclinic box = (-0.014214012 -0.036929088 -0.015669905) to (6.354214 16.508567 20.722023) with tilt (0 0 0)
  triclinic box = (-0.014214012 -0.036929088 -0.015669905) to (6.354214 16.508567 20.722023) with tilt (0 0 0)
Neighbor list info ...
  update: every = 1 steps, delay = 0 steps, check = yes
  max neighbors/atom: 2000, page size: 100000
  master list distance cutoff = 8.5
  ghost atom cutoff = 8.5
  1 neighbor lists, perpetual/occasional/extra = 1 0 0
  (1) pair eam/alloy, perpetual
      attributes: half, newton on
      pair build: half/nsq/newton
      stencil: none
      bin: none
Setting up cg style minimization ...
  Unit style    : metal
  Current step  : 53
Per MPI rank memory allocation (min/avg/max) = 4.465 | 4.465 | 4.465 Mbytes
   Step          Temp          PotEng         Press           Pxx            Pyy            Pzz            Pxy            Pxz            Pyz             Lx             Ly             Lz           Volume    
        53   0             -146.75386      3.6936537      2.541313       6.9379686      1.6016795     -0.0085326468   1.305201e-05  -1.0693949e-05  6.368428       16.545496      20.737693      2185.1058    
        54   0             -146.75386      3.693435       2.5559663      6.9228891      1.6014496     -0.0065917662  -1.6414019e-06  6.6712632e-06  6.368428       16.545496      20.737693      2185.1058    
        55   0             -146.75386      3.6934394      2.577044       6.9018549      1.6014193     -0.0038542354  -6.8913635e-07 -5.9531298e-06  6.368428       16.545496      20.737693      2185.1058    
        56   0             -146.75386      3.6934684      2.5921276      6.88685        1.6014274     -0.0018987557  -3.8459745e-07  2.9435344e-06  6.368428       16.545496      20.737693      2185.1058    
        57   0             -146.75386      3.6934927      2.6020123      6.8770273      1.6014383     -0.00061637155 -7.2870808e-08 -1.7305325e-06  6.368428       16.545496      20.737693      2185.1058    
        58   0             -146.75386      3.6935051      2.6067005      6.8723704      1.6014444     -6.8922778e-06 -1.901366e-08   1.3658302e-06  6.368428       16.545496      20.737693      2185.1058    
        59   0             -146.75386      3.693509       2.6081767      6.870904       1.6014463      0.00018588528  1.6615742e-08 -1.0323084e-06  6.368428       16.545496      20.737693      2185.1058    
        60   0             -146.75386      3.6935084      2.608046       6.8710333      1.6014459      0.00016990735  4.4840045e-08  9.4965847e-07  6.368428       16.545496      20.737693      2185.1058    
        61   0             -146.75386      3.6935062      2.6073198      6.8717541      1.6014446      7.621545e-05   4.2507863e-08 -5.369576e-07   6.368428       16.545496      20.737693      2185.1058    
        62   0             -146.75386      3.6935039      2.6065542      6.872514       1.6014434     -2.3180936e-05  2.8620555e-08  2.4618377e-07  6.368428       16.545496      20.737693      2185.1058    
        63   0             -146.75386      3.6935028      2.6062201      6.8728456      1.6014428     -6.7049151e-05  1.3111405e-08 -1.3129945e-07  6.368428       16.545496      20.737693      2185.1058    
        64   0             -146.75386      3.6935031      2.6063357      6.8727306      1.6014429     -5.2624808e-05  1.7648356e-09  1.3007002e-07  6.368428       16.545496      20.737693      2185.1058    
        65   0             -146.75386      3.693504       2.6066445      6.8724241      1.6014434     -1.2824332e-05 -2.4106209e-09 -8.6884041e-08  6.368428       16.545496      20.737693      2185.1058    
        66   0             -146.75386      3.6935046      2.6068819      6.8721883      1.6014437      1.8162857e-05 -1.4153358e-09  7.3139411e-08  6.368428       16.545496      20.737693      2185.1058    
        67   0             -146.75386      3.6935048      2.6069499      6.8721208      1.6014438      2.7323376e-05  1.4856311e-12 -4.9755993e-08  6.368428       16.545496      20.737693      2185.1058    
        68   0             -146.75386      3.6935046      2.6068793      6.8721908      1.6014437      1.842103e-05   9.7910848e-10  2.3306169e-08  6.368428       16.545496      20.737693      2185.1058    
        69   0             -146.75386      3.6935043      2.6067585      6.8723108      1.6014435      2.7929496e-06  1.0601975e-09 -9.6343177e-09  6.368428       16.545496      20.737693      2185.1058    
        70   0             -146.75386      3.693504       2.6066715      6.8723971      1.6014434     -8.613943e-06   6.2892691e-10  4.8077195e-09  6.368428       16.545496      20.737693      2185.1058    
        71   0             -146.75386      3.693504       2.6066647      6.8724039      1.6014434     -9.6507974e-06  2.5863845e-10 -3.809636e-09   6.368428       16.545496      20.737693      2185.1058    
        72   0             -146.75386      3.6935041      2.6067024      6.8723664      1.6014434     -4.8300426e-06  4.9032186e-11  3.2965532e-09  6.368428       16.545496      20.737693      2185.1058    
        73   0             -146.75386      3.6935042      2.6067326      6.8723365      1.6014435     -9.0537894e-07  1.1918119e-11 -1.5497981e-09  6.368428       16.545496      20.737693      2185.1058    
        74   0             -146.75386      3.6935042      2.6067502      6.872319       1.6014435      1.440374e-06  -1.3073045e-11  9.5249285e-10  6.368428       16.545496      20.737693      2185.1058    
        75   0             -146.75386      3.6935042      2.6067555      6.8723138      1.6014435      2.1765333e-06 -4.9516797e-12 -2.8191186e-10  6.368428       16.545496      20.737693      2185.1058    
        76   0             -146.75386      3.6935042      2.6067487      6.8723205      1.6014435      1.3056492e-06 -3.0819213e-12  1.4480736e-10  6.368428       16.545496      20.737693      2185.1058    
        77   0             -146.75386      3.6935042      2.6067419      6.8723272      1.6014435      4.2140632e-07  3.6797352e-12 -5.6118824e-11  6.368428       16.545496      20.737693      2185.1058    
        78   0             -146.75386      3.6935042      2.6067371      6.872332       1.6014435     -2.1526698e-07 -9.8232268e-12  1.7891846e-11  6.368428       16.545496      20.737693      2185.1058    
        79   0             -146.75386      3.6935042      2.6067357      6.8723334      1.6014435     -4.1283198e-07 -1.0213714e-12 -1.7889809e-11  6.368428       16.545496      20.737693      2185.1058    
        80   0             -146.75386      3.6935042      2.6067363      6.8723328      1.6014435     -3.3409752e-07  1.9511628e-12  2.5642469e-11  6.368428       16.545496      20.737693      2185.1058    
        81   0             -146.75386      3.6935042      2.6067379      6.8723312      1.6014435     -1.2627115e-07 -1.4016828e-12 -1.8983264e-11  6.368428       16.545496      20.737693      2185.1058    
        82   0             -146.75386      3.6935042      2.6067392      6.8723299      1.6014435      4.7838382e-08 -7.0211332e-13  1.3113051e-12  6.368428       16.545496      20.737693      2185.1058    
        83   0             -146.75386      3.6935042      2.6067394      6.8723297      1.6014435      7.0858923e-08  7.4357871e-12  1.3111829e-11  6.368428       16.545496      20.737693      2185.1058    
        84   0             -146.75386      3.6935042      2.6067391      6.87233        1.6014435      4.143899e-08   1.1483114e-11  1.3247957e-11  6.368428       16.545496      20.737693      2185.1058    
        85   0             -146.75386      3.6935042      2.6067389      6.8723302      1.6014435      1.4609222e-08  9.2088777e-13 -1.2668894e-11  6.368428       16.545496      20.737693      2185.1058    
        86   0             -146.75386      3.6935042      2.6067388      6.8723303      1.6014435     -2.2318809e-10 -7.691448e-12   7.2657838e-13  6.368428       16.545496      20.737693      2185.1058    
        87   0             -146.75386      3.6935042      2.6067388      6.8723303      1.6014435     -5.4038152e-09 -1.28212e-12   -2.3990462e-12  6.368428       16.545496      20.737693      2185.1058    
        88   0             -146.75386      3.6935042      2.6067388      6.8723303      1.6014435     -4.5206419e-09  1.6614138e-11 -1.2465055e-12  6.368428       16.545496      20.737693      2185.1058    
        89   0             -146.75386      3.6935042      2.6067388      6.8723303      1.6014435     -1.6183063e-09  4.0066249e-13 -9.5203947e-12  6.368428       16.545496      20.737693      2185.1058    
Loop time of 0.014402 on 1 procs for 36 steps with 96 atoms

108.5% CPU use with 1 MPI tasks x 1 OpenMP threads

Minimization stats:
  Stopping criterion = force tolerance
  Energy initial, next-to-last, final = 
     -146.753862655654  -146.753862677706  -146.753862677708
  Force two-norm initial, final = 0.00049974643 8.1015286e-11
  Force max component initial, final = 6.7763836e-05 1.5256449e-11
  Final line search alpha, max atom move = 1 1.5256449e-11
  Iterations, force evaluations = 36 72

MPI task timing breakdown:
Section |  min time  |  avg time  |  max time  |%varavg| %total
---------------------------------------------------------------
Pair    | 0.013653   | 0.013653   | 0.013653   |   0.0 | 94.80
Neigh   | 0          | 0          | 0          |   0.0 |  0.00
Comm    | 0.000265   | 0.000265   | 0.000265   |   0.0 |  1.84
Output  | 0.000313   | 0.000313   | 0.000313   |   0.0 |  2.17
Modify  | 0          | 0          | 0          |   0.0 |  0.00
Other   |            | 0.000171   |            |       |  1.19

Nlocal:             96 ave          96 max          96 min
Histogram: 1 0 0 0 0 0 0 0 0 0
Nghost:           1310 ave        1310 max        1310 min
Histogram: 1 0 0 0 0 0 0 0 0 0
Neighs:           6144 ave        6144 max        6144 min
Histogram: 1 0 0 0 0 0 0 0 0 0

Total # of neighbors = 6144
Ave neighs/atom = 64
Neighbor list builds = 0
Dangerous builds = 0
OMP_NUM_THREADS environment is not set. Defaulting to 1 thread. (src/comm.cpp:98)
  using 1 OpenMP thread(s) per MPI task
Loaded 1 plugins from F:\Lammps\LAMMPS 64-bit 2Aug2023\plugins

The 'box' command has been removed and will be ignored

Reading restart file ...
  restart file = 2 Aug 2023, LAMMPS = 2 Aug 2023
  restoring atom style atomic from restart
  triclinic box = (-0.014214012 -0.036929088 -0.015669905) to (6.354214 16.508732 20.722023) with tilt (0 0 0)
  1 by 1 by 1 MPI processor grid
  pair style eam/alloy stores no restart info
  96 atoms
  read_restart CPU = 0.001 seconds
Changing box ...
  triclinic box = (-0.014214012 -0.036929088 -0.015669905) to (6.354214 16.508898 20.722023) with tilt (0 0 0)
  triclinic box = (-0.014214012 -0.036929088 -0.015669905) to (6.354214 16.508898 20.722023) with tilt (0 0 0)
Neighbor list info ...
  update: every = 1 steps, delay = 0 steps, check = yes
  max neighbors/atom: 2000, page size: 100000
  master list distance cutoff = 8.5
  ghost atom cutoff = 8.5
  1 neighbor lists, perpetual/occasional/extra = 1 0 0
  (1) pair eam/alloy, perpetual
      attributes: half, newton on
      pair build: half/nsq/newton
      stencil: none
      bin: none
Setting up cg style minimization ...
  Unit style    : metal
  Current step  : 53
Per MPI rank memory allocation (min/avg/max) = 4.465 | 4.465 | 4.465 Mbytes
   Step          Temp          PotEng         Press           Pxx            Pyy            Pzz            Pxy            Pxz            Pyz             Lx             Ly             Lz           Volume    
        53   0             -146.75386     -3.6878025     -2.517556      -6.9475496     -1.598302      -0.0085545734   1.3051711e-05  3.0376692e-05  6.368428       16.545827      20.737693      2185.1495    
        54   0             -146.75386     -3.688015      -2.5374393     -6.9280749     -1.5985308     -0.0066038166  -1.6629574e-06 -7.3613605e-06  6.368428       16.545827      20.737693      2185.1495    
        55   0             -146.75386     -3.6879976     -2.5656479     -6.8997886     -1.5985564     -0.0038131401  -6.7390002e-07  4.9390327e-06  6.368428       16.545827      20.737693      2185.1495    
        56   0             -146.75386     -3.6879567     -2.5857959     -6.8795316     -1.5985426     -0.0018221109  -3.6985404e-07 -3.2594525e-06  6.368428       16.545827      20.737693      2185.1495    
        57   0             -146.75386     -3.6879247     -2.5985517     -6.8666946     -1.5985278     -0.0005625063  -6.6235663e-08  1.7064811e-06  6.368428       16.545827      20.737693      2185.1495    
        58   0             -146.75386     -3.6879095     -2.6042045     -6.8610037     -1.5985203     -5.258758e-06  -1.8836094e-08 -1.4303003e-06  6.368428       16.545827      20.737693      2185.1495    
        59   0             -146.75386     -3.6879049     -2.6059026     -6.8592941     -1.5985181      0.00016129551  1.4818002e-08  1.0210215e-06  6.368428       16.545827      20.737693      2185.1495    
        60   0             -146.75386     -3.6879055     -2.6057685     -6.8594296     -1.5985185      0.000146987    4.3072042e-08 -9.6274316e-07  6.368428       16.545827      20.737693      2185.1495    
        61   0             -146.75386     -3.6879081     -2.6049442     -6.8602601     -1.5985199      6.4898543e-05  4.1812734e-08  5.6781017e-07  6.368428       16.545827      20.737693      2185.1495    
        62   0             -146.75386     -3.6879106     -2.6040874     -6.8611232     -1.5985213     -1.9780823e-05  2.9086874e-08 -2.2989219e-07  6.368428       16.545827      20.737693      2185.1495    
        63   0             -146.75386     -3.6879118     -2.6037181     -6.8614953     -1.5985219     -5.5816588e-05  1.4088808e-08  1.4332829e-07  6.368428       16.545827      20.737693      2185.1495    
        64   0             -146.75386     -3.6879115     -2.603837      -6.8613757     -1.5985218     -4.3492588e-05  2.2222104e-09 -1.2505034e-07  6.368428       16.545827      20.737693      2185.1495    
        65   0             -146.75386     -3.6879105     -2.6041716     -6.8610388     -1.5985213     -1.0178004e-05 -2.3881233e-09  8.7277589e-08  6.368428       16.545827      20.737693      2185.1495    
        66   0             -146.75386     -3.6879098     -2.6044284     -6.8607802     -1.5985209      1.5002185e-05 -1.5014724e-09 -7.2699798e-08  6.368428       16.545827      20.737693      2185.1495    
        67   0             -146.75386     -3.6879096     -2.6045048     -6.8607032     -1.5985208      2.2211923e-05 -5.3797086e-11  4.8854313e-08  6.368428       16.545827      20.737693      2185.1495    
        68   0             -146.75386     -3.6879098     -2.6044327     -6.8607758     -1.5985209      1.4813033e-05  9.5118427e-10 -2.4296218e-08  6.368428       16.545827      20.737693      2185.1495    
        69   0             -146.75386     -3.6879102     -2.6043048     -6.8609047     -1.5985211      2.1101644e-06  1.0622304e-09  9.3189153e-09  6.368428       16.545827      20.737693      2185.1495    
        70   0             -146.75386     -3.6879105     -2.6042128     -6.8609973     -1.5985213     -6.8507718e-06  6.4569731e-10 -4.6723166e-09  6.368428       16.545827      20.737693      2185.1495    
        71   0             -146.75386     -3.6879105     -2.6042039     -6.8610064     -1.5985213     -7.5896209e-06  2.75518e-10    3.8612817e-09  6.368428       16.545827      20.737693      2185.1495    
        72   0             -146.75386     -3.6879104     -2.6042421     -6.8609678     -1.5985212     -3.7227003e-06  6.9066473e-11 -3.2056452e-09  6.368428       16.545827      20.737693      2185.1495    
        73   0             -146.75386     -3.6879103     -2.6042735     -6.8609362     -1.5985212     -6.3572067e-07  9.8522845e-12  1.5690377e-09  6.368428       16.545827      20.737693      2185.1495    
        74   0             -146.75386     -3.6879102     -2.604292      -6.8609176     -1.5985211      1.1371001e-06 -6.9014324e-12 -9.429261e-10   6.368428       16.545827      20.737693      2185.1495    
        75   0             -146.75386     -3.6879102     -2.6042979     -6.8609116     -1.5985211      1.6646964e-06 -1.2431736e-11  2.8828124e-10  6.368428       16.545827      20.737693      2185.1495    
        76   0             -146.75386     -3.6879102     -2.6042911     -6.8609185     -1.5985211      9.8304907e-07 -1.2387219e-11 -1.1430857e-10  6.368428       16.545827      20.737693      2185.1495    
        77   0             -146.75386     -3.6879103     -2.6042842     -6.8609254     -1.5985212      3.0488213e-07 -5.1843418e-12  4.3773619e-11  6.368428       16.545827      20.737693      2185.1495    
        78   0             -146.75386     -3.6879103     -2.6042793     -6.8609303     -1.5985212     -1.6094407e-07 -1.3329711e-12 -3.847234e-11   6.368428       16.545827      20.737693      2185.1495    
        79   0             -146.75386     -3.6879103     -2.6042778     -6.8609319     -1.5985212     -2.9827246e-07  5.49469e-13    2.5231663e-11  6.368428       16.545827      20.737693      2185.1495    
        80   0             -146.75386     -3.6879103     -2.6042784     -6.8609313     -1.5985212     -2.3722909e-07  2.2436651e-12 -3.1384929e-11  6.368428       16.545827      20.737693      2185.1495    
        81   0             -146.75386     -3.6879103     -2.6042799     -6.8609297     -1.5985212     -8.602737e-08  -4.8014942e-12  1.3026239e-13  6.368428       16.545827      20.737693      2185.1495    
        82   0             -146.75386     -3.6879103     -2.6042812     -6.8609284     -1.5985212      3.6099653e-08  4.7035564e-12 -1.227536e-11   6.368428       16.545827      20.737693      2185.1495    
        83   0             -146.75386     -3.6879103     -2.6042814     -6.8609282     -1.5985212      5.0862963e-08  6.2285873e-12 -1.5393251e-11  6.368428       16.545827      20.737693      2185.1495    
        84   0             -146.75386     -3.6879103     -2.6042812     -6.8609285     -1.5985212      2.9061538e-08 -1.0455174e-11 -1.1103326e-11  6.368428       16.545827      20.737693      2185.1495    
        85   0             -146.75386     -3.6879103     -2.604281      -6.8609287     -1.5985212      9.7681521e-09  1.0506051e-11  4.8773224e-12  6.368428       16.545827      20.737693      2185.1495    
        86   0             -146.75386     -3.6879103     -2.6042809     -6.8609288     -1.5985212     -3.6973922e-10 -1.5263028e-14 -2.4851966e-11  6.368428       16.545827      20.737693      2185.1495    
        87   0             -146.75386     -3.6879103     -2.6042809     -6.8609288     -1.5985212     -3.7291227e-09  1.6407755e-12  4.0292704e-12  6.368428       16.545827      20.737693      2185.1495    
        88   0             -146.75386     -3.6879103     -2.6042809     -6.8609288     -1.5985212     -3.0246704e-09  3.2370338e-12 -4.073718e-12   6.368428       16.545827      20.737693      2185.1495    
        89   0             -146.75386     -3.6879103     -2.6042809     -6.8609288     -1.5985212     -1.0039282e-09 -6.6139787e-13  1.5666683e-11  6.368428       16.545827      20.737693      2185.1495    
Loop time of 0.014171 on 1 procs for 36 steps with 96 atoms

110.3% CPU use with 1 MPI tasks x 1 OpenMP threads

Minimization stats:
  Stopping criterion = force tolerance
  Energy initial, next-to-last, final = 
     -146.753862655435  -146.753862677759  -146.753862677759
  Force two-norm initial, final = 0.00050040261 8.1903621e-11
  Force max component initial, final = 6.7751588e-05 1.556346e-11
  Final line search alpha, max atom move = 1 1.556346e-11
  Iterations, force evaluations = 36 72

MPI task timing breakdown:
Section |  min time  |  avg time  |  max time  |%varavg| %total
---------------------------------------------------------------
Pair    | 0.013436   | 0.013436   | 0.013436   |   0.0 | 94.81
Neigh   | 0          | 0          | 0          |   0.0 |  0.00
Comm    | 0.000254   | 0.000254   | 0.000254   |   0.0 |  1.79
Output  | 0.000313   | 0.000313   | 0.000313   |   0.0 |  2.21
Modify  | 0          | 0          | 0          |   0.0 |  0.00
Other   |            | 0.000168   |            |       |  1.19

Nlocal:             96 ave          96 max          96 min
Histogram: 1 0 0 0 0 0 0 0 0 0
Nghost:           1310 ave        1310 max        1310 min
Histogram: 1 0 0 0 0 0 0 0 0 0
Neighs:           6144 ave        6144 max        6144 min
Histogram: 1 0 0 0 0 0 0 0 0 0

Total # of neighbors = 6144
Ave neighs/atom = 64
Neighbor list builds = 0
Dangerous builds = 0
OMP_NUM_THREADS environment is not set. Defaulting to 1 thread. (src/comm.cpp:98)
  using 1 OpenMP thread(s) per MPI task
Loaded 1 plugins from F:\Lammps\LAMMPS 64-bit 2Aug2023\plugins

The 'box' command has been removed and will be ignored

Reading restart file ...
  restart file = 2 Aug 2023, LAMMPS = 2 Aug 2023
  restoring atom style atomic from restart
  triclinic box = (-0.014214012 -0.036929088 -0.015669905) to (6.354214 16.508732 20.722023) with tilt (0 0 0)
  1 by 1 by 1 MPI processor grid
  pair style eam/alloy stores no restart info
  96 atoms
  read_restart CPU = 0.000 seconds
Changing box ...
  triclinic box = (-0.014214012 -0.036929088 -0.015669905) to (6.354214 16.508732 20.721816) with tilt (0 0 0)
Neighbor list info ...
  update: every = 1 steps, delay = 0 steps, check = yes
  max neighbors/atom: 2000, page size: 100000
  master list distance cutoff = 8.5
  ghost atom cutoff = 8.5
  1 neighbor lists, perpetual/occasional/extra = 1 0 0
  (1) pair eam/alloy, perpetual
      attributes: half, newton on
      pair build: half/nsq/newton
      stencil: none
      bin: none
Setting up cg style minimization ...
  Unit style    : metal
  Current step  : 53
Per MPI rank memory allocation (min/avg/max) = 4.465 | 4.465 | 4.465 Mbytes
   Step          Temp          PotEng         Press           Pxx            Pyy            Pzz            Pxy            Pxz            Pyz             Lx             Ly             Lz           Volume    
        53   0             -146.75386      3.3967381      1.6110824      1.5913092      6.9878226     -0.0085368872   1.3051702e-05  9.8413951e-06  6.368428       16.545661      20.737486      2185.1058    
        54   0             -146.75386      3.3964862      1.60858        1.5933005      6.9875782     -0.0066006296  -1.6120409e-06 -2.656579e-07   6.368428       16.545661      20.737486      2185.1058    
        55   0             -146.75386      3.3964394      1.6054473      1.596347       6.987524      -0.0039267194  -7.112275e-07  -6.2710335e-07  6.368428       16.545661      20.737486      2185.1058    
        56   0             -146.75386      3.3964284      1.6032305      1.5985428      6.9875119     -0.0020223655  -4.0821555e-07 -9.6018699e-08  6.368428       16.545661      20.737486      2185.1058    
        57   0             -146.75386      3.396425       1.6017052      1.6000614      6.9875085     -0.00070901007 -8.4428066e-08 -6.0710128e-08  6.368428       16.545661      20.737486      2185.1058    
        58   0             -146.75386      3.3964239      1.6008912      1.6008732      6.9875074     -7.5016113e-06 -1.8987492e-08 -2.7204487e-08  6.368428       16.545661      20.737486      2185.1058    
        59   0             -146.75386      3.3964235      1.6006075      1.6011561      6.987507       0.00023692443  2.0471477e-08  6.298645e-11   6.368428       16.545661      20.737486      2185.1058    
        60   0             -146.75386      3.3964234      1.6006313      1.6011319      6.9875068      0.00021615646  4.865801e-08   4.9060692e-09  6.368428       16.545661      20.737486      2185.1058    
        61   0             -146.75386      3.3964232      1.6007668      1.6009962      6.9875067      9.9079252e-05  4.4343718e-08  9.5639502e-09  6.368428       16.545661      20.737486      2185.1058    
        62   0             -146.75386      3.3964231      1.6009189      1.6008439      6.9875066     -3.2305101e-05  2.7876583e-08  7.985985e-09   6.368428       16.545661      20.737486      2185.1058    
        63   0             -146.75386      3.3964231      1.6009898      1.6007728      6.9875065     -9.359463e-05   1.1079063e-08  5.5997056e-09  6.368428       16.545661      20.737486      2185.1058    
        64   0             -146.75386      3.396423       1.6009663      1.6007963      6.9875065     -7.3298421e-05  8.0557074e-10  2.5788758e-09  6.368428       16.545661      20.737486      2185.1058    
        65   0             -146.75386      3.396423       1.6009021      1.6008603      6.9875065     -1.7995904e-05 -2.516205e-09   3.5214333e-10  6.368428       16.545661      20.737486      2185.1058    
        66   0             -146.75386      3.396423       1.6008499      1.6009126      6.9875064      2.7064713e-05 -1.330319e-09  -3.4531149e-10  6.368428       16.545661      20.737486      2185.1058    
        67   0             -146.75386      3.396423       1.6008343      1.6009282      6.9875064      4.0518743e-05  9.1382847e-11 -4.0262939e-10  6.368428       16.545661      20.737486      2185.1058    
        68   0             -146.75386      3.3964229      1.6008495      1.6009129      6.9875064      2.7331577e-05  1.0210725e-09 -3.7693376e-10  6.368428       16.545661      20.737486      2185.1058    
        69   0             -146.75386      3.3964229      1.6008764      1.600886       6.9875064      4.1359549e-06  1.0609288e-09 -1.5292762e-10  6.368428       16.545661      20.737486      2185.1058    
        70   0             -146.75386      3.3964229      1.6008972      1.6008652      6.9875064     -1.3779604e-05  6.107292e-10   2.7989554e-11  6.368428       16.545661      20.737486      2185.1058    
        71   0             -146.75386      3.3964229      1.600899       1.6008634      6.9875064     -1.5321208e-05  2.3203065e-10  9.0336385e-11  6.368428       16.545661      20.737486      2185.1058    
        72   0             -146.75386      3.3964229      1.6008902      1.6008722      6.9875064     -7.7376073e-06  5.6876267e-11  3.6261635e-11  6.368428       16.545661      20.737486      2185.1058    
        73   0             -146.75386      3.3964229      1.6008828      1.6008795      6.9875064     -1.4226512e-06  9.8626571e-12  1.9872383e-11  6.368428       16.545661      20.737486      2185.1058    
        74   0             -146.75386      3.3964229      1.6008783      1.6008841      6.9875064      2.4893922e-06 -6.2134485e-12  1.4873999e-12  6.368428       16.545661      20.737486      2185.1058    
        75   0             -146.75386      3.3964229      1.6008769      1.6008855      6.9875064      3.7016636e-06 -1.2152157e-11 -1.5268232e-11  6.368428       16.545661      20.737486      2185.1058    
        76   0             -146.75386      3.3964229      1.6008786      1.6008838      6.9875064      2.2391024e-06 -1.1333025e-12 -3.7111463e-12  6.368428       16.545661      20.737486      2185.1058    
        77   0             -146.75386      3.3964229      1.6008803      1.6008821      6.9875064      7.4443256e-07  8.2129452e-12 -7.5999276e-12  6.368428       16.545661      20.737486      2185.1058    
        78   0             -146.75386      3.3964229      1.6008817      1.6008807      6.9875064     -4.1578661e-07 -6.409328e-12   1.6818772e-11  6.368428       16.545661      20.737486      2185.1058    
        79   0             -146.75386      3.3964229      1.6008821      1.6008803      6.9875064     -7.9064883e-07 -1.1090083e-11  4.5212954e-12  6.368428       16.545661      20.737486      2185.1058    
        80   0             -146.75386      3.3964229      1.6008819      1.6008805      6.9875064     -6.3523562e-07  5.1055849e-12 -5.1851311e-12  6.368428       16.545661      20.737486      2185.1058    
        81   0             -146.75386      3.3964229      1.6008815      1.6008809      6.9875064     -2.4389717e-07 -6.3482746e-12  4.626201e-12   6.368428       16.545661      20.737486      2185.1058    
        82   0             -146.75386      3.3964229      1.6008811      1.6008813      6.9875064      1.041504e-07   6.041736e-13  -2.1413284e-12  6.368428       16.545661      20.737486      2185.1058    
        83   0             -146.75386      3.3964229      1.600881       1.6008814      6.9875064      1.4989082e-07 -3.9290363e-12 -6.6797354e-12  6.368428       16.545661      20.737486      2185.1058    
        84   0             -146.75386      3.3964229      1.6008811      1.6008813      6.9875064      8.8264409e-08 -1.0557139e-12  1.0574946e-11  6.368428       16.545661      20.737486      2185.1058    
        85   0             -146.75386      3.3964229      1.6008812      1.6008812      6.9875064      3.2274811e-08 -3.4456975e-12 -1.8164956e-14  6.368428       16.545661      20.737486      2185.1058    
        86   0             -146.75386      3.3964229      1.6008812      1.6008812      6.9875064     -7.5786646e-10 -2.1584897e-12  1.8084248e-11  6.368428       16.545661      20.737486      2185.1058    
        87   0             -146.75386      3.3964229      1.6008812      1.6008812      6.9875064     -1.2828793e-08 -3.7331569e-12 -5.4682282e-12  6.368428       16.545661      20.737486      2185.1058    
        88   0             -146.75386      3.3964229      1.6008812      1.6008812      6.9875064     -1.0588946e-08  1.9562505e-12 -1.7071273e-11  6.368428       16.545661      20.737486      2185.1058    
        89   0             -146.75386      3.3964229      1.6008812      1.6008812      6.9875064     -4.2255622e-09  4.3882083e-12 -1.1199381e-11  6.368428       16.545661      20.737486      2185.1058    
Loop time of 0.01457 on 1 procs for 36 steps with 96 atoms

107.2% CPU use with 1 MPI tasks x 1 OpenMP threads

Minimization stats:
  Stopping criterion = force tolerance
  Energy initial, next-to-last, final = 
     -146.753862655243  -146.753862676918  -146.753862676918
  Force two-norm initial, final = 0.00049862188 6.745177e-11
  Force max component initial, final = 6.7778153e-05 1.2765618e-11
  Final line search alpha, max atom move = 1 1.2765618e-11
  Iterations, force evaluations = 36 72

MPI task timing breakdown:
Section |  min time  |  avg time  |  max time  |%varavg| %total
---------------------------------------------------------------
Pair    | 0.013737   | 0.013737   | 0.013737   |   0.0 | 94.28
Neigh   | 0          | 0          | 0          |   0.0 |  0.00
Comm    | 0.000263   | 0.000263   | 0.000263   |   0.0 |  1.81
Output  | 0.000407   | 0.000407   | 0.000407   |   0.0 |  2.79
Modify  | 0          | 0          | 0          |   0.0 |  0.00
Other   |            | 0.000163   |            |       |  1.12

Nlocal:             96 ave          96 max          96 min
Histogram: 1 0 0 0 0 0 0 0 0 0
Nghost:           1310 ave        1310 max        1310 min
Histogram: 1 0 0 0 0 0 0 0 0 0
Neighs:           6144 ave        6144 max        6144 min
Histogram: 1 0 0 0 0 0 0 0 0 0

Total # of neighbors = 6144
Ave neighs/atom = 64
Neighbor list builds = 0
Dangerous builds = 0
OMP_NUM_THREADS environment is not set. Defaulting to 1 thread. (src/comm.cpp:98)
  using 1 OpenMP thread(s) per MPI task
Loaded 1 plugins from F:\Lammps\LAMMPS 64-bit 2Aug2023\plugins

The 'box' command has been removed and will be ignored

Reading restart file ...
  restart file = 2 Aug 2023, LAMMPS = 2 Aug 2023
  restoring atom style atomic from restart
  triclinic box = (-0.014214012 -0.036929088 -0.015669905) to (6.354214 16.508732 20.722023) with tilt (0 0 0)
  1 by 1 by 1 MPI processor grid
  pair style eam/alloy stores no restart info
  96 atoms
  read_restart CPU = 0.000 seconds
Changing box ...
  triclinic box = (-0.014214012 -0.036929088 -0.015669905) to (6.354214 16.508732 20.722231) with tilt (0 0 0)
Neighbor list info ...
  update: every = 1 steps, delay = 0 steps, check = yes
  max neighbors/atom: 2000, page size: 100000
  master list distance cutoff = 8.5
  ghost atom cutoff = 8.5
  1 neighbor lists, perpetual/occasional/extra = 1 0 0
  (1) pair eam/alloy, perpetual
      attributes: half, newton on
      pair build: half/nsq/newton
      stencil: none
      bin: none
Setting up cg style minimization ...
  Unit style    : metal
  Current step  : 53
Per MPI rank memory allocation (min/avg/max) = 4.465 | 4.465 | 4.465 Mbytes
   Step          Temp          PotEng         Press           Pxx            Pyy            Pzz            Pxy            Pxz            Pyz             Lx             Ly             Lz           Volume    
        53   0             -146.75386     -3.3924733     -1.5888677     -1.6086721     -6.9798801     -0.0085503338   1.3052e-05     9.8419305e-06  6.368428       16.545661      20.7379        2185.1495    
        54   0             -146.75386     -3.3927251     -1.5913708     -1.6066799     -6.9801245     -0.0066133978  -1.6105476e-06 -2.6465663e-07  6.368428       16.545661      20.7379        2185.1495    
        55   0             -146.75386     -3.3927719     -1.5945062     -1.6036308     -6.9801788     -0.0039371815  -7.1280357e-07 -6.2814868e-07  6.368428       16.545661      20.7379        2185.1495    
        56   0             -146.75386     -3.3927829     -1.5967266     -1.6014314     -6.9801908     -0.0020296772  -4.087764e-07  -9.6526556e-08  6.368428       16.545661      20.7379        2185.1495    
        57   0             -146.75386     -3.3927863     -1.5982556     -1.5999091     -6.9801943     -0.0007131924  -8.4883668e-08 -6.0830346e-08  6.368428       16.545661      20.7379        2185.1495    
        58   0             -146.75386     -3.3927874     -1.5990727     -1.5990942     -6.9801954     -9.0107836e-06 -1.9293513e-08 -2.7308677e-08  6.368428       16.545661      20.7379        2185.1495    
        59   0             -146.75386     -3.3927878     -1.5993583     -1.5988094     -6.9801958      0.00023707863  2.0265665e-08 -2.142008e-11   6.368428       16.545661      20.7379        2185.1495    
        60   0             -146.75386     -3.392788      -1.5993352     -1.5988329     -6.980196       0.0002168929   4.8633079e-08  4.8622149e-09  6.368428       16.545661      20.7379        2185.1495    
        61   0             -146.75386     -3.3927881     -1.5991998     -1.5989685     -6.9801961      9.9922864e-05  4.4388217e-08  9.536798e-09   6.368428       16.545661      20.7379        2185.1495    
        62   0             -146.75386     -3.3927882     -1.5990473     -1.5991212     -6.9801962     -3.1799911e-05  2.799467e-08   7.9965432e-09  6.368428       16.545661      20.7379        2185.1495    
        63   0             -146.75386     -3.3927883     -1.5989758     -1.5991929     -6.9801962     -9.3638642e-05  1.1182362e-08  5.6255184e-09  6.368428       16.545661      20.7379        2185.1495    
        64   0             -146.75386     -3.3927884     -1.5989989     -1.5991699     -6.9801963     -7.3724042e-05  8.4833181e-10  2.597859e-09   6.368428       16.545661      20.7379        2185.1495    
        65   0             -146.75386     -3.3927884     -1.599063      -1.5991059     -6.9801963     -1.8462784e-05 -2.5330089e-09  3.5813643e-10  6.368428       16.545661      20.7379        2185.1495    
        66   0             -146.75386     -3.3927884     -1.5991156     -1.5990533     -6.9801963      2.691955e-05  -1.3397771e-09 -3.4249584e-10  6.368428       16.545661      20.7379        2185.1495    
        67   0             -146.75386     -3.3927884     -1.5991316     -1.5990374     -6.9801963      4.0652215e-05  8.0900407e-11 -4.0219749e-10  6.368428       16.545661      20.7379        2185.1495    
        68   0             -146.75386     -3.3927884     -1.5991165     -1.5990525     -6.9801963      2.7609664e-05  1.0190195e-09 -3.8234216e-10  6.368428       16.545661      20.7379        2185.1495    
        69   0             -146.75386     -3.3927884     -1.5990895     -1.5990794     -6.9801963      4.3718174e-06  1.0763894e-09 -1.7541015e-10  6.368428       16.545661      20.7379        2185.1495    
        70   0             -146.75386     -3.3927884     -1.5990686     -1.5991004     -6.9801963     -1.3728152e-05  5.969154e-10   2.603328e-11   6.368428       16.545661      20.7379        2185.1495    
        71   0             -146.75386     -3.3927884     -1.5990666     -1.5991023     -6.9801963     -1.5416051e-05  2.4245574e-10  5.6020907e-11  6.368428       16.545661      20.7379        2185.1495    
        72   0             -146.75386     -3.3927884     -1.5990754     -1.5990936     -6.9801963     -7.8470747e-06  5.4824796e-11  4.2443132e-11  6.368428       16.545661      20.7379        2185.1495    
        73   0             -146.75386     -3.3927884     -1.5990827     -1.5990862     -6.9801963     -1.5063241e-06  9.105668e-12   2.6541899e-11  6.368428       16.545661      20.7379        2185.1495    
        74   0             -146.75386     -3.3927884     -1.5990873     -1.5990816     -6.9801963      2.4645453e-06 -3.8539145e-13  8.1866171e-12  6.368428       16.545661      20.7379        2185.1495    
        75   0             -146.75386     -3.3927884     -1.5990888     -1.5990801     -6.9801963      3.7382331e-06 -1.3559928e-11 -2.10596e-12    6.368428       16.545661      20.7379        2185.1495    
        76   0             -146.75386     -3.3927884     -1.5990871     -1.5990818     -6.9801963      2.2784894e-06 -1.152613e-11  -1.1305372e-11  6.368428       16.545661      20.7379        2185.1495    
        77   0             -146.75386     -3.3927884     -1.5990854     -1.5990836     -6.9801963      7.6952493e-07 -6.1751667e-12  3.5474019e-12  6.368428       16.545661      20.7379        2185.1495    
        78   0             -146.75386     -3.3927884     -1.599084      -1.599085      -6.9801963     -4.1128503e-07 -1.0368684e-11  2.015455e-12   6.368428       16.545661      20.7379        2185.1495    
        79   0             -146.75386     -3.3927884     -1.5990835     -1.5990854     -6.9801963     -7.9976772e-07  3.6631267e-12 -1.1422349e-11  6.368428       16.545661      20.7379        2185.1495    
        80   0             -146.75386     -3.3927884     -1.5990837     -1.5990852     -6.9801963     -6.4932085e-07 -1.5123117e-12  9.1813472e-12  6.368428       16.545661      20.7379        2185.1495    
        81   0             -146.75386     -3.3927884     -1.5990842     -1.5990848     -6.9801963     -2.5463793e-07  3.3006298e-12  4.3824466e-12  6.368428       16.545661      20.7379        2185.1495    
        82   0             -146.75386     -3.3927884     -1.5990846     -1.5990844     -6.9801963      1.0035496e-07  2.4853297e-12  4.6926756e-12  6.368428       16.545661      20.7379        2185.1495    
        83   0             -146.75386     -3.3927884     -1.5990846     -1.5990843     -6.9801963      1.4986823e-07 -8.1364658e-12 -6.6040717e-12  6.368428       16.545661      20.7379        2185.1495    
        84   0             -146.75386     -3.3927884     -1.5990846     -1.5990844     -6.9801963      8.9518156e-08 -1.4460447e-11  1.559011e-11   6.368428       16.545661      20.7379        2185.1495    
        85   0             -146.75386     -3.3927884     -1.5990845     -1.5990844     -6.9801963      3.3411422e-08  1.0076142e-11  7.2968502e-12  6.368428       16.545661      20.7379        2185.1495    
        86   0             -146.75386     -3.3927884     -1.5990845     -1.5990845     -6.9801963     -1.7039899e-11  4.286367e-13   2.2299095e-11  6.368428       16.545661      20.7379        2185.1495    
        87   0             -146.75386     -3.3927884     -1.5990845     -1.5990845     -6.9801963     -1.2609867e-08 -1.0757891e-11 -6.6338525e-14  6.368428       16.545661      20.7379        2185.1495    
        88   0             -146.75386     -3.3927884     -1.5990845     -1.5990845     -6.9801963     -1.0651059e-08 -5.8024944e-12  1.4678512e-11  6.368428       16.545661      20.7379        2185.1495    
        89   0             -146.75386     -3.3927884     -1.5990845     -1.5990845     -6.9801963     -4.4118329e-09 -9.3218943e-12 -2.0692989e-11  6.368428       16.545661      20.7379        2185.1495    
Loop time of 0.014039 on 1 procs for 36 steps with 96 atoms

111.3% CPU use with 1 MPI tasks x 1 OpenMP threads

Minimization stats:
  Stopping criterion = force tolerance
  Energy initial, next-to-last, final = 
     -146.753862655284  -146.753862676948  -146.753862676951
  Force two-norm initial, final = 0.00049845777 6.8162295e-11
  Force max component initial, final = 6.7737271e-05 1.3038716e-11
  Final line search alpha, max atom move = 1 1.3038716e-11
  Iterations, force evaluations = 36 72

MPI task timing breakdown:
Section |  min time  |  avg time  |  max time  |%varavg| %total
---------------------------------------------------------------
Pair    | 0.013284   | 0.013284   | 0.013284   |   0.0 | 94.62
Neigh   | 0          | 0          | 0          |   0.0 |  0.00
Comm    | 0.000266   | 0.000266   | 0.000266   |   0.0 |  1.89
Output  | 0.000326   | 0.000326   | 0.000326   |   0.0 |  2.32
Modify  | 0          | 0          | 0          |   0.0 |  0.00
Other   |            | 0.000163   |            |       |  1.16

Nlocal:             96 ave          96 max          96 min
Histogram: 1 0 0 0 0 0 0 0 0 0
Nghost:           1310 ave        1310 max        1310 min
Histogram: 1 0 0 0 0 0 0 0 0 0
Neighs:           6144 ave        6144 max        6144 min
Histogram: 1 0 0 0 0 0 0 0 0 0

Total # of neighbors = 6144
Ave neighs/atom = 64
Neighbor list builds = 0
Dangerous builds = 0
OMP_NUM_THREADS environment is not set. Defaulting to 1 thread. (src/comm.cpp:98)
  using 1 OpenMP thread(s) per MPI task
Loaded 1 plugins from F:\Lammps\LAMMPS 64-bit 2Aug2023\plugins

The 'box' command has been removed and will be ignored

Reading restart file ...
  restart file = 2 Aug 2023, LAMMPS = 2 Aug 2023
  restoring atom style atomic from restart
  triclinic box = (-0.014214012 -0.036929088 -0.015669905) to (6.354214 16.508732 20.722023) with tilt (0 0 0)
  1 by 1 by 1 MPI processor grid
  pair style eam/alloy stores no restart info
  96 atoms
  read_restart CPU = 0.000 seconds
Changing box ...
  triclinic box = (-0.014214012 -0.036929088 -0.015669905) to (6.354214 16.508732 20.722023) with tilt (0 0 -0.00020737693)
Neighbor list info ...
  update: every = 1 steps, delay = 0 steps, check = yes
  max neighbors/atom: 2000, page size: 100000
  master list distance cutoff = 8.5
  ghost atom cutoff = 8.5
  1 neighbor lists, perpetual/occasional/extra = 1 0 0
  (1) pair eam/alloy, perpetual
      attributes: half, newton on
      pair build: half/nsq/newton
      stencil: none
      bin: none
Setting up cg style minimization ...
  Unit style    : metal
  Current step  : 53
Per MPI rank memory allocation (min/avg/max) = 4.465 | 4.465 | 4.465 Mbytes
   Step          Temp          PotEng         Press           Pxx            Pyy            Pzz            Pxy            Pxz            Pyz             Lx             Ly             Lz           Volume    
        53   0             -146.75386      0.0011879267   0.010675306   -0.0082761901   0.001164664   -0.0085436106   1.9871984e-05  1.2759713      6.368428       16.545661      20.737693      2185.1277    
        54   0             -146.75386      0.00093611221  0.0081439015  -0.0062558132   0.00092024826 -0.0066070112   3.6687373e-06  1.2759594      6.368428       16.545661      20.737693      2185.1277    
        55   0             -146.75386      0.00088928769  0.0050062249  -0.0032043751   0.00086601327 -0.0039319569   2.4320351e-06  1.2759565      6.368428       16.545661      20.737693      2185.1277    
[...]
        59   0             -146.75386      0.0010357643   0.00070911105  0.0018607862   0.00053739559  2.1291086      1.0482161e-06 -3.4302864e-09  6.368428       16.545661      20.737693      2185.1277    
        60   0             -146.75386      0.0010351992   0.00073038035  0.0018382059   0.00053701123  2.1292347     -9.0658431e-07  3.5691968e-09  6.368428       16.545661      20.737693      2185.1277    
        61   0             -146.75386      0.0010329283   0.0008347567   0.0017282769   0.0005357512   2.1299683      5.9166337e-07  8.4423797e-09  6.368428       16.545661      20.737693      2185.1277    
        62   0             -146.75386      0.0010305804   0.00094277026  0.0016144956   0.00053447527  2.1307444     -2.0998013e-07  8.3022142e-09  6.368428       16.545661      20.737693      2185.1277    
        63   0             -146.75386      0.0010295294   0.00098827112  0.0015664234   0.00053389372  2.1310848      1.5061671e-07  6.0542798e-09  6.368428       16.545661      20.737693      2185.1277    
        64   0             -146.75386      0.0010298085   0.00097012086  0.0015852867   0.0005340179   2.1309713     -1.250968e-07   2.8459673e-09  6.368428       16.545661      20.737693      2185.1277    
        65   0             -146.75386      0.0010306767   0.00092571629  0.0016318517   0.00053446206  2.1306605      8.4357001e-08  3.1822368e-10  6.368428       16.545661      20.737693      2185.1277    
        66   0             -146.75386      0.0010313541   0.00089283771  0.0016664127   0.00053481184  2.1304198     -7.453539e-08  -3.0040246e-10  6.368428       16.545661      20.737693      2185.1277    
        67   0             -146.75386      0.0010315464   0.00088430746  0.0016754228   0.00053490893  2.1303493      4.9255817e-08 -3.9742887e-10  6.368428       16.545661      20.737693      2185.1277    
        68   0             -146.75386      0.0010313379   0.00089502752  0.0016641902   0.00053479604  2.130419      -2.2692771e-08 -3.2481208e-10  6.368428       16.545661      20.737693      2185.1277    
        69   0             -146.75386      0.0010309823   0.00091218745  0.0016461529   0.00053460663  2.1305405      1.0536054e-08 -1.6138112e-10  6.368428       16.545661      20.737693      2185.1277    
        70   0             -146.75386      0.0010307247   0.00092400886  0.0016336956   0.00053446955  2.1306287     -4.1096902e-09  2.7451357e-11  6.368428       16.545661      20.737693      2185.1277    
        71   0             -146.75386      0.0010307009   0.00092451577  0.0016331304   0.00053445648  2.1306364      4.0734045e-09  3.5003898e-11  6.368428       16.545661      20.737693      2185.1277    
        72   0             -146.75386      0.001030809    0.00091897163  0.0016389419   0.00053451337  2.1305989     -3.1722409e-09  2.7621637e-11  6.368428       16.545661      20.737693      2185.1277    
        73   0             -146.75386      0.0010308969   0.00091476731  0.0016433636   0.00053455984  2.1305685      1.574046e-09   1.219067e-11   6.368428       16.545661      20.737693      2185.1277    
        74   0             -146.75386      0.0010309489   0.0009124759   0.0016457836   0.0005345873   2.1305505     -9.5748602e-10  1.6957503e-11  6.368428       16.545661      20.737693      2185.1277    
        75   0             -146.75386      0.0010309649   0.00091192412  0.001646375    0.00053459569  2.130545       2.7076628e-10 -1.0168547e-11  6.368428       16.545661      20.737693      2185.1277    
        76   0             -146.75386      0.0010309453   0.00091290944  0.0016453412   0.00053458532  2.1305517     -1.3511095e-10 -2.1627917e-11  6.368428       16.545661      20.737693      2185.1277    
        77   0             -146.75386      0.0010309255   0.00091383033  0.0016443714   0.00053457486  2.1305585      4.7172131e-11  1.6017098e-12  6.368428       16.545661      20.737693      2185.1277    
        78   0             -146.75386      0.0010309114   0.00091444849  0.0016437184   0.00053456741  2.1305634     -3.3884261e-11 -2.2361802e-11  6.368428       16.545661      20.737693      2185.1277    
        79   0             -146.75386      0.0010309071   0.00091461456  0.0016435417   0.00053456512  2.1305649      3.0219825e-11 -7.1508696e-12  6.368428       16.545661      20.737693      2185.1277    
        80   0             -146.75386      0.0010309089   0.0009145091   0.0016436515   0.00053456605  2.1305643     -2.4181966e-11 -8.4280182e-12  6.368428       16.545661      20.737693      2185.1277    
        81   0             -146.75386      0.0010309135   0.00091429887  0.0016438731   0.0005345685   2.1305627      9.8002338e-12 -1.8816739e-12  6.368428       16.545661      20.737693      2185.1277    
        82   0             -146.75386      0.0010309173   0.00091413607  0.0016440454   0.00053457054  2.1305614     -3.8692163e-12  5.7287407e-12  6.368428       16.545661      20.737693      2185.1277    
        83   0             -146.75386      0.0010309178   0.00091412195  0.0016440607   0.00053457079  2.1305612     -8.6262408e-12  1.0581558e-11  6.368428       16.545661      20.737693      2185.1277    
        84   0             -146.75386      0.0010309171   0.00091415686  0.0016440242   0.00053457039  2.1305614     -6.6649222e-12 -1.8035495e-12  6.368428       16.545661      20.737693      2185.1277    
        85   0             -146.75386      0.0010309165   0.00091418512  0.0016439944   0.00053457011  2.1305616      1.1780631e-11  2.1066369e-11  6.368428       16.545661      20.737693      2185.1277    
        86   0             -146.75386      0.0010309162   0.0009141994   0.0016439794   0.00053456994  2.1305618      5.0597443e-12  1.5203161e-11  6.368428       16.545661      20.737693      2185.1277    
        87   0             -146.75386      0.0010309161   0.00091420356  0.0016439749   0.0005345699   2.1305618      6.5542641e-12 -3.884708e-12   6.368428       16.545661      20.737693      2185.1277    
        88   0             -146.75386      0.0010309161   0.00091420209  0.0016439764   0.00053456991  2.1305618     -5.2670692e-12  6.9857371e-12  6.368428       16.545661      20.737693      2185.1277    
        89   0             -146.75386      0.0010309162   0.00091419909  0.0016439796   0.00053456991  2.1305618      4.8460598e-12 -1.7108117e-11  6.368428       16.545661      20.737693      2185.1277    
Loop time of 0.014262 on 1 procs for 36 steps with 96 atoms

109.6% CPU use with 1 MPI tasks x 1 OpenMP threads

Minimization stats:
  Stopping criterion = force tolerance
  Energy initial, next-to-last, final = 
     -146.753862687956  -146.753862710031   -146.75386271003
  Force two-norm initial, final = 0.00049972781 7.6741314e-11
  Force max component initial, final = 6.7757996e-05 1.491765e-11
  Final line search alpha, max atom move = 1 1.491765e-11
  Iterations, force evaluations = 36 72

MPI task timing breakdown:
Section |  min time  |  avg time  |  max time  |%varavg| %total
---------------------------------------------------------------
Pair    | 0.013469   | 0.013469   | 0.013469   |   0.0 | 94.44
Neigh   | 0          | 0          | 0          |   0.0 |  0.00
Comm    | 0.000265   | 0.000265   | 0.000265   |   0.0 |  1.86
Output  | 0.000353   | 0.000353   | 0.000353   |   0.0 |  2.48
Modify  | 0          | 0          | 0          |   0.0 |  0.00
Other   |            | 0.000175   |            |       |  1.23

Nlocal:             96 ave          96 max          96 min
Histogram: 1 0 0 0 0 0 0 0 0 0
Nghost:           1310 ave        1310 max        1310 min
Histogram: 1 0 0 0 0 0 0 0 0 0
Neighs:           6144 ave        6144 max        6144 min
Histogram: 1 0 0 0 0 0 0 0 0 0

Total # of neighbors = 6144
Ave neighs/atom = 64
Neighbor list builds = 0
Dangerous builds = 0
OMP_NUM_THREADS environment is not set. Defaulting to 1 thread. (src/comm.cpp:98)
  using 1 OpenMP thread(s) per MPI task
Loaded 1 plugins from F:\Lammps\LAMMPS 64-bit 2Aug2023\plugins

The 'box' command has been removed and will be ignored

Reading restart file ...
  restart file = 2 Aug 2023, LAMMPS = 2 Aug 2023
  restoring atom style atomic from restart
  triclinic box = (-0.014214012 -0.036929088 -0.015669905) to (6.354214 16.508732 20.722023) with tilt (0 0 0)
  1 by 1 by 1 MPI processor grid
  pair style eam/alloy stores no restart info
  96 atoms
  read_restart CPU = 0.000 seconds
Changing box ...
  triclinic box = (-0.014214012 -0.036929088 -0.015669905) to (6.354214 16.508732 20.722023) with tilt (0.00016545661 0 0)
Neighbor list info ...
  update: every = 1 steps, delay = 0 steps, check = yes
  max neighbors/atom: 2000, page size: 100000
  master list distance cutoff = 8.5
  ghost atom cutoff = 8.5
  1 neighbor lists, perpetual/occasional/extra = 1 0 0
  (1) pair eam/alloy, perpetual
      attributes: half, newton on
      pair build: half/nsq/newton
      stencil: none
      bin: none
Setting up cg style minimization ...
  Unit style    : metal
  Current step  : 53
Per MPI rank memory allocation (min/avg/max) = 4.465 | 4.465 | 4.465 Mbytes
   Step          Temp          PotEng         Press           Pxx            Pyy            Pzz            Pxy            Pxz            Pyz             Lx             Ly             Lz           Volume    
        53   0             -146.75386      0.001142424    0.01064757    -0.0079756552   0.00075535739 -2.2151543     -7.4831544e-06  9.8418438e-06  6.368428       16.545661      20.737693      2185.1277    
        54   0             -146.75386      0.00092940762  0.0082181661  -0.0059563524   0.00052640925 -2.1959246      5.381764e-06  -3.0761855e-07  6.368428       16.545661      20.737693      2185.1277    
        55   0             -146.75386      0.00094568411  0.0050981671  -0.0027615124   0.00050039756 -2.1683573     -6.2063819e-06 -6.1717893e-07  6.368428       16.545661      20.737693      2185.1277    
        56   0             -146.75386      0.00098552086  0.0029008492  -0.00045794201  0.0005136554  -2.1486661      2.8148478e-06 -5.3990294e-08  6.368428       16.545661      20.737693      2185.1277    
        57   0             -146.75386      0.001016823    0.001519874    0.0010025028   0.00052809226 -2.136178      -1.8095634e-06 -4.7361951e-08  6.368428       16.545661      20.737693      2185.1277    
        58   0             -146.75386      0.0010317429   0.00091200442  0.0016477694   0.00053545476 -2.1306206      1.3795428e-06 -2.6494867e-08  6.368428       16.545661      20.737693      2185.1277    
        59   0             -146.75386      0.001036234    0.00073332863  0.0018377263   0.00053764722 -2.1289494     -1.0080762e-06 -4.5311005e-09  6.368428       16.545661      20.737693      2185.1277    
        60   0             -146.75386      0.0010356238   0.00075347675  0.0018161571   0.00053723745 -2.1290898      1.0037153e-06  2.9445371e-09  6.368428       16.545661      20.737693      2185.1277    
        61   0             -146.75386      0.0010330969   0.00084653066  0.0017169194   0.00053584055 -2.1299101     -5.1422496e-07  8.1883722e-09  6.368428       16.545661      20.737693      2185.1277    
        62   0             -146.75386      0.0010305398   0.00093973746  0.001617428    0.00053445404 -2.1307585      2.6640691e-07  8.4381965e-09  6.368428       16.545661      20.737693      2185.1277    
        63   0             -146.75386      0.0010294225   0.00097735306  0.0015770767   0.00053383772 -2.1311222     -1.2306818e-07  6.2661947e-09  6.368428       16.545661      20.737693      2185.1277    
        64   0             -146.75386      0.0010297254   0.00096098355  0.0015942184   0.00053397422 -2.1310002      1.3052541e-07  2.9609949e-09  6.368428       16.545661      20.737693      2185.1277    
        65   0             -146.75386      0.001030659    0.00092290506  0.0016346192   0.00053445274 -2.1306666     -8.9729914e-08  3.1239068e-10  6.368428       16.545661      20.737693      2185.1277    
        66   0             -146.75386      0.0010313751   0.00089579649  0.0016635057   0.00053482298 -2.1304126      7.1277104e-08 -2.6225897e-10  6.368428       16.545661      20.737693      2185.1277    
        67   0             -146.75386      0.0010315777   0.00088927278  0.0016705346   0.00053492555 -2.1303386     -4.9400896e-08 -3.9447763e-10  6.368428       16.545661      20.737693      2185.1277    
        68   0             -146.75386      0.0010313582   0.00089863501  0.0016606327   0.0005348068  -2.130412       2.4905395e-08 -3.4039431e-10  6.368428       16.545661      20.737693      2185.1277    
        69   0             -146.75386      0.001030985    0.00091295894  0.0016453879   0.0005346081  -2.1305396     -8.4384936e-09 -1.5553509e-10  6.368428       16.545661      20.737693      2185.1277    
        70   0             -146.75386      0.0010307197   0.00092236678  0.0016353254   0.00053446691 -2.1306304      5.3732361e-09  1.7132791e-11  6.368428       16.545661      20.737693      2185.1277    
        71   0             -146.75386      0.001030695    0.00092253003  0.0016351017   0.00053445341 -2.1306385     -3.5745745e-09  6.0009609e-11  6.368428       16.545661      20.737693      2185.1277    
        72   0             -146.75386      0.0010308064   0.00091787331  0.0016400338   0.00053451206 -2.1305998      3.337283e-09   3.2933015e-11  6.368428       16.545661      20.737693      2185.1277    
        73   0             -146.75386      0.0010308964   0.00091449122  0.0016436385   0.00053455959 -2.1305687     -1.5668583e-09  1.7122307e-11  6.368428       16.545661      20.737693      2185.1277    
        74   0             -146.75386      0.001030949    0.00091275959  0.0016455001   0.00053458735 -2.1305505      9.523436e-10   4.2321143e-12  6.368428       16.545661      20.737693      2185.1277    
        75   0             -146.75386      0.0010309652   0.00091241971  0.0016458801   0.00053459587 -2.1305449     -2.8026888e-10  1.6974088e-11  6.368428       16.545661      20.737693      2185.1277    
        76   0             -146.75386      0.0010309454   0.00091322801  0.0016450228   0.00053458539 -2.1305517      1.1699228e-10  6.1387498e-12  6.368428       16.545661      20.737693      2185.1277    
        77   0             -146.75386      0.0010309255   0.0009139461   0.0016442555   0.00053457485 -2.1305586     -4.8555993e-11  1.3373984e-11  6.368428       16.545661      20.737693      2185.1277    
        78   0             -146.75386      0.0010309116   0.00091439975  0.0016437675   0.00053456746 -2.1305634      2.7518243e-11  2.2594654e-11  6.368428       16.545661      20.737693      2185.1277    
        79   0             -146.75386      0.0010309073   0.00091450869  0.0016436481   0.00053456524 -2.1305648     -2.8680788e-11 -7.53862e-12    6.368428       16.545661      20.737693      2185.1277    
        80   0             -146.75386      0.0010309091   0.00091441854  0.0016437425   0.00053456616 -2.1305642      1.9934986e-11 -3.9453871e-11  6.368428       16.545661      20.737693      2185.1277    
        81   0             -146.75386      0.0010309136   0.00091426088  0.0016439113   0.00053456854 -2.1305627     -8.8488289e-12  1.3636887e-11  6.368428       16.545661      20.737693      2185.1277    
        82   0             -146.75386      0.0010309173   0.00091414662  0.0016440347   0.00053457049 -2.1305614      9.9019883e-12  4.1260968e-12  6.368428       16.545661      20.737693      2185.1277    
        83   0             -146.75386      0.0010309177   0.00091414048  0.001644042    0.00053457073 -2.1305612      6.5631676e-13  5.2006108e-12  6.368428       16.545661      20.737693      2185.1277    
        84   0             -146.75386      0.0010309171   0.0009141685   0.0016440124   0.00053457042 -2.1305615      6.4321586e-12  2.0100287e-11  6.368428       16.545661      20.737693      2185.1277    
        85   0             -146.75386      0.0010309165   0.00091418969  0.0016439898   0.0005345701  -2.1305616      1.8913625e-12 -2.1551939e-11  6.368428       16.545661      20.737693      2185.1277    
        86   0             -146.75386      0.0010309162   0.00091419963  0.0016439791   0.00053456994 -2.1305618     -2.1457488e-12  7.2348171e-12  6.368428       16.545661      20.737693      2185.1277    
        87   0             -146.75386      0.0010309161   0.00091420208  0.0016439764   0.00053456992 -2.1305618     -1.1082341e-11  1.5798395e-11  6.368428       16.545661      20.737693      2185.1277    
        88   0             -146.75386      0.0010309162   0.0009142008   0.0016439778   0.00053456991 -2.1305618      7.5501866e-12 -1.2236351e-11  6.368428       16.545661      20.737693      2185.1277    
        89   0             -146.75386      0.0010309162   0.00091419854  0.0016439801   0.00053456996 -2.1305618     -7.6086955e-12  1.3034408e-11  6.368428       16.545661      20.737693      2185.1277    
Loop time of 0.014663 on 1 procs for 36 steps with 96 atoms

106.6% CPU use with 1 MPI tasks x 1 OpenMP threads

Minimization stats:
  Stopping criterion = force tolerance
  Energy initial, next-to-last, final = 
     -146.753862687725  -146.753862710029  -146.753862710029
  Force two-norm initial, final = 0.0005004196 7.7035722e-11
  Force max component initial, final = 6.7757428e-05 1.4502892e-11
  Final line search alpha, max atom move = 1 1.4502892e-11
  Iterations, force evaluations = 36 72

MPI task timing breakdown:
Section |  min time  |  avg time  |  max time  |%varavg| %total
---------------------------------------------------------------
Pair    | 0.013861   | 0.013861   | 0.013861   |   0.0 | 94.53
Neigh   | 0          | 0          | 0          |   0.0 |  0.00
Comm    | 0.000266   | 0.000266   | 0.000266   |   0.0 |  1.81
Output  | 0.000365   | 0.000365   | 0.000365   |   0.0 |  2.49
Modify  | 0          | 0          | 0          |   0.0 |  0.00
Other   |            | 0.000171   |            |       |  1.17

Nlocal:             96 ave          96 max          96 min
Histogram: 1 0 0 0 0 0 0 0 0 0
Nghost:           1310 ave        1310 max        1310 min
Histogram: 1 0 0 0 0 0 0 0 0 0
Neighs:           6144 ave        6144 max        6144 min
Histogram: 1 0 0 0 0 0 0 0 0 0

Total # of neighbors = 6144
Ave neighs/atom = 64
Neighbor list builds = 0
Dangerous builds = 0
=========================================
Components of the Elastic Constant Tensor
=========================================
Elastic Constant C11all = 68.6663211409077 GPa
Elastic Constant C22all = 68.666295375041 GPa
Elastic Constant C33all = 69.8385138077336 GPa
Elastic Constant C12all = 26.0550920095754 GPa
Elastic Constant C13all = 15.9998270833028 GPa
Elastic Constant C23all = 15.9998257437254 GPa
Elastic Constant C44all = 12.7595349822729 GPa
Elastic Constant C55all = 12.7595349822617 GPa
Elastic Constant C66all = 21.305617648917 GPa
Elastic Constant C14all = 1.34752338447324e-10 GPa
Elastic Constant C15all = -3.61325183493065e-11 GPa
Elastic Constant C16all = 3.08807964401557e-09 GPa
Elastic Constant C24all = -1.29620095227498e-10 GPa
Elastic Constant C25all = 2.28898451058753e-10 GPa
Elastic Constant C26all = -2.86277572722136e-09 GPa
Elastic Constant C34all = 3.93665072358401e-11 GPa
Elastic Constant C35all = -9.61141534045181e-11 GPa
Elastic Constant C36all = 3.5316163567622e-10 GPa
Elastic Constant C45all = -2.32789835586634e-11 GPa
Elastic Constant C46all = -1.68111934320833e-10 GPa
Elastic Constant C56all = 1.41537380674341e-10 GPa
=========================================
Average properties for a cubic crystal
=========================================
Bulk Modulus = 35.9200688885433 GPa
Shear Modulus 1 = 15.6082292044839 GPa
Shear Modulus 2 = 24.8527309145131 GPa
Poisson Ratio = 0.218887937692802
Total wall time: 0:00:00
