LAMMPS (2 Aug 2023 - Update 3)
OMP_NUM_THREADS environment is not set. Defaulting to 1 thread. (src/comm.cpp:98)
  using 1 OpenMP thread(s) per MPI task
Loaded 1 plugins from F:\Lammps\LAMMPS 64-bit 2Aug2023\plugins
Lattice spacing in x,y,z = 3.17 5.4906011 5.1765883
Created triclinic box = (0 0 0) to (6.34 16.471803 20.706353) with tilt (0 0 0)
  1 by 1 by 1 MPI processor grid
Created 96 atoms
  using lattice units in triclinic box = (0 0 0) to (6.34 16.471803 20.706353) with tilt (0 0 0)
  create_atoms CPU = 0.000 seconds
Neighbor list info ...
  update: every = 1 steps, delay = 0 steps, check = yes
  max neighbors/atom: 2000, page size: 100000
  master list distance cutoff = 8.5
  ghost atom cutoff = 8.5
  1 neighbor lists, perpetual/occasional/extra = 1 0 0
  (1) pair eam/alloy, perpetual
      attributes: half, newton on
      pair build: half/nsq/newton
      stencil: none
      bin: none
Setting up cg style minimization ...
  Unit style    : metal
  Current step  : 0
WARNING: Energy due to 3 extra global DOFs will be included in minimizer energies
 (src/min.cpp:228)
Per MPI rank memory allocation (min/avg/max) = 4.472 | 4.472 | 4.472 Mbytes
   Step          Temp          PotEng         Press           Pxx            Pyy            Pzz            Pxy            Pxz            Pyz             Lx             Ly             Lz           Volume    
         0   0             -146.72439      3772.2495      4425.4155      4425.4155      2465.9176      4.1001267e-12  1.1177022e-11 -7.5627415e-12  6.34           16.471803      20.706353      2162.39      
         1   0             -146.72575      3681.9194      4325.0865      4325.0865      2395.5851     -6.0779438e-12  6.9594384e-12 -9.5088338e-13  6.340634       16.47345       20.707507      2162.943     
         2   0             -146.72708      3591.118       4223.9692      4223.9692      2325.4156      8.1241232e-12  1.1633785e-11 -1.4285302e-11  6.341268       16.475098      20.708654      2163.4954    
         3   0             -146.72838      3500.0778      4122.6305      4122.6305      2254.9723      9.5039822e-14 -1.3151456e-12 -8.1682874e-13  6.341902       16.476745      20.709794      2164.0472    
         4   0             -146.72964      3409.5005      4021.7214      4021.7214      2185.0587     -2.6707095e-13  3.800625e-13   1.1386467e-11  6.342536       16.478392      20.710927      2164.5982    
         5   0             -146.73087      3320.0138      3921.937       3921.937       2116.1675      6.9626182e-12  6.4080733e-12 -1.6338533e-11  6.34317        16.480039      20.712052      2165.1486    
         6   0             -146.73207      3228.9018      3820.073       3820.073       2046.5595     -1.6991458e-12  6.242179e-12  -2.4486179e-12  6.343804       16.481686      20.71317       2165.6983    
         7   0             -146.73323      3138.4425      3719.2597      3719.2597      1976.808      -6.2534274e-12 -5.5323716e-12  1.3045722e-11  6.344438       16.483333      20.714279      2166.2473    
         8   0             -146.73437      3048.225       3618.3232      3618.3232      1908.0288     -3.6787634e-12  1.4468777e-12 -1.0825929e-12  6.345072       16.484981      20.71538       2166.7954    
         9   0             -146.73546      2958.4291      3517.496       3517.496       1840.2953      1.3590547e-11 -8.4738947e-12  1.3582853e-11  6.345706       16.486628      20.716472      2167.3427    
        10   0             -146.73653      2868.5093      3416.5005      3416.5005      1772.527      -1.73589e-11    5.8461287e-13 -8.9435513e-12  6.34634        16.488275      20.717556      2167.8892    
        11   0             -146.73756      2778.6041      3315.3793      3315.3793      1705.0537      4.0246108e-12  8.6131797e-13 -2.9428364e-11  6.346974       16.489922      20.718631      2168.4348    
        12   0             -146.73856      2688.9234      3214.6771      3214.6771      1637.4158      3.3008896e-12  2.7268219e-12 -2.2224623e-11  6.347608       16.491569      20.719696      2168.9796    
        13   0             -146.73953      2599.2424      3113.8114      3113.8114      1570.1044      1.1627083e-11  4.2019426e-12  1.5762409e-11  6.348242       16.493217      20.720752      2169.5234    
        14   0             -146.74046      2509.9394      3013.2832      3013.2832      1503.252      -7.2234844e-13 -8.1968618e-13 -2.4805753e-11  6.348876       16.494864      20.721796      2170.0662    
        15   0             -146.74136      2420.0874      2911.7719      2911.7719      1436.7184      1.9411471e-12  9.1679506e-12 -1.2025893e-11  6.34951        16.496511      20.72283       2170.6079    
        16   0             -146.74223      2331.7803      2812.0096      2812.0096      1371.3218      6.2674734e-12  8.3259083e-12  1.0189765e-11  6.350144       16.498158      20.723852      2171.1485    
        17   0             -146.74306      2242.8217      2711.3282      2711.3282      1305.8086     -2.1910231e-12  2.7438981e-12  2.2278814e-11  6.350778       16.499805      20.724863      2171.6879    
        18   0             -146.74387      2153.3007      2609.5744      2609.5744      1240.7532     -4.6624474e-12  5.4250211e-13  2.188433e-11   6.351412       16.501452      20.725861      2172.2261    
        19   0             -146.74464      2064.8459      2509.0414      2509.0414      1176.455       7.009851e-12  -5.1371463e-12 -1.456207e-11   6.352046       16.5031        20.726846      2172.7631    
        20   0             -146.74538      1976.6234      2408.4834      2408.4834      1112.9034      6.343119e-12  -2.2814767e-12 -2.3264923e-11  6.35268        16.504747      20.727818      2173.2988    
        21   0             -146.74608      1888.8568      2308.4282      2308.4282      1049.7139     -1.0294807e-11 -6.4438433e-13 -7.0779993e-12  6.353314       16.506394      20.728776      2173.833     
        22   0             -146.74676      1800.8585      2207.9779      2207.9779      986.61968     -5.4043441e-12  2.1474215e-13  1.3631014e-11  6.353948       16.508041      20.729718      2174.3658    
        23   0             -146.7474       1713.1586      2107.6256      2107.6256      924.22464      1.5795029e-12  8.2808888e-13 -3.6599484e-12  6.354582       16.509688      20.730645      2174.8969    
        24   0             -146.74801      1625.0375      2006.4409      2006.4409      862.2308      -9.9039858e-12 -6.8479572e-12  1.5147272e-11  6.355216       16.511336      20.731554      2175.4263    
        25   0             -146.74859      1537.8585      1906.2713      1906.2713      801.03281     -2.8917941e-12  3.9545028e-12 -2.3338719e-11  6.35585        16.512983      20.732444      2175.9538    
        26   0             -146.74914      1451.0089      1806.3575      1806.3575      740.31157     -2.6459145e-12 -7.0489613e-13  1.8705287e-11  6.356484       16.51463       20.733316      2176.4794    
        27   0             -146.74965      1363.9125      1705.8477      1705.8477      680.0421       2.9312544e-12 -1.021343e-14   1.375749e-11   6.357118       16.516277      20.734165      2177.0028    
        28   0             -146.75014      1277.3107      1605.5771      1605.5771      620.77791     -3.5432121e-12  1.9400873e-12 -1.0343729e-11  6.357752       16.517924      20.734992      2177.5239    
        29   0             -146.75059      1191.6897      1506.1782      1506.1782      562.71249     -7.4063066e-12 -7.339951e-12  -3.6546627e-12  6.358386       16.519571      20.735794      2178.0424    
        30   0             -146.75101      1105.9171      1406.1446      1406.1446      505.46209     -5.2255427e-12  2.6535959e-12 -8.1138798e-12  6.35902        16.521219      20.736568      2178.5582    
        31   0             -146.7514       1021.3416      1307.3531      1307.3531      449.31863     -5.6732775e-12 -2.3264519e-12 -1.1020035e-12  6.359654       16.522866      20.737314      2179.0709    
        32   0             -146.75176      936.15646      1207.341       1207.341       393.78739     -1.2292629e-12  3.2338285e-12 -1.3924845e-11  6.360288       16.524513      20.738027      2179.5803    
        33   0             -146.75209      851.68804      1107.8117      1107.8117      339.44069      7.761428e-12  -2.0397971e-12 -4.946508e-12   6.360922       16.52616       20.738703      2180.086     
        34   0             -146.75239      768.23487      1009.0818      1009.0818      286.54098      4.2621957e-12  1.1410041e-11  2.7928598e-11  6.361556       16.527807      20.739339      2180.5874    
        35   0             -146.75266      685.66815      910.64299      910.64299      235.71846      3.6597604e-12  4.4855002e-12 -1.7401702e-11  6.36219        16.529454      20.739928      2181.084     
        36   0             -146.7529       603.98749      812.5444       812.5444       186.87366     -5.3711963e-12  3.037223e-12  -2.4257016e-12  6.362824       16.531102      20.740465      2181.5752    
        37   0             -146.75312      523.66613      715.50454      715.50454      139.9893      -2.3283597e-12 -3.1893943e-12  2.2356329e-11  6.363458       16.532749      20.740942      2182.0602    
        38   0             -146.7533       443.54212      617.95239      617.95239      94.721573     -4.2532932e-12 -1.2632535e-12  1.6554734e-11  6.364092       16.534396      20.741348      2182.5377    
        39   0             -146.75346      364.15561      520.27026      520.27026      51.926321     -1.223769e-11   3.3306071e-12  1.5603945e-11  6.364726       16.536043      20.741666      2183.0061    
        40   0             -146.75359      287.36503      424.47945      424.47945      13.1362        1.1781977e-11  2.2912228e-12  3.1995653e-11  6.36536        16.53769       20.741873      2183.4628    
        41   0             -146.75369      213.16605      329.97907      329.97907     -20.459999     -5.9152497e-12  5.0905763e-14 -3.6855773e-12  6.365994       16.539338      20.741937      2183.9045    
        42   0             -146.75377      141.60192      236.24291      236.24291     -47.680063     -5.0539669e-12 -3.2878778e-12  2.9305883e-11  6.366628       16.540985      20.741809      2184.326     
        43   0             -146.75382      75.175928      145.41715      145.41715     -65.306512     -6.813747e-12   2.6257606e-12 -1.7413474e-11  6.367262       16.542632      20.74139       2184.7169    
        44   0             -146.75385      16.609202      57.914826      57.914826     -66.002046      1.2439913e-11  9.1480421e-12 -1.0949158e-11  6.367896       16.544279      20.740457      2185.0538    
        45   0             -146.75386     -13.965589     -8.721328      -8.721328      -24.454112      3.9326532e-12  8.9947359e-12 -7.0513032e-12  6.3684508      16.545721      20.738387      2185.2164    
        46   0             -146.75386      1.7061536      3.8327204      3.8327204     -2.5469799      4.1516023e-12 -6.176526e-12  -9.2088237e-12  6.3683959      16.545578      20.737817      2185.1186    
        47   0             -146.75386     -0.068869903   -0.058756566   -0.058756566   -0.089096575    9.1579065e-12  1.8315813e-13 -4.6501814e-12  6.3684283      16.545662      20.737695      2185.1281    
        48   0             -146.75386     -0.0029012471  -0.0059305395  -0.0059305394   0.0031573377  -4.375445e-13   3.9277251e-12 -1.3716511e-11  6.3684281      16.545661      20.737693      2185.1277    
        49   0             -146.75386      0.0013997657   0.00072980202  0.00072980203  0.002739693   -1.5822831e-12 -6.1663249e-12  7.9063275e-12  6.368428       16.545661      20.737693      2185.1277    
        50   0             -146.75386     -2.9842816e-06 -4.3020426e-06 -4.3020574e-06 -3.4874495e-07 -7.1635194e-12  1.0551945e-11 -1.9893012e-11  6.368428       16.545661      20.737693      2185.1277    
        51   0             -146.75386     -3.12852e-07   -1.638212e-07  -1.6378623e-07 -6.1094859e-07  9.1782592e-12  1.7908798e-12  2.6486706e-11  6.368428       16.545661      20.737693      2185.1277    
        52   0             -146.75386      6.0336954e-08  1.2320656e-07  1.233651e-07  -6.5560794e-08 -8.455802e-12  -3.3578997e-13 -1.4886689e-11  6.368428       16.545661      20.737693      2185.1277    
        53   0             -146.75386     -2.2261349e-11 -3.67283e-11   -8.0485295e-11  5.0429548e-11  6.4003604e-12  4.0498306e-12 -2.3729158e-11  6.368428       16.545661      20.737693      2185.1277    
Loop time of 0.014505 on 1 procs for 53 steps with 96 atoms

107.7% CPU use with 1 MPI tasks x 1 OpenMP threads

Minimization stats:
  Stopping criterion = force tolerance
  Energy initial, next-to-last, final = 
     -146.724386219683  -146.753862724566  -146.753862724546
  Force two-norm initial, final = 9.0788294 2.4545072e-13
  Force max component initial, final = 5.9727965 1.0927983e-13
  Final line search alpha, max atom move = 1 1.0927983e-13
  Iterations, force evaluations = 53 61

MPI task timing breakdown:
Section |  min time  |  avg time  |  max time  |%varavg| %total
---------------------------------------------------------------
Pair    | 0.011406   | 0.011406   | 0.011406   |   0.0 | 78.63
Neigh   | 0          | 0          | 0          |   0.0 |  0.00
Comm    | 0.000254   | 0.000254   | 0.000254   |   0.0 |  1.75
Output  | 0.000562   | 0.000562   | 0.000562   |   0.0 |  3.87
Modify  | 0          | 0          | 0          |   0.0 |  0.00
Other   |            | 0.002283   |            |       | 15.74

Nlocal:             96 ave          96 max          96 min
Histogram: 1 0 0 0 0 0 0 0 0 0
Nghost:           1310 ave        1310 max        1310 min
Histogram: 1 0 0 0 0 0 0 0 0 0
Neighs:           6144 ave        6144 max        6144 min
Histogram: 1 0 0 0 0 0 0 0 0 0

Total # of neighbors = 6144
Ave neighs/atom = 64
Neighbor list builds = 0
Dangerous builds = 0
Displacing atoms ...
System init for write_restart ...
OMP_NUM_THREADS environment is not set. Defaulting to 1 thread. (src/comm.cpp:98)
  using 1 OpenMP thread(s) per MPI task
Loaded 1 plugins from F:\Lammps\LAMMPS 64-bit 2Aug2023\plugins

The 'box' command has been removed and will be ignored

Reading restart file ...
  restart file = 2 Aug 2023, LAMMPS = 2 Aug 2023
  restoring atom style atomic from restart
  triclinic box = (-0.014214012 -0.036929088 -0.015669905) to (6.354214 16.508732 20.722023) with tilt (0 0 0)
  1 by 1 by 1 MPI processor grid
  pair style eam/alloy stores no restart info
  96 atoms
  read_restart CPU = 0.000 seconds
Changing box ...
  triclinic box = (-0.014214012 -0.036929088 -0.015669905) to (6.3542134 16.508732 20.722023) with tilt (0 0 0)
  triclinic box = (-0.014214012 -0.036929088 -0.015669905) to (6.3542134 16.508732 20.722023) with tilt (0 0 0)
  triclinic box = (-0.014214012 -0.036929088 -0.015669905) to (6.3542134 16.508732 20.722023) with tilt (0 0 0)
Neighbor list info ...
  update: every = 1 steps, delay = 0 steps, check = yes
  max neighbors/atom: 2000, page size: 100000
  master list distance cutoff = 8.5
  ghost atom cutoff = 8.5
  1 neighbor lists, perpetual/occasional/extra = 1 0 0
  (1) pair eam/alloy, perpetual
      attributes: half, newton on
      pair build: half/nsq/newton
      stencil: none
      bin: none
Setting up cg style minimization ...
  Unit style    : metal
  Current step  : 53
Per MPI rank memory allocation (min/avg/max) = 4.465 | 4.465 | 4.465 Mbytes
   Step          Temp          PotEng         Press           Pxx            Pyy            Pzz            Pxy            Pxz            Pyz             Lx             Ly             Lz           Volume    
        53   0             -146.75386      0.037222288    0.079636158    0.015714595    0.016316111   -0.0085432762   1.3051856e-05  1.0047027e-05  6.3684274      16.545661      20.737693      2185.1275    
        54   0             -146.75386      0.036970507    0.076961602    0.017878218    0.016071702   -0.0066066969  -1.6113913e-06 -3.337388e-07   6.3684274      16.545661      20.737693      2185.1275    
        55   0             -146.75386      0.036923742    0.073589157    0.021164584    0.016017487   -0.0039314591  -7.1192582e-07 -5.7715291e-07  6.3684274      16.545661      20.737693      2185.1275    
        56   0             -146.75386      0.036912775    0.071200465    0.023532392    0.016005468   -0.0020253872  -4.0839631e-07 -1.2368792e-07  6.3684274      16.545661      20.737693      2185.1275    
        57   0             -146.75386      0.036909436    0.069556231    0.025170055    0.016002022   -0.00071062391 -8.4609142e-08 -4.498346e-08   6.3684274      16.545661      20.737693      2185.1275    
        58   0             -146.75386      0.03690836     0.068678559    0.026045572    0.01600095    -8.2223855e-06 -1.913249e-08  -4.1225689e-08  6.3684274      16.545661      20.737693      2185.1275    
        59   0             -146.75386      0.036907982    0.068372403    0.026350986    0.016000556    0.00023675953  2.0349342e-08  1.0536312e-08  6.3684274      16.545661      20.737693      2185.1275    
        60   0             -146.75386      0.036907792    0.068397689    0.026325312    0.016000374    0.00021629108  4.8622723e-08 -4.4082253e-09  6.3684274      16.545661      20.737693      2185.1275    
        61   0             -146.75386      0.036907657    0.068543394    0.026179329    0.016000247    9.9373408e-05  4.4357711e-08  1.4857342e-08  6.3684274      16.545661      20.737693      2185.1275    
        62   0             -146.75386      0.036907553    0.068707204    0.026015298    0.016000158   -3.2016423e-05  2.7927136e-08  5.5814503e-09  6.3684274      16.545661      20.737693      2185.1275    
        63   0             -146.75386      0.036907484    0.068783818    0.025938539    0.016000095   -9.3478846e-05  1.115109e-08   6.9912943e-09  6.3684274      16.545661      20.737693      2185.1275    
        64   0             -146.75386      0.036907437    0.068758705    0.02596356     0.016000047   -7.3395004e-05  8.2435683e-10  1.3553129e-09  6.3684274      16.545661      20.737693      2185.1275    
        65   0             -146.75386      0.036907408    0.068689775    0.026032433    0.016000018   -1.8190983e-05 -2.5293573e-09  1.1971232e-09  6.3684274      16.545661      20.737693      2185.1275    
        66   0             -146.75386      0.036907389    0.068633401    0.026088767    0.015999999    2.6948716e-05 -1.3404877e-09 -1.089503e-09   6.3684274      16.545661      20.737693      2185.1275    
        67   0             -146.75386      0.036907377    0.068616441    0.026105704    0.015999988    4.051117e-05   8.1881884e-11  8.1153564e-11  6.3684274      16.545661      20.737693      2185.1275    
        68   0             -146.75386      0.036907371    0.068632761    0.02608937     0.015999982    2.7416059e-05  1.02049e-09   -5.9186814e-10  6.3684274      16.545661      20.737693      2185.1275    
        69   0             -146.75386      0.036907367    0.068661673    0.026060449    0.015999979    4.2415728e-06  1.0659259e-09 -8.2821434e-11  6.3684274      16.545661      20.737693      2185.1275    
        70   0             -146.75386      0.036907364    0.068684095    0.026038021    0.015999976   -1.3724728e-05  6.0646855e-10 -2.7049727e-11  6.3684274      16.545661      20.737693      2185.1275    
        71   0             -146.75386      0.036907363    0.068686107    0.026036006    0.015999975   -1.5333608e-05  2.4722921e-10  7.9314917e-11  6.3684274      16.545661      20.737693      2185.1275    
        72   0             -146.75386      0.036907362    0.068676673    0.026045439    0.015999975   -7.7723326e-06  4.0167607e-11  1.1947146e-11  6.3684274      16.545661      20.737693      2185.1275    
        73   0             -146.75386      0.036907362    0.068668795    0.026053318    0.015999975   -1.4593187e-06 -8.1988726e-12  3.8597119e-11  6.3684274      16.545661      20.737693      2185.1275    
        74   0             -146.75386      0.036907362    0.068663888    0.026058224    0.015999975    2.4709575e-06 -5.354833e-12   1.6436251e-11  6.3684274      16.545661      20.737693      2185.1275    
        75   0             -146.75386      0.036907362    0.068662341    0.026059772    0.015999975    3.7096474e-06 -1.0350981e-11 -3.7576642e-12  6.3684274      16.545661      20.737693      2185.1275    
        76   0             -146.75386      0.036907362    0.068664159    0.026057953    0.015999975    2.2520416e-06 -2.9394345e-12 -3.4686774e-12  6.3684274      16.545661      20.737693      2185.1275    
        77   0             -146.75386      0.036907362    0.068666028    0.026056084    0.015999974    7.542985e-07   4.0816293e-12  1.381479e-11   6.3684274      16.545661      20.737693      2185.1275    
        78   0             -146.75386      0.036907362    0.068667485    0.026054628    0.015999974   -4.122232e-07  -6.2006677e-12 -1.7218181e-12  6.3684274      16.545661      20.737693      2185.1275    
        79   0             -146.75386      0.036907362    0.068667959    0.026054153    0.015999974   -7.9231464e-07  1.736187e-12  -4.9628594e-12  6.3684274      16.545661      20.737693      2185.1275    
        80   0             -146.75386      0.036907362    0.068667769    0.026054343    0.015999974   -6.3980593e-07 -7.1050112e-12  8.3664695e-12  6.3684274      16.545661      20.737693      2185.1275    
        81   0             -146.75386      0.036907362    0.06866728     0.026054832    0.015999974   -2.481727e-07   6.7755809e-12  4.2153411e-12  6.3684274      16.545661      20.737693      2185.1275    
        82   0             -146.75386      0.036907362    0.068666843    0.026055269    0.015999974    1.0188544e-07  3.2714087e-12  4.7511623e-13  6.3684274      16.545661      20.737693      2185.1275    
        83   0             -146.75386      0.036907362    0.068666784    0.026055328    0.015999974    1.4924499e-07  3.7725498e-12 -1.0891373e-11  6.3684274      16.545661      20.737693      2185.1275    
        84   0             -146.75386      0.036907362    0.06866686     0.026055252    0.015999974    8.8493103e-08  1.4500023e-13  2.2063347e-12  6.3684274      16.545661      20.737693      2185.1275    
        85   0             -146.75386      0.036907362    0.06866693     0.026055183    0.015999974    3.2674694e-08  4.684525e-12  -9.2535426e-12  6.3684274      16.545661      20.737693      2185.1275    
        86   0             -146.75386      0.036907362    0.068666971    0.026055141    0.015999974   -4.0267454e-10 -8.5550135e-12  1.233911e-11   6.3684274      16.545661      20.737693      2185.1275    
        87   0             -146.75386      0.036907362    0.068666986    0.026055126    0.015999974   -1.2652015e-08  8.191241e-12   1.6008196e-11  6.3684274      16.545661      20.737693      2185.1275    
        88   0             -146.75386      0.036907362    0.068666984    0.026055129    0.015999975   -1.0554012e-08  1.0508701e-11 -1.6405436e-12  6.3684274      16.545661      20.737693      2185.1275    
        89   0             -146.75386      0.036907362    0.068666976    0.026055137    0.015999974   -4.2900913e-09  5.7300529e-12  2.2438368e-12  6.3684274      16.545661      20.737693      2185.1275    
Loop time of 0.014967 on 1 procs for 36 steps with 96 atoms

104.4% CPU use with 1 MPI tasks x 1 OpenMP threads

Minimization stats:
  Stopping criterion = force tolerance
  Energy initial, next-to-last, final = 
      -146.75386270288  -146.753862724552  -146.753862724552
  Force two-norm initial, final = 0.00049854492 6.7878173e-11
  Force max component initial, final = 6.7757794e-05 1.2927989e-11
  Final line search alpha, max atom move = 1 1.2927989e-11
  Iterations, force evaluations = 36 72

MPI task timing breakdown:
Section |  min time  |  avg time  |  max time  |%varavg| %total
---------------------------------------------------------------
Pair    | 0.014155   | 0.014155   | 0.014155   |   0.0 | 94.57
Neigh   | 0          | 0          | 0          |   0.0 |  0.00
Comm    | 0.000264   | 0.000264   | 0.000264   |   0.0 |  1.76
Output  | 0.000372   | 0.000372   | 0.000372   |   0.0 |  2.49
Modify  | 0          | 0          | 0          |   0.0 |  0.00
Other   |            | 0.000176   |            |       |  1.18

Nlocal:             96 ave          96 max          96 min
Histogram: 1 0 0 0 0 0 0 0 0 0
Nghost:           1310 ave        1310 max        1310 min
Histogram: 1 0 0 0 0 0 0 0 0 0
Neighs:           6144 ave        6144 max        6144 min
Histogram: 1 0 0 0 0 0 0 0 0 0

Total # of neighbors = 6144
Ave neighs/atom = 64
Neighbor list builds = 0
Dangerous builds = 0
OMP_NUM_THREADS environment is not set. Defaulting to 1 thread. (src/comm.cpp:98)
  using 1 OpenMP thread(s) per MPI task
Loaded 1 plugins from F:\Lammps\LAMMPS 64-bit 2Aug2023\plugins

The 'box' command has been removed and will be ignored

Reading restart file ...
  restart file = 2 Aug 2023, LAMMPS = 2 Aug 2023
  restoring atom style atomic from restart
  triclinic box = (-0.014214012 -0.036929088 -0.015669905) to (6.354214 16.508732 20.722023) with tilt (0 0 0)
  1 by 1 by 1 MPI processor grid
  pair style eam/alloy stores no restart info
  96 atoms
  read_restart CPU = 0.000 seconds
Changing box ...
  triclinic box = (-0.014214012 -0.036929088 -0.015669905) to (6.3542146 16.508732 20.722023) with tilt (0 0 0)
  triclinic box = (-0.014214012 -0.036929088 -0.015669905) to (6.3542146 16.508732 20.722023) with tilt (0 0 0)
  triclinic box = (-0.014214012 -0.036929088 -0.015669905) to (6.3542146 16.508732 20.722023) with tilt (0 0 0)
Neighbor list info ...
  update: every = 1 steps, delay = 0 steps, check = yes
  max neighbors/atom: 2000, page size: 100000
  master list distance cutoff = 8.5
  ghost atom cutoff = 8.5
  1 neighbor lists, perpetual/occasional/extra = 1 0 0
  (1) pair eam/alloy, perpetual
      attributes: half, newton on
      pair build: half/nsq/newton
      stencil: none
      bin: none
Setting up cg style minimization ...
  Unit style    : metal
  Current step  : 53
Per MPI rank memory allocation (min/avg/max) = 4.465 | 4.465 | 4.465 Mbytes
   Step          Temp          PotEng         Press           Pxx            Pyy            Pzz            Pxy            Pxz            Pyz             Lx             Ly             Lz           Volume    
        53   0             -146.75386     -0.03659148    -0.059216963   -0.03487409    -0.015683388   -0.0085439447   1.3051861e-05  9.6363219e-06  6.3684287      16.545661      20.737693      2185.1279    
        54   0             -146.75386     -0.036843319   -0.061547953   -0.033054197   -0.015927806   -0.0066073265  -1.611202e-06  -1.965455e-07   6.3684287      16.545661      20.737693      2185.1279    
        55   0             -146.75386     -0.036890193   -0.064443648   -0.030244874   -0.015982057   -0.0039324168  -7.1208534e-07 -6.7806175e-07  6.3684287      16.545661      20.737693      2185.1279    
        56   0             -146.75386     -0.036901262   -0.066492156   -0.028217508   -0.015994123   -0.0020266142  -4.0858982e-07 -6.8854892e-08  6.3684287      16.545661      20.737693      2185.1279    
        57   0             -146.75386     -0.036904682   -0.067902246   -0.026814189   -0.01599761    -0.00071154423 -8.4714336e-08 -7.6550914e-08  6.3684287      16.545661      20.737693      2185.1279    
        58   0             -146.75386     -0.036905804   -0.06865558    -0.026063127   -0.015998706   -8.2858598e-06 -1.9141502e-08 -1.3314809e-08  6.3684287      16.545661      20.737693      2185.1279    
        59   0             -146.75386     -0.036906199   -0.068918599   -0.02580089    -0.015999109    0.00023722752  2.0387997e-08 -1.0525664e-08  6.3684287      16.545661      20.737693      2185.1279    
        60   0             -146.75386     -0.036906388   -0.068896914   -0.02582296    -0.015999291    0.00021674225  4.866436e-08   1.4162468e-08  6.3684287      16.545661      20.737693      2185.1279    
        61   0             -146.75386     -0.036906515   -0.068771814   -0.025948319   -0.015999413    9.9620173e-05  4.4378169e-08  4.2787089e-09  6.3684287      16.545661      20.737693      2185.1279    
        62   0             -146.75386     -0.03690661    -0.068631081   -0.02608925    -0.015999497   -3.2086596e-05  2.7938703e-08  1.0417766e-08  6.3684287      16.545661      20.737693      2185.1279    
        63   0             -146.75386     -0.036906675   -0.068565221   -0.026155245   -0.015999558   -9.3745782e-05  1.1133727e-08  4.226487e-09   6.3684287      16.545661      20.737693      2185.1279    
        64   0             -146.75386     -0.036906723   -0.06858681    -0.026133752   -0.015999607   -7.3619905e-05  8.1771973e-10  3.8346078e-09  6.3684287      16.545661      20.737693      2185.1279    
        65   0             -146.75386     -0.036906756   -0.068646066   -0.026074563   -0.015999638   -1.8264773e-05 -2.5301238e-09 -5.0536208e-10  6.3684287      16.545661      20.737693      2185.1279    
        66   0             -146.75386     -0.036906778   -0.068694556   -0.026026119   -0.015999659    2.7033035e-05 -1.3310039e-09  4.122424e-10   6.3684287      16.545661      20.737693      2185.1279    
        67   0             -146.75386     -0.03690679    -0.068709153   -0.026011548   -0.01599967     4.0655077e-05  9.458592e-11  -8.8991698e-10  6.3684287      16.545661      20.737693      2185.1279    
        68   0             -146.75386     -0.036906796   -0.068695119   -0.026025594   -0.015999675    2.7521543e-05  1.0144532e-09 -1.2976296e-10  6.3684287      16.545661      20.737693      2185.1279    
        69   0             -146.75386     -0.036906799   -0.068670249   -0.026050468   -0.015999678    4.2650615e-06  1.0638474e-09 -2.6362006e-10  6.3684287      16.545661      20.737693      2185.1279    
        70   0             -146.75386     -0.0369068     -0.068650947   -0.026069774   -0.01599968    -1.3781516e-05  6.0624965e-10  8.2798036e-11  6.3684287      16.545661      20.737693      2185.1279    
        71   0             -146.75386     -0.036906801   -0.068649214   -0.026071509   -0.015999681   -1.54015e-05    2.3291611e-10  1.7938538e-11  6.3684287      16.545661      20.737693      2185.1279    
        72   0             -146.75386     -0.036906802   -0.068657332   -0.026063392   -0.015999682   -7.8108383e-06  4.6327564e-11  7.2658575e-11  6.3684287      16.545661      20.737693      2185.1279    
        73   0             -146.75386     -0.036906803   -0.068664116   -0.02605661    -0.015999682   -1.4690952e-06  2.7817144e-12  1.0328233e-11  6.3684287      16.545661      20.737693      2185.1279    
        74   0             -146.75386     -0.036906803   -0.068668344   -0.026052383   -0.015999682    2.4827417e-06 -3.8971984e-12  1.2805479e-11  6.3684287      16.545661      20.737693      2185.1279    
        75   0             -146.75386     -0.036906803   -0.068669678   -0.026051049   -0.015999682    3.7295765e-06 -5.7414992e-12 -2.1684903e-11  6.3684287      16.545661      20.737693      2185.1279    
        76   0             -146.75386     -0.036906803   -0.068668111   -0.026052615   -0.015999682    2.2650181e-06  2.157196e-12   2.4232085e-12  6.3684287      16.545661      20.737693      2185.1279    
        77   0             -146.75386     -0.036906803   -0.068666501   -0.026054226   -0.015999682    7.5939737e-07  6.9790886e-12 -9.8391659e-12  6.3684287      16.545661      20.737693      2185.1279    
        78   0             -146.75386     -0.036906803   -0.068665245   -0.026055482   -0.015999682   -4.1480792e-07 -5.1513229e-12 -1.261612e-11   6.3684287      16.545661      20.737693      2185.1279    
        79   0             -146.75386     -0.036906803   -0.068664835   -0.026055891   -0.015999682   -7.9791342e-07  4.7913663e-12 -8.2558992e-12  6.3684287      16.545661      20.737693      2185.1279    
        80   0             -146.75386     -0.036906803   -0.068664999   -0.026055727   -0.015999682   -6.4455562e-07  4.5484273e-12 -1.4425682e-11  6.3684287      16.545661      20.737693      2185.1279    
        81   0             -146.75386     -0.036906803   -0.068665421   -0.026055306   -0.015999682   -2.5023412e-07 -6.9879921e-12 -7.3796377e-12  6.3684287      16.545661      20.737693      2185.1279    
        82   0             -146.75386     -0.036906803   -0.068665798   -0.026054928   -0.015999682    1.0264537e-07  2.5947404e-12 -5.5037374e-12  6.3684287      16.545661      20.737693      2185.1279    
        83   0             -146.75386     -0.036906803   -0.06866585    -0.026054877   -0.015999682    1.5048135e-07 -5.186937e-12  -1.7130534e-12  6.3684287      16.545661      20.737693      2185.1279    
        84   0             -146.75386     -0.036906803   -0.068665784   -0.026054942   -0.015999682    8.926231e-08  -3.0780744e-13  1.2113578e-11  6.3684287      16.545661      20.737693      2185.1279    
        85   0             -146.75386     -0.036906803   -0.068665724   -0.026055003   -0.015999682    3.3000002e-08 -1.3673264e-12  3.2638957e-12  6.3684287      16.545661      20.737693      2185.1279    
        86   0             -146.75386     -0.036906803   -0.068665688   -0.026055038   -0.015999682   -3.9850634e-10  1.8353973e-12  1.3160577e-11  6.3684287      16.545661      20.737693      2185.1279    
        87   0             -146.75386     -0.036906803   -0.068665675   -0.026055052   -0.015999682   -1.2789177e-08  4.015488e-12  -1.4022569e-11  6.3684287      16.545661      20.737693      2185.1279    
        88   0             -146.75386     -0.036906803   -0.068665677   -0.026055049   -0.015999682   -1.06756e-08    9.4122937e-13  1.9875412e-11  6.3684287      16.545661      20.737693      2185.1279    
        89   0             -146.75386     -0.036906803   -0.068665684   -0.026055043   -0.015999682   -4.3446982e-09  2.3925033e-12  1.9552788e-11  6.3684287      16.545661      20.737693      2185.1279    
Loop time of 0.014737 on 1 procs for 36 steps with 96 atoms

106.0% CPU use with 1 MPI tasks x 1 OpenMP threads

Minimization stats:
  Stopping criterion = force tolerance
  Energy initial, next-to-last, final = 
     -146.753862702885  -146.753862724553  -146.753862724553
  Force two-norm initial, final = 0.00049853503 6.7816207e-11
  Force max component initial, final = 6.7757631e-05 1.2904754e-11
  Final line search alpha, max atom move = 1 1.2904754e-11
  Iterations, force evaluations = 36 72

MPI task timing breakdown:
Section |  min time  |  avg time  |  max time  |%varavg| %total
---------------------------------------------------------------
Pair    | 0.013941   | 0.013941   | 0.013941   |   0.0 | 94.60
Neigh   | 0          | 0          | 0          |   0.0 |  0.00
Comm    | 0.000268   | 0.000268   | 0.000268   |   0.0 |  1.82
Output  | 0.000347   | 0.000347   | 0.000347   |   0.0 |  2.35
Modify  | 0          | 0          | 0          |   0.0 |  0.00
Other   |            | 0.000181   |            |       |  1.23

Nlocal:             96 ave          96 max          96 min
Histogram: 1 0 0 0 0 0 0 0 0 0
Nghost:           1310 ave        1310 max        1310 min
Histogram: 1 0 0 0 0 0 0 0 0 0
Neighs:           6144 ave        6144 max        6144 min
Histogram: 1 0 0 0 0 0 0 0 0 0

Total # of neighbors = 6144
Ave neighs/atom = 64
Neighbor list builds = 0
Dangerous builds = 0
OMP_NUM_THREADS environment is not set. Defaulting to 1 thread. (src/comm.cpp:98)
  using 1 OpenMP thread(s) per MPI task
Loaded 1 plugins from F:\Lammps\LAMMPS 64-bit 2Aug2023\plugins

The 'box' command has been removed and will be ignored

Reading restart file ...
  restart file = 2 Aug 2023, LAMMPS = 2 Aug 2023
  restoring atom style atomic from restart
  triclinic box = (-0.014214012 -0.036929088 -0.015669905) to (6.354214 16.508732 20.722023) with tilt (0 0 0)
  1 by 1 by 1 MPI processor grid
  pair style eam/alloy stores no restart info
  96 atoms
  read_restart CPU = 0.000 seconds
Changing box ...
  triclinic box = (-0.014214012 -0.036929088 -0.015669905) to (6.354214 16.508731 20.722023) with tilt (0 0 0)
  triclinic box = (-0.014214012 -0.036929088 -0.015669905) to (6.354214 16.508731 20.722023) with tilt (0 0 0)
Neighbor list info ...
  update: every = 1 steps, delay = 0 steps, check = yes
  max neighbors/atom: 2000, page size: 100000
  master list distance cutoff = 8.5
  ghost atom cutoff = 8.5
  1 neighbor lists, perpetual/occasional/extra = 1 0 0
  (1) pair eam/alloy, perpetual
      attributes: half, newton on
      pair build: half/nsq/newton
      stencil: none
      bin: none
Setting up cg style minimization ...
  Unit style    : metal
  Current step  : 53
Per MPI rank memory allocation (min/avg/max) = 4.465 | 4.465 | 4.465 Mbytes
   Step          Temp          PotEng         Press           Pxx            Pyy            Pzz            Pxy            Pxz            Pyz             Lx             Ly             Lz           Volume    
        53   0             -146.75386      0.037222685    0.035503518    0.059848268    0.016316269   -0.0085435008   1.305186e-05   9.6363156e-06  6.368428       16.54566       20.737693      2185.1275    
        54   0             -146.75386      0.036970846    0.033172588    0.0616681      0.01607185    -0.0066069508  -1.6111924e-06 -1.9656443e-07  6.368428       16.54566       20.737693      2185.1275    
        55   0             -146.75386      0.036923972    0.030276989    0.064477326    0.016017599   -0.0039321471  -7.1208168e-07 -6.780687e-07   6.368428       16.54566       20.737693      2185.1275    
        56   0             -146.75386      0.036912903    0.028228572    0.066504603    0.016005533   -0.0020264398  -4.0857085e-07 -6.8884289e-08  6.368428       16.54566       20.737693      2185.1275    
        57   0             -146.75386      0.036909483    0.026818567    0.067907837    0.016002046   -0.00071145753 -8.4709185e-08 -7.6557035e-08  6.368428       16.54566       20.737693      2185.1275    
        58   0             -146.75386      0.036908361    0.026065294    0.068658838    0.01600095    -8.2600741e-06 -1.9141164e-08 -1.3300656e-08  6.368428       16.54566       20.737693      2185.1275    
        59   0             -146.75386      0.036907966    0.025802309    0.06892104     0.016000548    0.00023721988  2.0381633e-08 -1.0517814e-08  6.368428       16.54566       20.737693      2185.1275    
        60   0             -146.75386      0.036907777    0.025824006    0.068898958    0.016000366    0.00021672352  4.8655364e-08  1.4138451e-08  6.368428       16.54566       20.737693      2185.1275    
        61   0             -146.75386      0.03690765     0.025949106    0.068773599    0.016000244    9.9602333e-05  4.4381877e-08  4.2819655e-09  6.368428       16.54566       20.737693      2185.1275    
        62   0             -146.75386      0.036907556    0.026089828    0.068632679    0.016000159   -3.2093675e-05  2.7931824e-08  1.0407342e-08  6.368428       16.54566       20.737693      2185.1275    
        63   0             -146.75386      0.03690749     0.026155676    0.068566696    0.016000098   -9.3741356e-05  1.1120603e-08  4.2426187e-09  6.368428       16.54566       20.737693      2185.1275    
        64   0             -146.75386      0.036907442    0.02613408     0.068588197    0.01600005    -7.3609176e-05  8.2185621e-10  3.8252925e-09  6.368428       16.54566       20.737693      2185.1275    
        65   0             -146.75386      0.036907409    0.026074825    0.068647385    0.016000018   -1.8255117e-05 -2.535128e-09  -5.2562393e-10  6.368428       16.54566       20.737693      2185.1275    
        66   0             -146.75386      0.036907387    0.026026342    0.068695822    0.015999998    2.7036016e-05 -1.344741e-09   4.1074877e-10  6.368428       16.54566       20.737693      2185.1275    
        67   0             -146.75386      0.036907375    0.026011752    0.068710385    0.015999987    4.0651175e-05  9.8063401e-11 -8.9103853e-10  6.368428       16.54566       20.737693      2185.1275    
        68   0             -146.75386      0.036907369    0.026025789    0.068696337    0.015999981    2.7515391e-05  1.0202865e-09 -1.6374443e-10  6.368428       16.54566       20.737693      2185.1275    
        69   0             -146.75386      0.036907367    0.026050657    0.068671464    0.015999978    4.2607158e-06  1.0566268e-09 -2.6110822e-10  6.368428       16.54566       20.737693      2185.1275    
        70   0             -146.75386      0.036907365    0.026069955    0.068652163    0.015999977   -1.3781973e-05  6.0012161e-10  8.0062594e-11  6.368428       16.54566       20.737693      2185.1275    
        71   0             -146.75386      0.036907364    0.026071685    0.06865043     0.015999976   -1.5399356e-05  2.3959253e-10  2.0365417e-11  6.368428       16.54566       20.737693      2185.1275    
        72   0             -146.75386      0.036907363    0.026063566    0.068658548    0.015999975   -7.8082334e-06  5.0364685e-11  6.4409545e-11  6.368428       16.54566       20.737693      2185.1275    
        73   0             -146.75386      0.036907362    0.026056784    0.068665329    0.015999975   -1.4674925e-06  6.0493078e-12  2.3790173e-11  6.368428       16.54566       20.737693      2185.1275    
        74   0             -146.75386      0.036907362    0.026052557    0.068669555    0.015999975    2.4830385e-06 -6.4334312e-12  1.5193087e-11  6.368428       16.54566       20.737693      2185.1275    
        75   0             -146.75386      0.036907362    0.026051224    0.068670888    0.015999974    3.7287865e-06 -1.3777566e-11 -6.9633896e-12  6.368428       16.54566       20.737693      2185.1275    
        76   0             -146.75386      0.036907362    0.026052791    0.068669322    0.015999974    2.264252e-06  -1.5085112e-12 -1.5277273e-11  6.368428       16.54566       20.737693      2185.1275    
        77   0             -146.75386      0.036907362    0.026054401    0.068667711    0.015999974    7.58943e-07   -1.3838618e-12 -8.5134969e-12  6.368428       16.54566       20.737693      2185.1275    
        78   0             -146.75386      0.036907362    0.026055657    0.068666456    0.015999974   -4.149045e-07  -6.0912816e-12  4.7523845e-12  6.368428       16.54566       20.737693      2185.1275    
        79   0             -146.75386      0.036907362    0.026056066    0.068666046    0.015999974   -7.9776049e-07 -1.4230373e-11  4.8371071e-12  6.368428       16.54566       20.737693      2185.1275    
        80   0             -146.75386      0.036907362    0.026055902    0.06866621     0.015999974   -6.4429566e-07 -9.5979976e-12  9.6318728e-12  6.368428       16.54566       20.737693      2185.1275    
        81   0             -146.75386      0.036907362    0.02605548     0.068666632    0.015999974   -2.5006881e-07  3.8781202e-12  1.033385e-11   6.368428       16.54566       20.737693      2185.1275    
        82   0             -146.75386      0.036907362    0.026055103    0.068667009    0.015999974    1.0267403e-07 -1.0077516e-11 -5.319994e-12   6.368428       16.54566       20.737693      2185.1275    
        83   0             -146.75386      0.036907362    0.026055052    0.06866706     0.015999974    1.504592e-07   1.0170367e-11  5.4171378e-12  6.368428       16.54566       20.737693      2185.1275    
        84   0             -146.75386      0.036907362    0.026055117    0.068666995    0.015999974    8.9233687e-08  7.4484328e-12  1.460934e-11   6.368428       16.54566       20.737693      2185.1275    
        85   0             -146.75386      0.036907362    0.026055177    0.068666935    0.015999974    3.2984915e-08 -2.3772406e-12  6.4720463e-12  6.368428       16.54566       20.737693      2185.1275    
        86   0             -146.75386      0.036907362    0.026055213    0.068666899    0.015999974   -4.0992328e-10  1.0497253e-11 -8.7858791e-12  6.368428       16.54566       20.737693      2185.1275    
        87   0             -146.75386      0.036907362    0.026055226    0.068666886    0.015999974   -1.279249e-08  -6.9282127e-12  1.4725065e-11  6.368428       16.54566       20.737693      2185.1275    
        88   0             -146.75386      0.036907362    0.026055224    0.068666888    0.015999974   -1.0658592e-08 -1.9104416e-12 -7.5631054e-12  6.368428       16.54566       20.737693      2185.1275    
        89   0             -146.75386      0.036907362    0.026055217    0.068666895    0.015999974   -4.339198e-09  -1.5593884e-12 -5.5430193e-12  6.368428       16.54566       20.737693      2185.1275    
Loop time of 0.014648 on 1 procs for 36 steps with 96 atoms

106.7% CPU use with 1 MPI tasks x 1 OpenMP threads

Minimization stats:
  Stopping criterion = force tolerance
  Energy initial, next-to-last, final = 
     -146.753862702885  -146.753862724554  -146.753862724553
  Force two-norm initial, final = 0.00049853679 6.7814732e-11
  Force max component initial, final = 6.7757773e-05 1.2912706e-11
  Final line search alpha, max atom move = 1 1.2912706e-11
  Iterations, force evaluations = 36 72

MPI task timing breakdown:
Section |  min time  |  avg time  |  max time  |%varavg| %total
---------------------------------------------------------------
Pair    | 0.013824   | 0.013824   | 0.013824   |   0.0 | 94.37
Neigh   | 0          | 0          | 0          |   0.0 |  0.00
Comm    | 0.000286   | 0.000286   | 0.000286   |   0.0 |  1.95
Output  | 0.000337   | 0.000337   | 0.000337   |   0.0 |  2.30
Modify  | 0          | 0          | 0          |   0.0 |  0.00
Other   |            | 0.000201   |            |       |  1.37

Nlocal:             96 ave          96 max          96 min
Histogram: 1 0 0 0 0 0 0 0 0 0
Nghost:           1310 ave        1310 max        1310 min
Histogram: 1 0 0 0 0 0 0 0 0 0
Neighs:           6144 ave        6144 max        6144 min
Histogram: 1 0 0 0 0 0 0 0 0 0

Total # of neighbors = 6144
Ave neighs/atom = 64
Neighbor list builds = 0
Dangerous builds = 0
OMP_NUM_THREADS environment is not set. Defaulting to 1 thread. (src/comm.cpp:98)
  using 1 OpenMP thread(s) per MPI task
Loaded 1 plugins from F:\Lammps\LAMMPS 64-bit 2Aug2023\plugins

The 'box' command has been removed and will be ignored

Reading restart file ...
  restart file = 2 Aug 2023, LAMMPS = 2 Aug 2023
  restoring atom style atomic from restart
  triclinic box = (-0.014214012 -0.036929088 -0.015669905) to (6.354214 16.508732 20.722023) with tilt (0 0 0)
  1 by 1 by 1 MPI processor grid
  pair style eam/alloy stores no restart info
  96 atoms
  read_restart CPU = 0.000 seconds
Changing box ...
  triclinic box = (-0.014214012 -0.036929088 -0.015669905) to (6.354214 16.508734 20.722023) with tilt (0 0 0)
  triclinic box = (-0.014214012 -0.036929088 -0.015669905) to (6.354214 16.508734 20.722023) with tilt (0 0 0)
Neighbor list info ...
  update: every = 1 steps, delay = 0 steps, check = yes
  max neighbors/atom: 2000, page size: 100000
  master list distance cutoff = 8.5
  ghost atom cutoff = 8.5
  1 neighbor lists, perpetual/occasional/extra = 1 0 0
  (1) pair eam/alloy, perpetual
      attributes: half, newton on
      pair build: half/nsq/newton
      stencil: none
      bin: none
Setting up cg style minimization ...
  Unit style    : metal
  Current step  : 53
Per MPI rank memory allocation (min/avg/max) = 4.465 | 4.465 | 4.465 Mbytes
   Step          Temp          PotEng         Press           Pxx            Pyy            Pzz            Pxy            Pxz            Pyz             Lx             Ly             Lz           Volume    
        53   0             -146.75386     -0.036591877   -0.015085171   -0.079006914   -0.015683546   -0.0085437201   1.3051855e-05  1.0047001e-05  6.368428       16.545663      20.737693      2185.1279    
        54   0             -146.75386     -0.036843658   -0.017759824   -0.076843194   -0.015927955   -0.0066070727  -1.6113987e-06 -3.3376243e-07  6.368428       16.545663      20.737693      2185.1279    
        55   0             -146.75386     -0.036890422   -0.021132419   -0.073556679   -0.015982169   -0.0039317287  -7.1193307e-07 -5.7714561e-07  6.368428       16.545663      20.737693      2185.1279    
        56   0             -146.75386     -0.03690139    -0.023521242   -0.07118874    -0.015994188   -0.0020255614  -4.0840635e-07 -1.2371665e-07  6.368428       16.545663      20.737693      2185.1279    
        57   0             -146.75386     -0.036904729   -0.025165593   -0.069550958   -0.015997635   -0.00071071047 -8.4602388e-08 -4.4957323e-08  6.368428       16.545663      20.737693      2185.1279    
        58   0             -146.75386     -0.036905805   -0.026043346   -0.068675361   -0.015998706   -8.2481054e-06 -1.9131315e-08 -4.1239165e-08  6.368428       16.545663      20.737693      2185.1279    
        59   0             -146.75386     -0.036906183   -0.026349545   -0.068369904   -0.0159991      0.00023676713  2.0360477e-08  1.0547227e-08  6.368428       16.545663      20.737693      2185.1279    
        60   0             -146.75386     -0.036906374   -0.026324273   -0.068395565   -0.015999283    0.00021630974  4.8632987e-08 -4.3689073e-09  6.368428       16.545663      20.737693      2185.1279    
        61   0             -146.75386     -0.036906509   -0.026178567   -0.06854155    -0.015999409    9.9391191e-05  4.4352914e-08  1.4851136e-08  6.368428       16.545663      20.737693      2185.1279    
        62   0             -146.75386     -0.036906612   -0.026014742   -0.068705594   -0.015999498   -3.2009364e-05  2.7938309e-08  5.5825363e-09  6.368428       16.545663      20.737693      2185.1279    
        63   0             -146.75386     -0.036906681   -0.025938113   -0.068782368   -0.015999562   -9.3483214e-05  1.1139486e-08  7.0129214e-09  6.368428       16.545663      20.737693      2185.1279    
        64   0             -146.75386     -0.036906728   -0.025963219   -0.068757355   -0.015999609   -7.3405685e-05  8.2114758e-10  1.3615589e-09  6.368428       16.545663      20.737693      2185.1279    
        65   0             -146.75386     -0.036906757   -0.026032151   -0.068688481   -0.015999639   -1.8200604e-05 -2.526107e-09   1.2013344e-09  6.368428       16.545663      20.737693      2185.1279    
        66   0             -146.75386     -0.036906776   -0.026088533   -0.068632137   -0.015999658    2.6945733e-05 -1.3269299e-09 -1.0817467e-09  6.368428       16.545663      20.737693      2185.1279    
        67   0             -146.75386     -0.036906788   -0.026105502   -0.068615193   -0.015999668    4.0515055e-05  9.4763991e-11  9.2991693e-11  6.368428       16.545663      20.737693      2185.1279    
        68   0             -146.75386     -0.036906794   -0.026089184   -0.068631524   -0.015999674    2.7422192e-05  1.0203359e-09 -6.2024314e-10  6.368428       16.545663      20.737693      2185.1279    
        69   0             -146.75386     -0.036906798   -0.02606027    -0.068660447   -0.015999678    4.2458929e-06  1.0683818e-09 -6.6750025e-11  6.368428       16.545663      20.737693      2185.1279    
        70   0             -146.75386     -0.036906801   -0.026037843   -0.06868288    -0.01599968    -1.3724259e-05  6.0824277e-10 -2.94666e-11    6.368428       16.545663      20.737693      2185.1279    
        71   0             -146.75386     -0.036906802   -0.026035828   -0.068684898   -0.015999681   -1.5335732e-05  2.4221902e-10  8.7080033e-11  6.368428       16.545663      20.737693      2185.1279    
        72   0             -146.75386     -0.036906803   -0.026045261   -0.068675465   -0.015999682   -7.7749173e-06  5.4740119e-11  1.183273e-11   6.368428       16.545663      20.737693      2185.1279    
        73   0             -146.75386     -0.036906803   -0.02605314    -0.068667586   -0.015999682   -1.4609366e-06 -2.0363625e-12  4.0107689e-11  6.368428       16.545663      20.737693      2185.1279    
        74   0             -146.75386     -0.036906803   -0.026058049   -0.068662677   -0.015999682    2.4706744e-06 -8.7445296e-12  4.9168801e-12  6.368428       16.545663      20.737693      2185.1279    
        75   0             -146.75386     -0.036906803   -0.026059598   -0.068661128   -0.015999682    3.7104282e-06 -1.7552656e-12  6.7570769e-12  6.368428       16.545663      20.737693      2185.1279    
        76   0             -146.75386     -0.036906803   -0.026057779   -0.068662947   -0.015999682    2.2527983e-06 -3.7051367e-12 -9.5743457e-12  6.368428       16.545663      20.737693      2185.1279    
        77   0             -146.75386     -0.036906803   -0.02605591    -0.068664817   -0.015999682    7.5476006e-07 -3.7954438e-12 -2.5107631e-12  6.368428       16.545663      20.737693      2185.1279    
        78   0             -146.75386     -0.036906803   -0.026054453   -0.068666274   -0.015999682   -4.1213778e-07  8.495231e-12  -3.4024766e-12  6.368428       16.545663      20.737693      2185.1279    
        79   0             -146.75386     -0.036906803   -0.026053978   -0.068666749   -0.015999682   -7.9249254e-07 -6.7285181e-13 -1.1351522e-11  6.368428       16.545663      20.737693      2185.1279    
        80   0             -146.75386     -0.036906803   -0.026054168   -0.068666558   -0.015999682   -6.4006024e-07 -3.122592e-12  -9.8378939e-13  6.368428       16.545663      20.737693      2185.1279    
        81   0             -146.75386     -0.036906803   -0.026054657   -0.068666069   -0.015999682   -2.4833005e-07 -5.9806223e-12  1.0785493e-11  6.368428       16.545663      20.737693      2185.1279    
        82   0             -146.75386     -0.036906803   -0.026055094   -0.068665632   -0.015999682    1.0184656e-07 -8.4074678e-12  5.3550307e-12  6.368428       16.545663      20.737693      2185.1279    
        83   0             -146.75386     -0.036906803   -0.026055153   -0.068665573   -0.015999682    1.4925862e-07 -6.0289557e-13  3.4000619e-12  6.368428       16.545663      20.737693      2185.1279    
        84   0             -146.75386     -0.036906803   -0.026055078   -0.068665649   -0.015999682    8.8514594e-08 -7.1736941e-13 -1.331931e-11   6.368428       16.545663      20.737693      2185.1279    
        85   0             -146.75386     -0.036906803   -0.026055008   -0.068665719   -0.015999682    3.2694604e-08 -1.0829225e-11 -1.6217813e-11  6.368428       16.545663      20.737693      2185.1279    
        86   0             -146.75386     -0.036906803   -0.026054967   -0.06866576    -0.015999682   -3.919101e-10   9.6997502e-12 -1.0963484e-11  6.368428       16.545663      20.737693      2185.1279    
        87   0             -146.75386     -0.036906803   -0.026054951   -0.068665775   -0.015999682   -1.2657106e-08  3.4914522e-12  6.1957178e-12  6.368428       16.545663      20.737693      2185.1279    
        88   0             -146.75386     -0.036906803   -0.026054954   -0.068665773   -0.015999682   -1.0558693e-08  1.8443008e-12 -1.1464486e-11  6.368428       16.545663      20.737693      2185.1279    
        89   0             -146.75386     -0.036906803   -0.026054962   -0.068665765   -0.015999682   -4.3043933e-09  8.6491348e-14 -1.0628916e-11  6.368428       16.545663      20.737693      2185.1279    
Loop time of 0.014143 on 1 procs for 36 steps with 96 atoms

0.0% CPU use with 1 MPI tasks x 1 OpenMP threads

Minimization stats:
  Stopping criterion = force tolerance
  Energy initial, next-to-last, final = 
     -146.753862702882  -146.753862724554  -146.753862724552
  Force two-norm initial, final = 0.00049854317 6.7868868e-11
  Force max component initial, final = 6.7757651e-05 1.2921286e-11
  Final line search alpha, max atom move = 1 1.2921286e-11
  Iterations, force evaluations = 36 72

MPI task timing breakdown:
Section |  min time  |  avg time  |  max time  |%varavg| %total
---------------------------------------------------------------
Pair    | 0.013356   | 0.013356   | 0.013356   |   0.0 | 94.44
Neigh   | 0          | 0          | 0          |   0.0 |  0.00
Comm    | 0.000256   | 0.000256   | 0.000256   |   0.0 |  1.81
Output  | 0.000351   | 0.000351   | 0.000351   |   0.0 |  2.48
Modify  | 0          | 0          | 0          |   0.0 |  0.00
Other   |            | 0.00018    |            |       |  1.27

Nlocal:             96 ave          96 max          96 min
Histogram: 1 0 0 0 0 0 0 0 0 0
Nghost:           1310 ave        1310 max        1310 min
Histogram: 1 0 0 0 0 0 0 0 0 0
Neighs:           6144 ave        6144 max        6144 min
Histogram: 1 0 0 0 0 0 0 0 0 0

Total # of neighbors = 6144
Ave neighs/atom = 64
Neighbor list builds = 0
Dangerous builds = 0
OMP_NUM_THREADS environment is not set. Defaulting to 1 thread. (src/comm.cpp:98)
  using 1 OpenMP thread(s) per MPI task
Loaded 1 plugins from F:\Lammps\LAMMPS 64-bit 2Aug2023\plugins

The 'box' command has been removed and will be ignored

Reading restart file ...
  restart file = 2 Aug 2023, LAMMPS = 2 Aug 2023
  restoring atom style atomic from restart
  triclinic box = (-0.014214012 -0.036929088 -0.015669905) to (6.354214 16.508732 20.722023) with tilt (0 0 0)
  1 by 1 by 1 MPI processor grid
  pair style eam/alloy stores no restart info
  96 atoms
  read_restart CPU = 0.000 seconds
Changing box ...
  triclinic box = (-0.014214012 -0.036929088 -0.015669905) to (6.354214 16.508732 20.722021) with tilt (0 0 0)
Neighbor list info ...
  update: every = 1 steps, delay = 0 steps, check = yes
  max neighbors/atom: 2000, page size: 100000
  master list distance cutoff = 8.5
  ghost atom cutoff = 8.5
  1 neighbor lists, perpetual/occasional/extra = 1 0 0
  (1) pair eam/alloy, perpetual
      attributes: half, newton on
      pair build: half/nsq/newton
      stencil: none
      bin: none
Setting up cg style minimization ...
  Unit style    : metal
  Current step  : 53
Per MPI rank memory allocation (min/avg/max) = 4.465 | 4.465 | 4.465 Mbytes
   Step          Temp          PotEng         Press           Pxx            Pyy            Pzz            Pxy            Pxz            Pyz             Lx             Ly             Lz           Volume    
        53   0             -146.75386      0.034261381    0.026208847    0.0064201941   0.070155104   -0.0085435432   1.3051843e-05  9.8416485e-06  6.368428       16.545661      20.737691      2185.1275    
        54   0             -146.75386      0.034009568    0.02370607     0.0084119455   0.069910688   -0.0066069488  -1.6112969e-06 -2.6514443e-07  6.368428       16.545661      20.737691      2185.1275    
        55   0             -146.75386      0.033962743    0.02057203     0.011459745    0.069856453   -0.0039318957  -7.1200121e-07 -6.2761499e-07  6.368428       16.545661      20.737691      2185.1275    
        56   0             -146.75386      0.03395172     0.018353465    0.013657287    0.069844408   -0.0020259821  -4.084893e-07  -9.6276161e-08  6.368428       16.545661      20.737691      2185.1275    
        57   0             -146.75386      0.033948338    0.016826302    0.015177772    0.06984094    -0.00071107774 -8.4658561e-08 -6.077218e-08   6.368428       16.545661      20.737691      2185.1275    
        58   0             -146.75386      0.033947237    0.016010759    0.015991096    0.069839855   -8.2468432e-06 -1.9136501e-08 -2.7228655e-08  6.368428       16.545661      20.737691      2185.1275    
        59   0             -146.75386      0.033946849    0.015726148    0.016274944    0.069839457    0.00023700134  2.0374034e-08  1.4459937e-11  6.368428       16.545661      20.737691      2185.1275    
        60   0             -146.75386      0.03394666     0.01574964     0.016251065    0.069839275    0.00021652084  4.8644705e-08  4.8794562e-09  6.368428       16.545661      20.737691      2185.1275    
        61   0             -146.75386      0.033946529    0.015885057    0.01611538     0.06983915     9.9496589e-05  4.4364949e-08  9.5654914e-09  6.368428       16.545661      20.737691      2185.1275    
        62   0             -146.75386      0.033946431    0.016037347    0.015962882    0.069839064   -3.2055597e-05  2.7925152e-08  8.0248638e-09  6.368428       16.545661      20.737691      2185.1275    
        63   0             -146.75386      0.033946364    0.016108593    0.015891496    0.069839002   -9.3616928e-05  1.1135295e-08  5.6005073e-09  6.368428       16.545661      20.737691      2185.1275    
        64   0             -146.75386      0.033946316    0.016085236    0.015914759    0.069838954   -7.3509153e-05  8.2127239e-10  2.5980455e-09  6.368428       16.545661      20.737691      2185.1275    
        65   0             -146.75386      0.033946285    0.016021133    0.0159788      0.069838923   -1.8226584e-05 -2.5384185e-09  3.3561381e-10  6.368428       16.545661      20.737691      2185.1275    
        66   0             -146.75386      0.033946264    0.015968693    0.016031197    0.069838903    2.6993281e-05 -1.33801e-09   -3.2355835e-10  6.368428       16.545661      20.737691      2185.1275    
        67   0             -146.75386      0.033946252    0.015952912    0.016046952    0.069838892    4.0584996e-05  8.334079e-11  -3.8820666e-10  6.368428       16.545661      20.737691      2185.1275    
        68   0             -146.75386      0.033946246    0.015968093    0.016031759    0.069838887    2.7469163e-05  1.024985e-09  -3.7849259e-10  6.368428       16.545661      20.737691      2185.1275    
        69   0             -146.75386      0.033946243    0.015994989    0.016004856    0.069838884    4.2524364e-06  1.0676456e-09 -1.5914846e-10  6.368428       16.545661      20.737691      2185.1275    
        70   0             -146.75386      0.033946241    0.016015855    0.015983986    0.069838882   -1.3754425e-05  6.131004e-10   3.8241098e-11  6.368428       16.545661      20.737691      2185.1275    
        71   0             -146.75386      0.03394624     0.016017727    0.015982111    0.06983888    -1.5368235e-05  2.3180831e-10  5.7221918e-11  6.368428       16.545661      20.737691      2185.1275    
        72   0             -146.75386      0.033946239    0.016008949    0.015990888    0.06983888    -7.7916527e-06  5.904562e-11   4.6435976e-11  6.368428       16.545661      20.737691      2185.1275    
        73   0             -146.75386      0.033946239    0.016001617    0.01599822     0.06983888    -1.4639226e-06  6.6636509e-12  1.162658e-11   6.368428       16.545661      20.737691      2185.1275    
        74   0             -146.75386      0.033946239    0.015997049    0.016002788    0.06983888     2.4772038e-06  1.0048262e-13  1.6429096e-11  6.368428       16.545661      20.737691      2185.1275    
        75   0             -146.75386      0.033946239    0.015995607    0.016004229    0.069838879    3.7197559e-06 -1.616371e-11  -1.3640078e-12  6.368428       16.545661      20.737691      2185.1275    
        76   0             -146.75386      0.033946239    0.0159973      0.016002536    0.069838879    2.2585395e-06 -4.4657527e-12  5.6202395e-12  6.368428       16.545661      20.737691      2185.1275    
        77   0             -146.75386      0.033946239    0.015999041    0.016000795    0.069838879    7.5680575e-07 -3.6504444e-12 -1.6399126e-11  6.368428       16.545661      20.737691      2185.1275    
        78   0             -146.75386      0.033946239    0.016000397    0.015999439    0.069838879   -4.1358136e-07 -7.5400119e-12 -8.2797794e-12  6.368428       16.545661      20.737691      2185.1275    
        79   0             -146.75386      0.033946239    0.01600084     0.015998997    0.069838879   -7.9516423e-07  3.004303e-12  -1.7545127e-11  6.368428       16.545661      20.737691      2185.1275    
        80   0             -146.75386      0.033946239    0.016000662    0.015999174    0.069838879   -6.421747e-07   8.9289615e-13 -1.0910095e-12  6.368428       16.545661      20.737691      2185.1275    
        81   0             -146.75386      0.033946239    0.016000207    0.015999629    0.069838879   -2.4917072e-07  1.0597736e-11 -1.4808794e-11  6.368428       16.545661      20.737691      2185.1275    
        82   0             -146.75386      0.033946239    0.0159998      0.016000037    0.069838879    1.0229392e-07  9.6768574e-12 -7.0802384e-12  6.368428       16.545661      20.737691      2185.1275    
        83   0             -146.75386      0.033946239    0.015999744    0.016000092    0.069838879    1.4988353e-07  1.0868658e-11 -7.7334251e-12  6.368428       16.545661      20.737691      2185.1275    
        84   0             -146.75386      0.033946239    0.015999815    0.016000021    0.069838879    8.8882701e-08 -8.4965047e-13  1.2057218e-11  6.368428       16.545661      20.737691      2185.1275    
        85   0             -146.75386      0.033946239    0.01599988     0.015999956    0.069838879    3.2849665e-08 -3.7814533e-12  1.7240837e-11  6.368428       16.545661      20.737691      2185.1275    
        86   0             -146.75386      0.033946239    0.015999919    0.015999918    0.06983888    -3.9864633e-10  1.3698706e-12 -9.1415629e-12  6.368428       16.545661      20.737691      2185.1275    
        87   0             -146.75386      0.033946239    0.015999933    0.015999903    0.069838879   -1.2725957e-08 -3.8679447e-12  8.4699829e-12  6.368428       16.545661      20.737691      2185.1275    
        88   0             -146.75386      0.033946239    0.01599993     0.015999906    0.069838879   -1.0624879e-08  1.3215372e-12 -2.7722052e-12  6.368428       16.545661      20.737691      2185.1275    
        89   0             -146.75386      0.033946239    0.015999923    0.015999913    0.069838879   -4.3171758e-09 -5.4057103e-13 -1.6897306e-11  6.368428       16.545661      20.737691      2185.1275    
Loop time of 0.020038 on 1 procs for 36 steps with 96 atoms

78.0% CPU use with 1 MPI tasks x 1 OpenMP threads

Minimization stats:
  Stopping criterion = force tolerance
  Energy initial, next-to-last, final = 
     -146.753862702884  -146.753862724553  -146.753862724554
  Force two-norm initial, final = 0.00049854064 6.7843579e-11
  Force max component initial, final = 6.7757917e-05 1.2918524e-11
  Final line search alpha, max atom move = 1 1.2918524e-11
  Iterations, force evaluations = 36 72

MPI task timing breakdown:
Section |  min time  |  avg time  |  max time  |%varavg| %total
---------------------------------------------------------------
Pair    | 0.018702   | 0.018702   | 0.018702   |   0.0 | 93.33
Neigh   | 0          | 0          | 0          |   0.0 |  0.00
Comm    | 0.00047    | 0.00047    | 0.00047    |   0.0 |  2.35
Output  | 0.000607   | 0.000607   | 0.000607   |   0.0 |  3.03
Modify  | 0          | 0          | 0          |   0.0 |  0.00
Other   |            | 0.000259   |            |       |  1.29

Nlocal:             96 ave          96 max          96 min
Histogram: 1 0 0 0 0 0 0 0 0 0
Nghost:           1310 ave        1310 max        1310 min
Histogram: 1 0 0 0 0 0 0 0 0 0
Neighs:           6144 ave        6144 max        6144 min
Histogram: 1 0 0 0 0 0 0 0 0 0

Total # of neighbors = 6144
Ave neighs/atom = 64
Neighbor list builds = 0
Dangerous builds = 0
OMP_NUM_THREADS environment is not set. Defaulting to 1 thread. (src/comm.cpp:98)
  using 1 OpenMP thread(s) per MPI task
Loaded 1 plugins from F:\Lammps\LAMMPS 64-bit 2Aug2023\plugins

The 'box' command has been removed and will be ignored

Reading restart file ...
  restart file = 2 Aug 2023, LAMMPS = 2 Aug 2023
  restoring atom style atomic from restart
  triclinic box = (-0.014214012 -0.036929088 -0.015669905) to (6.354214 16.508732 20.722023) with tilt (0 0 0)
  1 by 1 by 1 MPI processor grid
  pair style eam/alloy stores no restart info
  96 atoms
  read_restart CPU = 0.000 seconds
Changing box ...
  triclinic box = (-0.014214012 -0.036929088 -0.015669905) to (6.354214 16.508732 20.722025) with tilt (0 0 0)
Neighbor list info ...
  update: every = 1 steps, delay = 0 steps, check = yes
  max neighbors/atom: 2000, page size: 100000
  master list distance cutoff = 8.5
  ghost atom cutoff = 8.5
  1 neighbor lists, perpetual/occasional/extra = 1 0 0
  (1) pair eam/alloy, perpetual
      attributes: half, newton on
      pair build: half/nsq/newton
      stencil: none
      bin: none
Setting up cg style minimization ...
  Unit style    : metal
  Current step  : 53
Per MPI rank memory allocation (min/avg/max) = 4.465 | 4.465 | 4.465 Mbytes
   Step          Temp          PotEng         Press           Pxx            Pyy            Pzz            Pxy            Pxz            Pyz             Lx             Ly             Lz           Volume    
        53   0             -146.75386     -0.033630732   -0.0057906542  -0.025579618   -0.069521924   -0.0085436777   1.3051859e-05  9.841658e-06   6.368428       16.545661      20.737695      2185.1279    
        54   0             -146.75386     -0.033882545   -0.0082934383  -0.023587859   -0.069766339   -0.0066070765  -1.6112872e-06 -2.6514133e-07  6.368428       16.545661      20.737695      2185.1279    
        55   0             -146.75386     -0.033929371   -0.011427505   -0.020540033   -0.069820574   -0.0039320003  -7.1201517e-07 -6.2759695e-07  6.368428       16.545661      20.737695      2185.1279    
        56   0             -146.75386     -0.033940393   -0.013646106   -0.018342455   -0.069832619   -0.0020260552  -4.0849475e-07 -9.6283899e-08  6.368428       16.545661      20.737695      2185.1279    
        57   0             -146.75386     -0.033943776   -0.015173306   -0.016821933   -0.069836088   -0.00071111956 -8.4664398e-08 -6.0781703e-08  6.368428       16.545661      20.737695      2185.1279    
        58   0             -146.75386     -0.033944877   -0.01598888    -0.016008578   -0.069837173   -8.2619235e-06 -1.9140211e-08 -2.7272313e-08  6.368428       16.545661      20.737695      2185.1279    
        59   0             -146.75386     -0.033945264   -0.01627351    -0.015724711   -0.069837571    0.00023700288  2.0367789e-08  2.5768688e-11  6.368428       16.545661      20.737695      2185.1279    
        60   0             -146.75386     -0.033945454   -0.016250025   -0.015748583   -0.069837753    0.00021652821  4.8642334e-08  4.8500756e-09  6.368428       16.545661      20.737695      2185.1279    
        61   0             -146.75386     -0.033945584   -0.016114609   -0.015884267   -0.069837877    9.9505026e-05  4.4376039e-08  9.5829726e-09  6.368428       16.545661      20.737695      2185.1279    
        62   0             -146.75386     -0.033945683   -0.015962315   -0.016036769   -0.069837964   -3.205055e-05   2.7937565e-08  7.9926928e-09  6.368428       16.545661      20.737695      2185.1279    
        63   0             -146.75386     -0.03394575    -0.015891063   -0.016108161   -0.069838026   -9.3617367e-05  1.1136856e-08  5.6395935e-09  6.368428       16.545661      20.737695      2185.1279    
        64   0             -146.75386     -0.033945797   -0.015914415   -0.016084903   -0.069838074   -7.3513414e-05  8.253246e-10   2.592691e-09   6.368428       16.545661      20.737695      2185.1279    
        65   0             -146.75386     -0.033945828   -0.015978518   -0.016020862   -0.069838105   -1.8231246e-05 -2.5259938e-09  3.6609355e-10  6.368428       16.545661      20.737695      2185.1279    
        66   0             -146.75386     -0.033945849   -0.016030962   -0.015968461   -0.069838124    2.6991822e-05 -1.3359619e-09 -3.364096e-10   6.368428       16.545661      20.737695      2185.1279    
        67   0             -146.75386     -0.033945861   -0.016046746   -0.015952703   -0.069838136    4.0586339e-05  8.9668633e-11 -4.1650552e-10  6.368428       16.545661      20.737695      2185.1279    
        68   0             -146.75386     -0.033945867   -0.016031567   -0.015967894   -0.069838141    2.7471951e-05  1.0228111e-09 -3.7151865e-10  6.368428       16.545661      20.737695      2185.1279    
        69   0             -146.75386     -0.033945871   -0.01600467    -0.015994798   -0.069838144    4.2547944e-06  1.0677509e-09 -1.6177113e-10  6.368428       16.545661      20.737695      2185.1279    
        70   0             -146.75386     -0.033945873   -0.015983802   -0.01601567    -0.069838146   -1.3753906e-05  6.0103219e-10  2.4360044e-11  6.368428       16.545661      20.737695      2185.1279    
        71   0             -146.75386     -0.033945874   -0.015981928   -0.016017547   -0.069838147   -1.5369199e-05  2.393788e-10   4.0960828e-11  6.368428       16.545661      20.737695      2185.1279    
        72   0             -146.75386     -0.033945875   -0.015990706   -0.01600877    -0.069838148   -7.7927505e-06  5.7810562e-11  4.7577058e-11  6.368428       16.545661      20.737695      2185.1279    
        73   0             -146.75386     -0.033945875   -0.015998039   -0.016001438   -0.069838148   -1.4647528e-06  8.0347918e-12  1.9353512e-11  6.368428       16.545661      20.737695      2185.1279    
        74   0             -146.75386     -0.033945875   -0.016002608   -0.015996869   -0.069838148    2.4769493e-06 -4.815533e-12   2.1286868e-12  6.368428       16.545661      20.737695      2185.1279    
        75   0             -146.75386     -0.033945875   -0.01600405    -0.015995427   -0.069838148    3.720123e-06  -1.3603308e-11  1.3342741e-11  6.368428       16.545661      20.737695      2185.1279    
        76   0             -146.75386     -0.033945875   -0.016002357   -0.01599712    -0.069838148    2.2589234e-06 -4.4352254e-12 -1.1147795e-11  6.368428       16.545661      20.737695      2185.1279    
        77   0             -146.75386     -0.033945875   -0.016000616   -0.015998861   -0.069838148    7.5705009e-07  3.7941719e-12 -9.0743375e-12  6.368428       16.545661      20.737695      2185.1279    
        78   0             -146.75386     -0.033945875   -0.015999259   -0.016000218   -0.069838148   -4.1354715e-07 -1.5511206e-11 -7.0028379e-12  6.368428       16.545661      20.737695      2185.1279    
        79   0             -146.75386     -0.033945875   -0.015998817   -0.01600066    -0.069838148   -7.9526982e-07 -6.6267635e-13 -1.4925372e-11  6.368428       16.545661      20.737695      2185.1279    
        80   0             -146.75386     -0.033945875   -0.015998994   -0.016000483   -0.069838148   -6.4232093e-07 -2.5311438e-13 -1.072769e-11   6.368428       16.545661      20.737695      2185.1279    
        81   0             -146.75386     -0.033945875   -0.015999449   -0.016000027   -0.069838148   -2.4929006e-07 -3.922637e-12  -7.5427828e-12  6.368428       16.545661      20.737695      2185.1279    
        82   0             -146.75386     -0.033945875   -0.015999857   -0.01599962    -0.069838148    1.0225195e-07 -2.6901353e-12 -1.016324e-11   6.368428       16.545661      20.737695      2185.1279    
        83   0             -146.75386     -0.033945875   -0.015999912   -0.015999565   -0.069838148    1.4987933e-07 -5.4693058e-13  2.1431053e-12  6.368428       16.545661      20.737695      2185.1279    
        84   0             -146.75386     -0.033945875   -0.015999841   -0.015999635   -0.069838148    8.8901073e-08 -2.0770643e-12 -1.0706365e-11  6.368428       16.545661      20.737695      2185.1279    
        85   0             -146.75386     -0.033945875   -0.015999777   -0.0159997     -0.069838148    3.2850197e-08 -1.7539937e-12  3.355127e-12   6.368428       16.545661      20.737695      2185.1279    
        86   0             -146.75386     -0.033945875   -0.015999738   -0.015999739   -0.069838148   -3.9118765e-10 -6.2222893e-12 -1.9452057e-11  6.368428       16.545661      20.737695      2185.1279    
        87   0             -146.75386     -0.033945875   -0.015999724   -0.015999753   -0.069838148   -1.2740707e-08 -4.5878572e-12 -7.8628227e-13  6.368428       16.545661      20.737695      2185.1279    
        88   0             -146.75386     -0.033945875   -0.015999726   -0.015999751   -0.069838148   -1.0613879e-08 -1.0209795e-11 -9.5263701e-12  6.368428       16.545661      20.737695      2185.1279    
        89   0             -146.75386     -0.033945875   -0.015999733   -0.015999743   -0.069838148   -4.3285358e-09  7.9025109e-12 -4.3448388e-12  6.368428       16.545661      20.737695      2185.1279    
Loop time of 0.014784 on 1 procs for 36 steps with 96 atoms

105.7% CPU use with 1 MPI tasks x 1 OpenMP threads

Minimization stats:
  Stopping criterion = force tolerance
  Energy initial, next-to-last, final = 
     -146.753862702884  -146.753862724553  -146.753862724554
  Force two-norm initial, final = 0.000498539 6.7848392e-11
  Force max component initial, final = 6.7757508e-05 1.2913025e-11
  Final line search alpha, max atom move = 1 1.2913025e-11
  Iterations, force evaluations = 36 72

MPI task timing breakdown:
Section |  min time  |  avg time  |  max time  |%varavg| %total
---------------------------------------------------------------
Pair    | 0.013965   | 0.013965   | 0.013965   |   0.0 | 94.46
Neigh   | 0          | 0          | 0          |   0.0 |  0.00
Comm    | 0.000284   | 0.000284   | 0.000284   |   0.0 |  1.92
Output  | 0.000364   | 0.000364   | 0.000364   |   0.0 |  2.46
Modify  | 0          | 0          | 0          |   0.0 |  0.00
Other   |            | 0.000171   |            |       |  1.16

Nlocal:             96 ave          96 max          96 min
Histogram: 1 0 0 0 0 0 0 0 0 0
Nghost:           1310 ave        1310 max        1310 min
Histogram: 1 0 0 0 0 0 0 0 0 0
Neighs:           6144 ave        6144 max        6144 min
Histogram: 1 0 0 0 0 0 0 0 0 0

Total # of neighbors = 6144
Ave neighs/atom = 64
Neighbor list builds = 0
Dangerous builds = 0
OMP_NUM_THREADS environment is not set. Defaulting to 1 thread. (src/comm.cpp:98)
  using 1 OpenMP thread(s) per MPI task
Loaded 1 plugins from F:\Lammps\LAMMPS 64-bit 2Aug2023\plugins

The 'box' command has been removed and will be ignored

Reading restart file ...
  restart file = 2 Aug 2023, LAMMPS = 2 Aug 2023
  restoring atom style atomic from restart
  triclinic box = (-0.014214012 -0.036929088 -0.015669905) to (6.354214 16.508732 20.722023) with tilt (0 0 0)
  1 by 1 by 1 MPI processor grid
  pair style eam/alloy stores no restart info
  96 atoms
  read_restart CPU = 0.001 seconds
Changing box ...
  triclinic box = (-0.014214012 -0.036929088 -0.015669905) to (6.354214 16.508732 20.722023) with tilt (0 0 -2.0737693e-06)
Neighbor list info ...
  update: every = 1 steps, delay = 0 steps, check = yes
  max neighbors/atom: 2000, page size: 100000
  master list distance cutoff = 8.5
  ghost atom cutoff = 8.5
  1 neighbor lists, perpetual/occasional/extra = 1 0 0
  (1) pair eam/alloy, perpetual
      attributes: half, newton on
      pair build: half/nsq/newton
      stencil: none
      bin: none
Setting up cg style minimization ...
  Unit style    : metal
  Current step  : 53
Per MPI rank memory allocation (min/avg/max) = 4.465 | 4.465 | 4.465 Mbytes
   Step          Temp          PotEng         Press           Pxx            Pyy            Pzz            Pxy            Pxz            Pyz             Lx             Ly             Lz           Volume    
        53   0             -146.75386      0.00031523017  0.010209256   -0.0095798749   0.00031630907 -0.0085436105   1.3120057e-05  0.012769456    6.368428       16.545661      20.737693      2185.1277    
        54   0             -146.75386      6.3416743e-05  0.0077062577  -0.0075879012   7.1893741e-05 -0.0066070126  -1.5584924e-06  0.012759331    6.368428       16.545661      20.737693      2185.1277    
        55   0             -146.75386      1.6591628e-05  0.0045722626  -0.0045401463   1.7658665e-05 -0.0039319482  -6.8056241e-07  0.012758944    6.368428       16.545661      20.737693      2185.1277    
[...]
        59   0             -146.75386      7.0760155e-07 -0.00027390718  0.0002754028   6.271794e-07   0.021521688    3.0923561e-08  3.0635658e-11  6.368428       16.545661      20.737693      2185.1277    
        60   0             -146.75386      5.187581e-07  -0.0002504039   0.00025151458  4.4559941e-07  0.021503023    3.9400159e-08  4.8807324e-09  6.368428       16.545661      20.737693      2185.1277    
        61   0             -146.75386      3.9108645e-07 -0.00011488635  0.00011573661  3.229919e-07   0.021396349    4.9672322e-08  9.5543002e-09  6.368428       16.545661      20.737693      2185.1277    
        62   0             -146.75386      2.9623127e-07  3.7555811e-05 -3.6905505e-05  2.3838761e-07  0.021276401    2.5512259e-08  7.989904e-09   6.368428       16.545661      20.737693      2185.1277    
        63   0             -146.75386      2.3076965e-07  0.00010889511 -0.00010837984  1.7703961e-07  0.021220251    1.2511167e-08  5.6104958e-09  6.368428       16.545661      20.737693      2185.1277    
        64   0             -146.75386      1.8283869e-07  8.5516016e-05 -8.5096407e-05  1.2890759e-07  0.021238581   -4.153264e-10   2.5833816e-09  6.368428       16.545661      20.737693      2185.1277    
        65   0             -146.75386      1.5027034e-07  2.1339094e-05 -2.0985564e-05  9.7281088e-08  0.021288993   -1.6741127e-09  3.5866705e-10  6.368428       16.545661      20.737693      2185.1277    
        66   0             -146.75386      1.2822078e-07 -3.1176067e-05  3.1483696e-05  7.7032915e-08  0.02133024    -2.0819894e-09 -3.2096715e-10  6.368428       16.545661      20.737693      2185.1277    
        67   0             -146.75386      1.1572572e-07 -4.698269e-05   4.7264109e-05  6.5758186e-08  0.021342641    5.7804336e-10 -3.9848252e-10  6.368428       16.545661      20.737693      2185.1277    
        68   0             -146.75386      1.1002225e-07 -3.1782707e-05  3.205257e-05   6.0203509e-08  0.02133068     7.8551577e-10 -3.6147749e-10  6.368428       16.545661      20.737693      2185.1277    
        69   0             -146.75386      1.0746006e-07 -4.8477702e-06  5.1125528e-06  5.759753e-08   0.021309502    1.1734766e-09 -1.5567448e-10  6.368428       16.545661      20.737693      2185.1277    
        70   0             -146.75386      1.0575974e-07  1.6055819e-05 -1.579434e-05   5.5800141e-08  0.02129307     5.5135568e-10  4.0232243e-11  6.368428       16.545661      20.737693      2185.1277    
        71   0             -146.75386      1.0454125e-07  1.7932844e-05 -1.7673908e-05  5.4687521e-08  0.021291596    2.8144669e-10  5.5389575e-11  6.368428       16.545661      20.737693      2185.1277    
        72   0             -146.75386      1.0373009e-07  9.1402942e-06 -8.8831532e-06  5.4049271e-08  0.021298509    3.3446716e-11  3.667471e-11   6.368428       16.545661      20.737693      2185.1277    
        73   0             -146.75386      1.0333815e-07  1.7941062e-06 -1.5378222e-06  5.3730444e-08  0.021304283    1.6426998e-11  3.6459346e-11  6.368428       16.545661      20.737693      2185.1277    
        74   0             -146.75386      1.0314485e-07 -2.7839044e-06  3.0397361e-06  5.3602878e-08  0.021307881   -7.3339582e-12  4.4790181e-12  6.368428       16.545661      20.737693      2185.1277    
        75   0             -146.75386      1.0303167e-07 -4.228666e-06   4.4842789e-06  5.3482139e-08  0.021309015   -5.0457531e-12 -1.5117673e-11  6.368428       16.545661      20.737693      2185.1277    
        76   0             -146.75386      1.0306066e-07 -2.5323464e-06  2.7880093e-06  5.3519149e-08  0.021307682   -4.0689095e-12  1.5178359e-11  6.368428       16.545661      20.737693      2185.1277    
        77   0             -146.75386      1.0308495e-07 -7.8826212e-07  1.0440269e-06  5.3490044e-08  0.021306311   -2.4166702e-12  8.9469068e-12  6.368428       16.545661      20.737693      2185.1277    
        78   0             -146.75386      1.031098e-07   5.7186192e-07 -3.1607581e-07  5.3543301e-08  0.021305242    3.9531637e-12 -1.5963339e-12  6.368428       16.545661      20.737693      2185.1277    
        79   0             -146.75386      1.0310848e-07  1.015593e-06  -7.5979438e-07  5.3526854e-08  0.021304893   -8.3464159e-12  5.6313385e-12  6.368428       16.545661      20.737693      2185.1277    
        80   0             -146.75386      1.0310213e-07  8.3793511e-07 -5.8211766e-07  5.3488935e-08  0.021305033    1.1265499e-11 -9.2035488e-12  6.368428       16.545661      20.737693      2185.1277    
        81   0             -146.75386      1.0311158e-07  3.8121125e-07 -1.2541538e-07  5.3538861e-08  0.021305392    1.2439492e-12 -9.358158e-12   6.368428       16.545661      20.737693      2185.1277    
        82   0             -146.75386      1.0308728e-07 -2.7488347e-08  2.8324569e-07  5.3504483e-08  0.021305713   -2.1330295e-12  6.6477908e-12  6.368428       16.545661      20.737693      2185.1277    
        83   0             -146.75386      1.0309577e-07 -8.2902845e-08  3.3866707e-07  5.3523072e-08  0.021305757   -2.9000043e-12  1.5695806e-11  6.368428       16.545661      20.737693      2185.1277    
        84   0             -146.75386      1.0308781e-07 -1.1997068e-08  2.6775915e-07  5.3501341e-08  0.021305701    4.9185599e-12  1.6518826e-11  6.368428       16.545661      20.737693      2185.1277    
        85   0             -146.75386      1.0308739e-07  5.3167163e-08  2.0256749e-07  5.3527517e-08  0.02130565    -4.8091738e-12  1.9942796e-12  6.368428       16.545661      20.737693      2185.1277    
        86   0             -146.75386      1.0308694e-07  9.1829562e-08  1.6392067e-07  5.3510594e-08  0.021305619    9.0536099e-12  3.6405468e-12  6.368428       16.545661      20.737693      2185.1277    
        87   0             -146.75386      1.0307851e-07  1.0619126e-07  1.4955402e-07  5.3490259e-08  0.021305608    3.8208829e-12 -9.9193979e-12  6.368428       16.545661      20.737693      2185.1277    
        88   0             -146.75386      1.0310225e-07  1.0374237e-07  1.5202881e-07  5.3535555e-08  0.02130561    -4.0498306e-12  1.359069e-12   6.368428       16.545661      20.737693      2185.1277    
        89   0             -146.75386      1.0309645e-07  9.6415731e-08  1.5936279e-07  5.3510842e-08  0.021305616    3.5270666e-12  6.2428694e-12  6.368428       16.545661      20.737693      2185.1277    
Loop time of 0.014797 on 1 procs for 36 steps with 96 atoms

105.6% CPU use with 1 MPI tasks x 1 OpenMP threads

Minimization stats:
  Stopping criterion = force tolerance
  Energy initial, next-to-last, final = 
     -146.753862702887  -146.753862724558  -146.753862724556
  Force two-norm initial, final = 0.00049853651 6.7821024e-11
  Force max component initial, final = 6.7757715e-05 1.2897863e-11
  Final line search alpha, max atom move = 1 1.2897863e-11
  Iterations, force evaluations = 36 72

MPI task timing breakdown:
Section |  min time  |  avg time  |  max time  |%varavg| %total
---------------------------------------------------------------
Pair    | 0.013807   | 0.013807   | 0.013807   |   0.0 | 93.31
Neigh   | 0          | 0          | 0          |   0.0 |  0.00
Comm    | 0.000275   | 0.000275   | 0.000275   |   0.0 |  1.86
Output  | 0.000522   | 0.000522   | 0.000522   |   0.0 |  3.53
Modify  | 0          | 0          | 0          |   0.0 |  0.00
Other   |            | 0.000193   |            |       |  1.30

Nlocal:             96 ave          96 max          96 min
Histogram: 1 0 0 0 0 0 0 0 0 0
Nghost:           1310 ave        1310 max        1310 min
Histogram: 1 0 0 0 0 0 0 0 0 0
Neighs:           6144 ave        6144 max        6144 min
Histogram: 1 0 0 0 0 0 0 0 0 0

Total # of neighbors = 6144
Ave neighs/atom = 64
Neighbor list builds = 0
Dangerous builds = 0
OMP_NUM_THREADS environment is not set. Defaulting to 1 thread. (src/comm.cpp:98)
  using 1 OpenMP thread(s) per MPI task
Loaded 1 plugins from F:\Lammps\LAMMPS 64-bit 2Aug2023\plugins

The 'box' command has been removed and will be ignored

Reading restart file ...
  restart file = 2 Aug 2023, LAMMPS = 2 Aug 2023
  restoring atom style atomic from restart
  triclinic box = (-0.014214012 -0.036929088 -0.015669905) to (6.354214 16.508732 20.722023) with tilt (0 0 0)
  1 by 1 by 1 MPI processor grid
  pair style eam/alloy stores no restart info
  96 atoms
  read_restart CPU = 0.000 seconds
Changing box ...
  triclinic box = (-0.014214012 -0.036929088 -0.015669905) to (6.354214 16.508732 20.722023) with tilt (1.6545661e-06 0 0)
Neighbor list info ...
  update: every = 1 steps, delay = 0 steps, check = yes
  max neighbors/atom: 2000, page size: 100000
  master list distance cutoff = 8.5
  ghost atom cutoff = 8.5
  1 neighbor lists, perpetual/occasional/extra = 1 0 0
  (1) pair eam/alloy, perpetual
      attributes: half, newton on
      pair build: half/nsq/newton
      stencil: none
      bin: none
Setting up cg style minimization ...
  Unit style    : metal
  Current step  : 53
Per MPI rank memory allocation (min/avg/max) = 4.465 | 4.465 | 4.465 Mbytes
   Step          Temp          PotEng         Press           Pxx            Pyy            Pzz            Pxy            Pxz            Pyz             Lx             Ly             Lz           Volume    
        53   0             -146.75386      0.0003150561   0.010208718   -0.0095797501   0.00031620073 -0.030609717    1.2846511e-05  9.8416718e-06  6.368428       16.545661      20.737693      2185.1277    
        54   0             -146.75386      6.3271308e-05  0.0077059651  -0.007587942    7.1790888e-05 -0.028501279   -1.5428648e-06 -2.6525235e-07  6.368428       16.545661      20.737693      2185.1277    
        55   0             -146.75386      1.6499086e-05  0.004571761   -0.0045398379   1.7574095e-05 -0.025587801   -7.624025e-07  -6.2758575e-07  6.368428       16.545661      20.737693      2185.1277    
        56   0             -146.75386      5.5245128e-06  0.002353052   -0.0023420301   5.5516526e-06 -0.023511757   -3.8088987e-07 -9.619122e-08   6.368428       16.545661      20.737693      2185.1277    
        57   0             -146.75386      2.1801811e-06  0.00082603638 -0.00082159816  2.1023158e-06 -0.022079709   -1.0037614e-07 -6.0733439e-08  6.368428       16.545661      20.737693      2185.1277    
        58   0             -146.75386      1.1012123e-06  1.092248e-05  -8.6480141e-06  1.0291708e-06 -0.021314609   -5.1795845e-09 -2.7264825e-08  6.368428       16.545661      20.737693      2185.1277    
        59   0             -146.75386      7.2154649e-07 -0.0002734293   0.00027495929  6.346454e-07  -0.021047737    9.821166e-09   2.3482016e-11  6.368428       16.545661      20.737693      2185.1277    
        60   0             -146.75386      5.314338e-07  -0.00024995697  0.0002510989   4.523682e-07  -0.021070022    5.7906931e-08  4.8556356e-09  6.368428       16.545661      20.737693      2185.1277    
        61   0             -146.75386      3.9686638e-07 -0.00011465149  0.00011551607  3.2601963e-07 -0.021197372    3.9059238e-08  9.5561471e-09  6.368428       16.545661      20.737693      2185.1277    
        62   0             -146.75386      2.943641e-07   3.7475433e-05 -3.6829728e-05  2.3738681e-07 -0.021340497    3.0342609e-08  7.9979983e-09  6.368428       16.545661      20.737693      2185.1277    
        63   0             -146.75386      2.2537077e-07  0.00010862653 -0.00010812462  1.7420139e-07 -0.021407455    9.7621471e-09  5.6171963e-09  6.368428       16.545661      20.737693      2185.1277    
        64   0             -146.75386      1.7858398e-07  8.5297991e-05 -8.4888912e-05  1.2667273e-07 -0.02138558     2.0587817e-09  2.5645393e-09  6.368428       16.545661      20.737693      2185.1277    
        65   0             -146.75386      1.4921132e-07  2.1275381e-05 -2.0924487e-05  9.6740564e-08 -0.021325444   -3.3742631e-09  3.6707152e-10  6.368428       16.545661      20.737693      2185.1277    
        66   0             -146.75386      1.2978447e-07 -3.1086388e-05  3.1397885e-05  7.7856837e-08 -0.021276265   -5.9828106e-10 -3.2694382e-10  6.368428       16.545661      20.737693      2185.1277    
        67   0             -146.75386      1.1810057e-07 -4.6841233e-05  4.7128521e-05  6.7013528e-08 -0.021261485   -4.0196603e-10 -3.9304464e-10  6.368428       16.545661      20.737693      2185.1277    
        68   0             -146.75386      1.1159881e-07 -3.1682967e-05  3.1956724e-05  6.1039394e-08 -0.021275749    1.2522066e-09 -3.7515698e-10  6.368428       16.545661      20.737693      2185.1277    
        69   0             -146.75386      1.077368e-07  -4.8288246e-06  5.0943001e-06  5.7734887e-08 -0.021300996    9.7227223e-10 -1.5566502e-10  6.368428       16.545661      20.737693      2185.1277    
        70   0             -146.75386      1.0497182e-07  1.5998091e-05 -1.5738565e-05  5.5389472e-08 -0.021320572    6.4998636e-10  2.9007963e-11  6.368428       16.545661      20.737693      2185.1277    
        71   0             -146.75386      1.0365315e-07  1.7866876e-05 -1.7610144e-05  5.4227391e-08 -0.021322326    1.9335779e-10  5.9325846e-11  6.368428       16.545661      20.737693      2185.1277    
        72   0             -146.75386      1.0326423e-07  9.1045664e-06 -8.8485723e-06  5.3798561e-08 -0.021314089    8.2779859e-11  3.0869226e-11  6.368428       16.545661      20.737693      2185.1277    
        73   0             -146.75386      1.0326628e-07  1.7863212e-06 -1.530224e-06   5.3701576e-08 -0.021307211    2.9597851e-12  3.3761241e-12  6.368428       16.545661      20.737693      2185.1277    
        74   0             -146.75386      1.0327383e-07 -2.771641e-06   3.0278047e-06  5.3657805e-08 -0.021302928    1.2871949e-11  1.6516311e-11  6.368428       16.545661      20.737693      2185.1277    
        75   0             -146.75386      1.0324931e-07 -4.2094531e-06  4.465578e-06   5.3623038e-08 -0.021301578   -9.0714169e-12  1.3570259e-11  6.368428       16.545661      20.737693      2185.1277    
        76   0             -146.75386      1.0318623e-07 -2.5200967e-06  2.7760854e-06  5.3570002e-08 -0.021303166   -1.6916692e-13  2.5365995e-12  6.368428       16.545661      20.737693      2185.1277    
        77   0             -146.75386      1.031346e-07  -7.8367105e-07  1.0395228e-06  5.3552085e-08 -0.021304798   -4.0854446e-12 -7.2063875e-12  6.368428       16.545661      20.737693      2185.1277    
        78   0             -146.75386      1.0310061e-07  5.6913214e-07 -3.1336329e-07  5.353298e-08  -0.021306069   -2.8300481e-12 -2.5419754e-12  6.368428       16.545661      20.737693      2185.1277    
        79   0             -146.75386      1.0309467e-07  1.0101562e-06 -7.5442378e-07  5.3551556e-08 -0.021306483   -9.2354961e-12 -7.8461095e-12  6.368428       16.545661      20.737693      2185.1277    
        80   0             -146.75386      1.0307427e-07  8.3349031e-07 -5.7776027e-07  5.3492781e-08 -0.021306317   -1.3520634e-12 -1.2956045e-11  6.368428       16.545661      20.737693      2185.1277    
        81   0             -146.75386      1.0307987e-07  3.7933852e-07 -1.2360642e-07  5.3507517e-08 -0.02130589     3.5919351e-12  1.4400582e-11  6.368428       16.545661      20.737693      2185.1277    
        82   0             -146.75386      1.0311195e-07 -2.6677994e-08  2.8249407e-07  5.3519764e-08 -0.021305509    4.2571554e-12 -1.4929756e-11  6.368428       16.545661      20.737693      2185.1277    
        83   0             -146.75386      1.0311612e-07 -8.1662844e-08  3.3749085e-07  5.3520345e-08 -0.021305457   -3.0678993e-12 -2.3304671e-12  6.368428       16.545661      20.737693      2185.1277    
        84   0             -146.75386      1.0310617e-07 -1.1245784e-08  2.6704101e-07  5.3523301e-08 -0.021305523    5.6499206e-12 -7.988536e-12   6.368428       16.545661      20.737693      2185.1277    
        85   0             -146.75386      1.0310416e-07  5.3459152e-08  2.0232189e-07  5.3531424e-08 -0.021305584    5.0724637e-12 -1.1721695e-11  6.368428       16.545661      20.737693      2185.1277    
        86   0             -146.75386      1.0309958e-07  9.1849623e-08  1.639326e-07   5.3516526e-08 -0.02130562    -7.8389151e-12 -2.6579676e-11  6.368428       16.545661      20.737693      2185.1277    
        87   0             -146.75386      1.0309598e-07  1.0607027e-07  1.4971077e-07  5.3506913e-08 -0.021305634    3.8768478e-12  1.4698771e-11  6.368428       16.545661      20.737693      2185.1277    
        88   0             -146.75386      1.0307873e-07  1.0360959e-07  1.5211762e-07  5.3508984e-08 -0.021305631    4.6679894e-12 -7.8492893e-12  6.368428       16.545661      20.737693      2185.1277    
        89   0             -146.75386      1.0312553e-07  9.6382238e-08  1.5945268e-07  5.3541674e-08 -0.021305624    2.8936446e-12 -8.5056657e-12  6.368428       16.545661      20.737693      2185.1277    
Loop time of 0.014012 on 1 procs for 36 steps with 96 atoms

111.5% CPU use with 1 MPI tasks x 1 OpenMP threads

Minimization stats:
  Stopping criterion = force tolerance
  Energy initial, next-to-last, final = 
     -146.753862702885  -146.753862724557  -146.753862724557
  Force two-norm initial, final = 0.00049854345 6.7863428e-11
  Force max component initial, final = 6.7757709e-05 1.2916748e-11
  Final line search alpha, max atom move = 1 1.2916748e-11
  Iterations, force evaluations = 36 72

MPI task timing breakdown:
Section |  min time  |  avg time  |  max time  |%varavg| %total
---------------------------------------------------------------
Pair    | 0.013231   | 0.013231   | 0.013231   |   0.0 | 94.43
Neigh   | 0          | 0          | 0          |   0.0 |  0.00
Comm    | 0.000256   | 0.000256   | 0.000256   |   0.0 |  1.83
Output  | 0.000348   | 0.000348   | 0.000348   |   0.0 |  2.48
Modify  | 0          | 0          | 0          |   0.0 |  0.00
Other   |            | 0.000177   |            |       |  1.26

Nlocal:             96 ave          96 max          96 min
Histogram: 1 0 0 0 0 0 0 0 0 0
Nghost:           1310 ave        1310 max        1310 min
Histogram: 1 0 0 0 0 0 0 0 0 0
Neighs:           6144 ave        6144 max        6144 min
Histogram: 1 0 0 0 0 0 0 0 0 0

Total # of neighbors = 6144
Ave neighs/atom = 64
Neighbor list builds = 0
Dangerous builds = 0
=========================================
Components of the Elastic Constant Tensor
=========================================
Elastic Constant C11all = 68.6663298209071 GPa
Elastic Constant C22all = 68.6663297709636 GPa
Elastic Constant C33all = 69.8385139109147 GPa
Elastic Constant C12all = 26.0550895777007 GPa
Elastic Constant C13all = 15.9998282841026 GPa
Elastic Constant C23all = 15.9998282765131 GPa
Elastic Constant C44all = 12.7595352993169 GPa
Elastic Constant C55all = 12.7595352861321 GPa
Elastic Constant C66all = 21.3056201308978 GPa
Elastic Constant C14all = -3.66328947141521e-09 GPa
Elastic Constant C15all = -1.0938610662684e-09 GPa
Elastic Constant C16all = 2.20248715747354e-08 GPa
Elastic Constant C24all = -6.58223333167575e-09 GPa
Elastic Constant C25all = -1.50107803463694e-08 GPa
Elastic Constant C26all = -3.11749057723328e-08 GPa
Elastic Constant C34all = -1.0742907558791e-10 GPa
Elastic Constant C35all = -2.46757714103568e-09 GPa
Elastic Constant C36all = -4.86798946539968e-09 GPa
Elastic Constant C45all = 1.01100212267154e-08 GPa
Elastic Constant C46all = 5.50567812737063e-09 GPa
Elastic Constant C56all = -1.41152621332711e-09 GPa
=========================================
Average properties for a cubic crystal
=========================================
Bulk Modulus = 35.9200739754909 GPa
Shear Modulus 1 = 15.6082302387823 GPa
Shear Modulus 2 = 24.8527378940781 GPa
Poisson Ratio = 0.21888790589123
Total wall time: 0:00:00
