LAMMPS (2 Aug 2023 - Update 3)
OMP_NUM_THREADS environment is not set. Defaulting to 1 thread. (src/comm.cpp:98)
  using 1 OpenMP thread(s) per MPI task
Loaded 1 plugins from F:\Lammps\LAMMPS 64-bit 2Aug2023\plugins
Lattice spacing in x,y,z = 3.17 3.17 3.17
Created triclinic box = (0 0 0) to (6.34 9.51 12.68) with tilt (0 0 0)
  1 by 1 by 1 MPI processor grid
Created 48 atoms
  using lattice units in triclinic box = (0 0 0) to (6.34 9.51 12.68) with tilt (0 0 0)
  create_atoms CPU = 0.000 seconds
Neighbor list info ...
  update: every = 1 steps, delay = 0 steps, check = yes
  max neighbors/atom: 2000, page size: 100000
  master list distance cutoff = 8.5
  ghost atom cutoff = 8.5
  1 neighbor lists, perpetual/occasional/extra = 1 0 0
  (1) pair eam/alloy, perpetual
      attributes: half, newton on
      pair build: half/nsq/newton
      stencil: none
      bin: none
Setting up cg style minimization ...
  Unit style    : metal
  Current step  : 0
WARNING: Energy due to 3 extra global DOFs will be included in minimizer energies
 (src/min.cpp:228)
Per MPI rank memory allocation (min/avg/max) = 4.473 | 4.473 | 4.473 Mbytes
   Step          Temp          PotEng         Press           Pxx            Pyy            Pzz            Pxy            Pxz            Pyz             Lx             Ly             Lz           Volume    
         0   0             -51.092184      251390.27      251390.27      251390.27      251390.27      1.4003541e-11 -2.7629001e-11 -6.114007e-11   6.34           9.51           12.68          764.52031    
         1   0             -51.128158      251164.04      251164.04      251164.04      251164.04      5.4667207e-11  9.6207307e-11 -1.0073565e-10  6.340634       9.510951       12.681268      764.74969    
         2   0             -51.164108      250936.1       250936.1       250936.1       250936.1       2.0055344e-12  4.6824868e-11 -6.0565685e-11  6.341268       9.511902       12.682536      764.97912    
         3   0             -51.200032      250708.12      250708.12      250708.12      250708.12      5.9566849e-13  5.175778e-11  -7.645623e-11   6.341902       9.512853       12.683804      765.20859    
         4   0             -51.23593       250480.76      250480.76      250480.76      250480.76     -1.0602625e-11  2.2418015e-11 -5.5438655e-11  6.342536       9.513804       12.685072      765.4381     
         5   0             -51.271803      250253.2       250253.2       250253.2       250253.2      -3.8760576e-11  7.6090953e-11  1.4965546e-10  6.34317        9.514755       12.68634       765.66767    
         6   0             -51.307651      250027.63      250027.63      250027.63      250027.63     -1.6402443e-11 -3.2935524e-11 -5.3866782e-11  6.343804       9.515706       12.687608      765.89727    
         7   0             -51.343473      249801.3       249801.3       249801.3       249801.3       1.6484592e-11  6.2383153e-11  5.1833595e-11  6.344438       9.516657       12.688876      766.12693    
         8   0             -51.37927       249573.85      249573.85      249573.85      249573.85     -2.2159038e-11  1.6624719e-11  1.2606353e-11  6.345072       9.517608       12.690144      766.35663    
         9   0             -51.415042      249347.24      249347.24      249347.24      249347.24      2.5705482e-11 -1.0572241e-11  1.0543236e-10  6.345706       9.518559       12.691412      766.58638    
        10   0             -51.450788      249119.5       249119.5       249119.5       249119.5      -3.6709042e-11 -3.4287869e-12  1.2604597e-10  6.34634        9.51951        12.69268       766.81617    
        11   0             -51.486509      248890.91      248890.91      248890.91      248890.91      5.8192195e-12  4.1017164e-12 -6.2243184e-11  6.346974       9.520461       12.693948      767.04601    
        12   0             -51.522204      248664.49      248664.49      248664.49      248664.49      6.7679777e-11 -8.6573896e-12 -1.3990197e-10  6.347608       9.521412       12.695216      767.27589    
        13   0             -51.557874      248438.17      248438.17      248438.17      248438.17     -1.1428676e-11  5.4087043e-11  8.2419731e-12  6.348242       9.522363       12.696484      767.50582    
        14   0             -51.593518      248210.54      248210.54      248210.54      248210.54     -1.4596521e-11 -5.2622774e-11 -8.7904939e-11  6.348876       9.523314       12.697752      767.73579    
        15   0             -51.629137      247984.31      247984.31      247984.31      247984.31      1.2348316e-11  2.0744592e-11 -6.423875e-11   6.34951        9.524265       12.69902       767.96582    
        16   0             -51.664731      247756.17      247756.17      247756.17      247756.17     -1.087571e-11  -5.4400257e-11  4.0796575e-11  6.350144       9.525216       12.700288      768.19588    
        17   0             -51.700299      247530.12      247530.12      247530.12      247530.12      3.7594237e-11 -2.8117914e-11 -4.4177026e-11  6.350778       9.526167       12.701556      768.426      
        18   0             -51.735841      247301.55      247301.55      247301.55      247301.55     -5.6356391e-11 -2.6142481e-11 -6.3168623e-11  6.351412       9.527118       12.702824      768.65616    
        19   0             -51.771357      247071.71      247071.71      247071.71      247071.71      2.7327522e-12  2.0777592e-11 -7.6126668e-11  6.352046       9.528069       12.704092      768.88636    
        20   0             -51.806848      246848.18      246848.18      246848.18      246848.18     -1.5495414e-11  1.9455996e-11 -1.0525896e-10  6.35268        9.52902        12.70536       769.11661    
        21   0             -51.842314      246621.11      246621.11      246621.11      246621.11      7.2858669e-11  1.1473579e-11 -5.356745e-11   6.353314       9.529971       12.706628      769.34691    
        22   0             -51.877754      246391.56      246391.56      246391.56      246391.56     -1.6742944e-11  1.4684385e-11  1.2059542e-10  6.353948       9.530922       12.707896      769.57726    
        23   0             -51.913168      246163.67      246163.67      246163.67      246163.67     -6.2229295e-11  6.8345356e-11 -3.8913167e-11  6.354582       9.531873       12.709164      769.80764    
        24   0             -51.948557      245936.97      245936.97      245936.97      245936.97     -1.2264555e-11  2.19376e-11   -3.7717657e-11  6.355216       9.532824       12.710432      770.03808    
        25   0             -51.98392       245709.3       245709.3       245709.3       245709.3      -5.4506453e-11  4.0997108e-11 -5.234871e-11   6.35585        9.533775       12.7117        770.26856    
        26   0             -52.019257      245479.54      245479.54      245479.54      245479.54      6.8132521e-11 -9.3786825e-13  5.5435228e-11  6.356484       9.534726       12.712968      770.49909    
        27   0             -52.054568      245254.12      245254.12      245254.12      245254.12     -3.050766e-11   9.318179e-12   4.4722932e-11  6.357118       9.535677       12.714236      770.72966    
        28   0             -52.089854      245023.4       245023.4       245023.4       245023.4      -1.3266502e-11 -5.7334361e-11 -8.7234461e-11  6.357752       9.536628       12.715504      770.96028    
        29   0             -52.125114      244799.55      244799.55      244799.55      244799.55     -4.3384343e-11 -6.6456828e-12  1.149804e-10   6.358386       9.537579       12.716772      771.19095    
        30   0             -52.160348      244570.65      244570.65      244570.65      244570.65     -4.3083139e-11  5.9404147e-11 -1.0347447e-11  6.35902        9.53853        12.71804       771.42166    
        31   0             -52.195556      244341.84      244341.84      244341.84      244341.84      3.2819549e-11 -1.8160246e-11 -1.0367404e-10  6.359654       9.539481       12.719308      771.65241    
        32   0             -52.230739      244114.99      244114.99      244114.99      244114.99     -1.0326857e-11 -5.8331619e-13 -1.9285441e-11  6.360288       9.540432       12.720576      771.88322    
        33   0             -52.265896      243884.22      243884.22      243884.22      243884.22     -2.9178687e-11 -3.5996407e-14 -8.8795936e-11  6.360922       9.541383       12.721844      772.11407    
        34   0             -52.301026      243657.66      243657.66      243657.66      243657.66     -2.1447445e-11 -4.9444277e-12 -5.7577032e-14  6.361556       9.542334       12.723112      772.34496    
        35   0             -52.336131      243429.8       243429.8       243429.8       243429.8       2.0124353e-11  6.8927886e-11 -2.7254575e-11  6.36219        9.543285       12.72438       772.5759     
        36   0             -52.37121       243200.29      243200.29      243200.29      243200.29      2.6145927e-11 -7.4949259e-12  6.6195588e-11  6.362824       9.544236       12.725648      772.80689    
        37   0             -52.406263      242972.52      242972.52      242972.52      242972.52      4.4438387e-12 -3.9138857e-11 -2.3132409e-11  6.363458       9.545187       12.726916      773.03793    
        38   0             -52.44129       242743.17      242743.17      242743.17      242743.17      1.7547198e-11 -5.3698309e-12  2.0005675e-11  6.364092       9.546138       12.728184      773.269      
        39   0             -52.476291      242514.95      242514.95      242514.95      242514.95     -3.2439322e-11  1.3596632e-11  2.2514931e-11  6.364726       9.547089       12.729452      773.50013    
        40   0             -52.511266      242288.19      242288.19      242288.19      242288.19      2.8974014e-11  4.3148507e-11  4.3105401e-12  6.36536        9.54804        12.73072       773.7313     
        41   0             -52.546216      242059.02      242059.02      242059.02      242059.02      6.4768063e-11  8.3814959e-12 -7.2862276e-11  6.365994       9.548991       12.731988      773.96252    
        42   0             -52.581139      241829.74      241829.74      241829.74      241829.74      3.1397886e-11 -6.420304e-11  -4.0660011e-11  6.366628       9.549942       12.733256      774.19378    
        43   0             -52.616036      241599.51      241599.51      241599.51      241599.51      2.1727193e-11  1.4463262e-11 -1.8956563e-11  6.367262       9.550893       12.734524      774.42509    
        44   0             -52.650906      241371.89      241371.89      241371.89      241371.89      1.8498835e-11  6.1897188e-11 -1.8745678e-10  6.367896       9.551844       12.735792      774.65645    
        45   0             -52.685751      241142.19      241142.19      241142.19      241142.19     -2.8629482e-11 -1.0681358e-11 -3.7072704e-11  6.36853        9.552795       12.73706       774.88785    
        46   0             -52.72057       240915.15      240915.15      240915.15      240915.15      2.2360328e-11  1.2557067e-10 -6.863e-12      6.369164       9.553746       12.738328      775.1193     
        47   0             -52.755362      240685.69      240685.69      240685.69      240685.69      1.6460547e-11  3.7452045e-11  1.0977521e-10  6.369798       9.554697       12.739596      775.35079    
        48   0             -52.790128      240454.37      240454.37      240454.37      240454.37      6.3500394e-11  2.1322085e-11  1.0468248e-10  6.370432       9.555648       12.740864      775.58233    
        49   0             -52.824868      240224.89      240224.89      240224.89      240224.89      2.9447936e-12  8.2819634e-11  2.477639e-11   6.371066       9.556599       12.742132      775.81392    
        50   0             -52.859582      239995.05      239995.05      239995.05      239995.05      1.626674e-11   1.8709258e-11  7.9306626e-11  6.3717         9.55755        12.7434        776.04555    
        51   0             -52.894269      239767.81      239767.81      239767.81      239767.81     -1.6183118e-11 -7.3289475e-11 -1.280901e-10   6.372334       9.558501       12.744668      776.27723    
        52   0             -52.928931      239538.07      239538.07      239538.07      239538.07     -5.4218743e-11  2.2062604e-11  2.6636908e-11  6.372968       9.559452       12.745936      776.50895    
        53   0             -52.963565      239308.32      239308.32      239308.32      239308.32     -6.3191001e-12 -1.0834788e-11 -7.7296263e-11  6.373602       9.560403       12.747204      776.74072    
        54   0             -52.998174      239077.52      239077.52      239077.52      239077.52      1.3779112e-11 -4.0965313e-11  3.5842861e-12  6.374236       9.561354       12.748472      776.97254    
        55   0             -53.032756      238846.59      238846.59      238846.59      238846.59     -4.0159206e-11  3.6225535e-11 -1.0184632e-10  6.37487        9.562305       12.74974       777.2044     
        56   0             -53.067312      238619.25      238619.25      238619.25      238619.25     -2.9307833e-11  1.2335173e-10  2.0984523e-10  6.375504       9.563256       12.751008      777.43631    
        57   0             -53.101841      238387.08      238387.08      238387.08      238387.08     -1.3366504e-12 -1.308059e-11  -2.9556414e-11  6.376138       9.564207       12.752276      777.66827    
        58   0             -53.136344      238156.62      238156.62      238156.62      238156.62      2.0358189e-11  2.9354665e-11  1.6235102e-11  6.376772       9.565158       12.753544      777.90027    
        59   0             -53.17082       237927.47      237927.47      237927.47      237927.47     -5.8477513e-11 -5.4962862e-11 -9.0345115e-11  6.377406       9.566109       12.754812      778.13232    
        60   0             -53.20527       237696.36      237696.36      237696.36      237696.36     -4.1920431e-11  2.1410128e-11  1.7539451e-11  6.37804        9.56706        12.75608       778.36441    
        61   0             -53.239693      237465.02      237465.02      237465.02      237465.02      3.4126051e-12  1.3985969e-11  9.0484009e-11  6.378674       9.568011       12.757348      778.59655    
        62   0             -53.274089      237236.82      237236.82      237236.82      237236.82     -1.8406872e-11  2.3895388e-11 -8.7145367e-11  6.379308       9.568962       12.758616      778.82874    
        63   0             -53.30846       237004.93      237004.93      237004.93      237004.93      1.1230624e-11  9.5067875e-11 -6.0419901e-11  6.379942       9.569913       12.759884      779.06097    
        64   0             -53.342803      236774.91      236774.91      236774.91      236774.91     -5.6849679e-12 -9.6865576e-12 -7.6793431e-11  6.380576       9.570864       12.761152      779.29325    
        65   0             -53.37712       236545.16      236545.16      236545.16      236545.16     -4.3055967e-11 -3.9248103e-11  8.5855225e-12  6.38121        9.571815       12.76242       779.52557    
        66   0             -53.41141       236311.67      236311.67      236311.67      236311.67      4.4155215e-11 -5.3543723e-11 -1.0311676e-10  6.381844       9.572766       12.763688      779.75794    
        67   0             -53.445674      236081.18      236081.18      236081.18      236081.18     -3.8704475e-11  4.912354e-11  -4.1262918e-12  6.382478       9.573717       12.764956      779.99036    
        68   0             -53.47991       235849.01      235849.01      235849.01      235849.01      8.5493521e-12 -3.6983072e-11 -8.0876871e-11  6.383112       9.574668       12.766224      780.22282    
        69   0             -53.51412       235618.12      235618.12      235618.12      235618.12     -7.3716195e-12  2.2535076e-11  4.9578592e-11  6.383746       9.575619       12.767492      780.45533    
        70   0             -53.548303      235385.54      235385.54      235385.54      235385.54      5.3095451e-11  8.0721889e-11  1.2418369e-10  6.38438        9.57657        12.76876       780.68789    
        71   0             -53.582459      235155.32      235155.32      235155.32      235155.32      3.2486987e-11 -2.1453939e-11  8.4178594e-11  6.385014       9.577521       12.770028      780.92049    
        72   0             -53.616589      234926.51      234926.51      234926.51      234926.51      2.65924e-11   -1.6067872e-11  1.0631267e-11  6.385648       9.578472       12.771296      781.15313    
        73   0             -53.650692      234691.36      234691.36      234691.36      234691.36      3.9375194e-11 -3.964552e-11  -1.0933286e-10  6.386282       9.579423       12.772564      781.38583    
        74   0             -53.684767      234459.39      234459.39      234459.39      234459.39      2.0709381e-11  5.4127437e-11  1.3725654e-12  6.386916       9.580374       12.773832      781.61857    
        75   0             -53.718816      234228.67      234228.67      234228.67      234228.67      1.4496516e-11 -4.7143893e-11 -5.6400619e-11  6.38755        9.581325       12.7751        781.85135    
        76   0             -53.752838      233995.24      233995.24      233995.24      233995.24      1.5444606e-11  4.9041777e-11 -1.2215667e-10  6.388184       9.582276       12.776368      782.08419    
        77   0             -53.786833      233763.22      233763.22      233763.22      233763.22     -4.3065757e-11 -2.2460132e-11  2.2767085e-10  6.388818       9.583227       12.777636      782.31707    
        78   0             -53.8208        233530.25      233530.25      233530.25      233530.25      5.6328956e-12 -1.1223172e-12  9.3180738e-11  6.389452       9.584178       12.778904      782.54999    
        79   0             -53.854741      233297.98      233297.98      233297.98      233297.98     -2.1481006e-11  2.4712034e-11  4.6874751e-11  6.390086       9.585129       12.780172      782.78296    
        80   0             -53.888654      233064.24      233064.24      233064.24      233064.24      5.647291e-11  -4.1536518e-11 -1.4936393e-10  6.39072        9.58608        12.78144       783.01598    
        81   0             -53.92254       232831.83      232831.83      232831.83      232831.83      2.3519238e-11  6.9620918e-12  1.4761622e-12  6.391354       9.587031       12.782708      783.24904    
        82   0             -53.9564        232603.53      232603.53      232603.53      232603.53     -3.6722798e-11 -1.0713181e-11  3.0543209e-11  6.391988       9.587982       12.783976      783.48215    
        83   0             -53.990232      232365.09      232365.09      232365.09      232365.09      3.1775346e-12  1.2993847e-11  5.2301653e-11  6.392622       9.588933       12.785244      783.71531    
        84   0             -54.024037      232133.18      232133.18      232133.18      232133.18     -3.0049969e-11  2.1363982e-11 -4.8549347e-11  6.393256       9.589884       12.786512      783.94851    
        85   0             -54.057814      231901.18      231901.18      231901.18      231901.18      1.3453958e-11  4.852073e-11  -7.1111755e-11  6.39389        9.590835       12.78778       784.18176    
        86   0             -54.091565      231666.84      231666.84      231666.84      231666.84      2.089066e-11   2.1159943e-11  1.4059386e-10  6.394524       9.591786       12.789048      784.41505    
        87   0             -54.125288      231433.62      231433.62      231433.62      231433.62      8.2730184e-11  4.8343104e-11 -7.1657459e-11  6.395158       9.592737       12.790316      784.6484     
        88   0             -54.158983      231199.76      231199.76      231199.76      231199.76      4.7861306e-11  2.6600631e-11 -3.4497251e-11  6.395792       9.593688       12.791584      784.88178    
        89   0             -54.192651      230965.27      230965.27      230965.27      230965.27     -3.5612724e-12  8.1498623e-11  8.0826016e-11  6.396426       9.594639       12.792852      785.11522    
        90   0             -54.226292      230733.02      230733.02      230733.02      230733.02      1.4155919e-11  9.3931602e-11 -1.7270222e-11  6.39706        9.59559        12.79412       785.3487     
        91   0             -54.259906      230499.29      230499.29      230499.29      230499.29     -4.0332377e-13  8.1754436e-11 -9.0974276e-11  6.397694       9.596541       12.795388      785.58222    
        92   0             -54.293492      230263.98      230263.98      230263.98      230263.98     -2.4786428e-11 -2.5111821e-12 -1.4131943e-10  6.398328       9.597492       12.796656      785.81579    
        93   0             -54.32705       230028.82      230028.82      230028.82      230028.82      4.9338902e-11  5.9500864e-11 -1.5004627e-10  6.398962       9.598443       12.797924      786.04941    
        94   0             -54.360581      229793.79      229793.79      229793.79      229793.79     -3.8140214e-11 -1.1257549e-10  4.3286846e-11  6.399596       9.599394       12.799192      786.28308    
        95   0             -54.394085      229561.37      229561.37      229561.37      229561.37      1.3414016e-11 -5.1917472e-11  2.6283838e-11  6.40023        9.600345       12.80046       786.51679    
        96   0             -54.42756       229324.13      229324.13      229324.13      229324.13     -1.3975258e-11  2.5364599e-12 -4.7648707e-11  6.400864       9.601296       12.801728      786.75055    
        97   0             -54.461008      229090.69      229090.69      229090.69      229090.69      7.3606117e-11 -1.7064809e-11  9.1122974e-11  6.401498       9.602247       12.802996      786.98435    
        98   0             -54.494429      228855.12      228855.12      228855.12      228855.12     -6.1643846e-12 -4.1378343e-12  7.8654158e-11  6.402132       9.603198       12.804264      787.2182     
        99   0             -54.527821      228619.01      228619.01      228619.01      228619.01     -4.0088364e-11  6.2903224e-11 -2.691617e-11   6.402766       9.604149       12.805532      787.4521     
       100   0             -54.561186      228386.32      228386.32      228386.32      228386.32      3.8460415e-12  2.9921497e-12 -1.1884621e-10  6.4034         9.6051         12.8068        787.68604    
Loop time of 0.018527 on 1 procs for 100 steps with 48 atoms

84.3% CPU use with 1 MPI tasks x 1 OpenMP threads

Minimization stats:
  Stopping criterion = max iterations
  Energy initial, next-to-last, final = 
     -51.0921837023639  -54.5278212507237     -54.5611862067
  Force two-norm initial, final = 207.77236 192.55382
  Force max component initial, final = 119.95743 111.171
  Final line search alpha, max atom move = 8.9877759e-07 9.9918003e-05
  Iterations, force evaluations = 100 100

MPI task timing breakdown:
Section |  min time  |  avg time  |  max time  |%varavg| %total
---------------------------------------------------------------
Pair    | 0.013575   | 0.013575   | 0.013575   |   0.0 | 73.27
Neigh   | 0          | 0          | 0          |   0.0 |  0.00
Comm    | 0.000343   | 0.000343   | 0.000343   |   0.0 |  1.85
Output  | 0.00091    | 0.00091    | 0.00091    |   0.0 |  4.91
Modify  | 0          | 0          | 0          |   0.0 |  0.00
Other   |            | 0.003699   |            |       | 19.97

Nlocal:             48 ave          48 max          48 min
Histogram: 1 0 0 0 0 0 0 0 0 0
Nghost:           1176 ave        1176 max        1176 min
Histogram: 1 0 0 0 0 0 0 0 0 0
Neighs:           4032 ave        4032 max        4032 min
Histogram: 1 0 0 0 0 0 0 0 0 0

Total # of neighbors = 4032
Ave neighs/atom = 84
Neighbor list builds = 0
Dangerous builds = 0
Displacing atoms ...
System init for write_restart ...
OMP_NUM_THREADS environment is not set. Defaulting to 1 thread. (src/comm.cpp:98)
  using 1 OpenMP thread(s) per MPI task
Loaded 1 plugins from F:\Lammps\LAMMPS 64-bit 2Aug2023\plugins

The 'box' command has been removed and will be ignored

Reading restart file ...
  restart file = 2 Aug 2023, LAMMPS = 2 Aug 2023
  restoring atom style atomic from restart
  triclinic box = (-0.0317 -0.04755 -0.0634) to (6.3717 9.55755 12.7434) with tilt (0 0 0)
  1 by 1 by 1 MPI processor grid
  pair style eam/alloy stores no restart info
  48 atoms
  read_restart CPU = 0.000 seconds
Changing box ...
  triclinic box = (-0.0317 -0.04755 -0.0634) to (6.3716999 9.55755 12.7434) with tilt (0 0 0)
  triclinic box = (-0.0317 -0.04755 -0.0634) to (6.3716999 9.55755 12.7434) with tilt (0 0 0)
  triclinic box = (-0.0317 -0.04755 -0.0634) to (6.3716999 9.55755 12.7434) with tilt (0 0 0)
Neighbor list info ...
  update: every = 1 steps, delay = 0 steps, check = yes
  max neighbors/atom: 2000, page size: 100000
  master list distance cutoff = 8.5
  ghost atom cutoff = 8.5
  1 neighbor lists, perpetual/occasional/extra = 1 0 0
  (1) pair eam/alloy, perpetual
      attributes: half, newton on
      pair build: half/nsq/newton
      stencil: none
      bin: none
Setting up cg style minimization ...
  Unit style    : metal
  Current step  : 100
Per MPI rank memory allocation (min/avg/max) = 4.469 | 4.469 | 4.469 Mbytes
   Step          Temp          PotEng         Press           Pxx            Pyy            Pzz            Pxy            Pxz            Pyz             Lx             Ly             Lz           Volume    
       100   0             -54.561185      228386.33      228386.33      228386.33      228386.33     -6.6814846e-05  8.5328649e-05 -4.739345e-05   6.4033999      9.6051         12.8068        787.68603    
       101   0             -54.561185      228386.33      228386.33      228386.33      228386.33     -3.1515837e-05 -4.4280819e-05 -1.7976988e-05  6.4033999      9.6051         12.8068        787.68603    
       102   0             -54.561185      228386.33      228386.33      228386.33      228386.33     -1.4091305e-05 -2.4663979e-06 -1.0838328e-05  6.4033999      9.6051         12.8068        787.68603    
       103   0             -54.561185      228386.33      228386.33      228386.33      228386.33     -1.5245688e-05  7.3170709e-06 -1.347771e-06   6.4033999      9.6051         12.8068        787.68603    
       104   0             -54.561185      228386.33      228386.33      228386.33      228386.33     -4.0840232e-06  8.61694e-06   -2.7430962e-06  6.4033999      9.6051         12.8068        787.68603    
       105   0             -54.561185      228386.33      228386.33      228386.33      228386.33     -1.7578676e-06  6.0436392e-06 -1.6865367e-06  6.4033999      9.6051         12.8068        787.68603    
       106   0             -54.561185      228386.33      228386.33      228386.33      228386.33     -7.176496e-07   3.9191807e-06 -6.238032e-07   6.4033999      9.6051         12.8068        787.68603    
       107   0             -54.561185      228386.33      228386.33      228386.33      228386.33     -5.0355801e-07  3.0770775e-06 -5.4125344e-07  6.4033999      9.6051         12.8068        787.68603    
       108   0             -54.561185      228386.33      228386.33      228386.33      228386.33     -1.2704389e-07  2.2952572e-06 -4.6867871e-07  6.4033999      9.6051         12.8068        787.68603    
       109   0             -54.561185      228386.33      228386.33      228386.33      228386.33      4.9911033e-09  1.4914735e-06 -3.6797825e-07  6.4033999      9.6051         12.8068        787.68603    
       110   0             -54.561185      228386.33      228386.33      228386.33      228386.33     -4.8807636e-08  1.0081081e-06 -2.8222352e-07  6.4033999      9.6051         12.8068        787.68603    
       111   0             -54.561185      228386.33      228386.33      228386.33      228386.33     -2.7401818e-08  4.5198069e-07 -1.2596645e-07  6.4033999      9.6051         12.8068        787.68603    
       112   0             -54.561185      228386.33      228386.33      228386.33      228386.33      2.979179e-09   1.0787415e-07 -2.906474e-08   6.4033999      9.6051         12.8068        787.68603    
       113   0             -54.561185      228386.33      228386.33      228386.33      228386.33      1.4116588e-08  1.8369859e-08 -8.5516768e-09  6.4033999      9.6051         12.8068        787.68603    
       114   0             -54.561185      228386.33      228386.33      228386.33      228386.33      4.3837746e-09  1.9660823e-09 -5.0797387e-09  6.4033999      9.6051         12.8068        787.68603    
       115   0             -54.561185      228386.33      228386.33      228386.33      228386.33      2.0100895e-09  1.6677e-09    -4.1649383e-09  6.4033999      9.6051         12.8068        787.68603    
       116   0             -54.561185      228386.33      228386.33      228386.33      228386.33      1.647002e-09   2.6289493e-09 -2.9575495e-09  6.4033999      9.6051         12.8068        787.68603    
       117   0             -54.561185      228386.33      228386.33      228386.33      228386.33      5.403653e-10   3.9733772e-09 -2.165519e-09   6.4033999      9.6051         12.8068        787.68603    
       118   0             -54.561185      228386.33      228386.33      228386.33      228386.33      1.6916231e-10  4.6542254e-09 -9.865414e-10   6.4033999      9.6051         12.8068        787.68603    
       119   0             -54.561185      228386.33      228386.33      228386.33      228386.33     -2.2462294e-10  3.5055363e-09 -8.4902248e-11  6.4033999      9.6051         12.8068        787.68603    
       120   0             -54.561185      228386.33      228386.33      228386.33      228386.33     -1.1132349e-10  2.5469545e-09 -1.442442e-11   6.4033999      9.6051         12.8068        787.68603    
       121   0             -54.561185      228386.33      228386.33      228386.33      228386.33     -3.7324245e-11  2.0144366e-09 -3.4240355e-11  6.4033999      9.6051         12.8068        787.68603    
       122   0             -54.561185      228386.33      228386.33      228386.33      228386.33     -7.3110073e-12  1.697424e-09  -6.6540046e-11  6.4033999      9.6051         12.8068        787.68603    
       123   0             -54.561185      228386.33      228386.33      228386.33      228386.33      7.4309756e-12  1.1351962e-09 -2.3640806e-12  6.4033999      9.6051         12.8068        787.68603    
       124   0             -54.561185      228386.33      228386.33      228386.33      228386.33     -2.4515868e-11  6.2451246e-10 -2.0930934e-11  6.4033999      9.6051         12.8068        787.68603    
       125   0             -54.561185      228386.33      228386.33      228386.33      228386.33      6.7746786e-12  3.5237503e-10  3.2426717e-11  6.4033999      9.6051         12.8068        787.68603    
       126   0             -54.561185      228386.33      228386.33      228386.33      228386.33      4.7112244e-11  4.0125857e-11 -3.105061e-11   6.4033999      9.6051         12.8068        787.68603    
       127   0             -54.561185      228386.33      228386.33      228386.33      228386.33      1.5094831e-11 -2.1199098e-11 -6.5982547e-12  6.4033999      9.6051         12.8068        787.68603    
       128   0             -54.561185      228386.33      228386.33      228386.33      228386.33      2.1608402e-11 -1.5031318e-12 -3.1883331e-11  6.4033999      9.6051         12.8068        787.68603    
       129   0             -54.561185      228386.33      228386.33      228386.33      228386.33      5.1127653e-11  9.8515118e-12  4.8311927e-11  6.4033999      9.6051         12.8068        787.68603    
       130   0             -54.561185      228386.33      228386.33      228386.33      228386.33     -1.7607107e-11 -9.1458161e-12  5.0880659e-12  6.4033999      9.6051         12.8068        787.68603    
       131   0             -54.561185      228386.33      228386.33      228386.33      228386.33     -6.5065142e-12 -2.017584e-11   1.9244321e-11  6.4033999      9.6051         12.8068        787.68603    
       132   0             -54.561185      228386.33      228386.33      228386.33      228386.33     -3.234909e-11  -6.9038209e-11 -6.9144063e-11  6.4033999      9.6051         12.8068        787.68603    
       133   0             -54.561185      228386.33      228386.33      228386.33      228386.33     -7.7344247e-12 -1.6597963e-11 -7.9665986e-11  6.4033999      9.6051         12.8068        787.68603    
       134   0             -54.561185      228386.33      228386.33      228386.33      228386.33     -3.3852222e-11  1.2208535e-12  5.8819736e-11  6.4033999      9.6051         12.8068        787.68603    
Loop time of 0.010504 on 1 procs for 34 steps with 48 atoms

148.8% CPU use with 1 MPI tasks x 1 OpenMP threads

Minimization stats:
  Stopping criterion = force tolerance
  Energy initial, next-to-last, final = 
     -54.5611850684398  -54.5611850838746  -54.5611850838748
  Force two-norm initial, final = 0.00053872716 8.1964249e-11
  Force max component initial, final = 0.00015232379 1.6527985e-11
  Final line search alpha, max atom move = 1 1.6527985e-11
  Iterations, force evaluations = 34 68

MPI task timing breakdown:
Section |  min time  |  avg time  |  max time  |%varavg| %total
---------------------------------------------------------------
Pair    | 0.009767   | 0.009767   | 0.009767   |   0.0 | 92.98
Neigh   | 0          | 0          | 0          |   0.0 |  0.00
Comm    | 0.000266   | 0.000266   | 0.000266   |   0.0 |  2.53
Output  | 0.000329   | 0.000329   | 0.000329   |   0.0 |  3.13
Modify  | 0          | 0          | 0          |   0.0 |  0.00
Other   |            | 0.000142   |            |       |  1.35

Nlocal:             48 ave          48 max          48 min
Histogram: 1 0 0 0 0 0 0 0 0 0
Nghost:           1176 ave        1176 max        1176 min
Histogram: 1 0 0 0 0 0 0 0 0 0
Neighs:           4032 ave        4032 max        4032 min
Histogram: 1 0 0 0 0 0 0 0 0 0

Total # of neighbors = 4032
Ave neighs/atom = 84
Neighbor list builds = 0
Dangerous builds = 0
OMP_NUM_THREADS environment is not set. Defaulting to 1 thread. (src/comm.cpp:98)
  using 1 OpenMP thread(s) per MPI task
Loaded 1 plugins from F:\Lammps\LAMMPS 64-bit 2Aug2023\plugins

The 'box' command has been removed and will be ignored

Reading restart file ...
  restart file = 2 Aug 2023, LAMMPS = 2 Aug 2023
  restoring atom style atomic from restart
  triclinic box = (-0.0317 -0.04755 -0.0634) to (6.3717 9.55755 12.7434) with tilt (0 0 0)
  1 by 1 by 1 MPI processor grid
  pair style eam/alloy stores no restart info
  48 atoms
  read_restart CPU = 0.000 seconds
Changing box ...
  triclinic box = (-0.0317 -0.04755 -0.0634) to (6.3717001 9.55755 12.7434) with tilt (0 0 0)
  triclinic box = (-0.0317 -0.04755 -0.0634) to (6.3717001 9.55755 12.7434) with tilt (0 0 0)
  triclinic box = (-0.0317 -0.04755 -0.0634) to (6.3717001 9.55755 12.7434) with tilt (0 0 0)
Neighbor list info ...
  update: every = 1 steps, delay = 0 steps, check = yes
  max neighbors/atom: 2000, page size: 100000
  master list distance cutoff = 8.5
  ghost atom cutoff = 8.5
  1 neighbor lists, perpetual/occasional/extra = 1 0 0
  (1) pair eam/alloy, perpetual
      attributes: half, newton on
      pair build: half/nsq/newton
      stencil: none
      bin: none
Setting up cg style minimization ...
  Unit style    : metal
  Current step  : 100
Per MPI rank memory allocation (min/avg/max) = 4.469 | 4.469 | 4.469 Mbytes
   Step          Temp          PotEng         Press           Pxx            Pyy            Pzz            Pxy            Pxz            Pyz             Lx             Ly             Lz           Volume    
       100   0             -54.561187      228386.31      228386.31      228386.31      228386.31     -6.6849147e-05  8.4991694e-05 -4.7471415e-05  6.4034001      9.6051         12.8068        787.68605    
       101   0             -54.561187      228386.31      228386.31      228386.31      228386.31     -3.1531204e-05 -4.4128482e-05 -1.7963368e-05  6.4034001      9.6051         12.8068        787.68605    
       102   0             -54.561187      228386.31      228386.31      228386.31      228386.31     -1.4317927e-05 -2.239751e-06  -1.0728713e-05  6.4034001      9.6051         12.8068        787.68605    
       103   0             -54.561187      228386.31      228386.31      228386.31      228386.31     -1.5187155e-05  7.3756112e-06 -1.4061992e-06  6.4034001      9.6051         12.8068        787.68605    
       104   0             -54.561187      228386.31      228386.31      228386.31      228386.31     -4.0839743e-06  8.6168995e-06 -2.7430587e-06  6.4034001      9.6051         12.8068        787.68605    
       105   0             -54.561187      228386.31      228386.31      228386.31      228386.31     -1.7578823e-06  6.0435868e-06 -1.6864812e-06  6.4034001      9.6051         12.8068        787.68605    
       106   0             -54.561187      228386.31      228386.31      228386.31      228386.31     -7.1766032e-07  3.9191856e-06 -6.2386392e-07  6.4034001      9.6051         12.8068        787.68605    
       107   0             -54.561187      228386.31      228386.31      228386.31      228386.31     -5.0354644e-07  3.0770184e-06 -5.4106526e-07  6.4034001      9.6051         12.8068        787.68605    
       108   0             -54.561187      228386.31      228386.31      228386.31      228386.31     -1.2706597e-07  2.2952452e-06 -4.6879462e-07  6.4034001      9.6051         12.8068        787.68605    
       109   0             -54.561187      228386.31      228386.31      228386.31      228386.31      5.0263245e-09  1.4914354e-06 -3.6792102e-07  6.4034001      9.6051         12.8068        787.68605    
       110   0             -54.561187      228386.31      228386.31      228386.31      228386.31     -4.8789992e-08  1.0081068e-06 -2.8215621e-07  6.4034001      9.6051         12.8068        787.68605    
       111   0             -54.561187      228386.31      228386.31      228386.31      228386.31     -2.7406941e-08  4.5201928e-07 -1.2611642e-07  6.4034001      9.6051         12.8068        787.68605    
       112   0             -54.561187      228386.31      228386.31      228386.31      228386.31      2.9768996e-09  1.0785863e-07 -2.9176345e-08  6.4034001      9.6051         12.8068        787.68605    
       113   0             -54.561187      228386.31      228386.31      228386.31      228386.31      1.4176544e-08  1.8476856e-08 -8.5119883e-09  6.4034001      9.6051         12.8068        787.68605    
       114   0             -54.561187      228386.31      228386.31      228386.31      228386.31      4.3774373e-09  1.9379038e-09 -5.0817992e-09  6.4034001      9.6051         12.8068        787.68605    
       115   0             -54.561187      228386.31      228386.31      228386.31      228386.31      1.9739437e-09  1.6875583e-09 -4.1770409e-09  6.4034001      9.6051         12.8068        787.68605    
       116   0             -54.561187      228386.31      228386.31      228386.31      228386.31      1.5964389e-09  2.6619899e-09 -3.1114546e-09  6.4034001      9.6051         12.8068        787.68605    
       117   0             -54.561187      228386.31      228386.31      228386.31      228386.31      5.507743e-10   3.8953907e-09 -2.2395323e-09  6.4034001      9.6051         12.8068        787.68605    
       118   0             -54.561187      228386.31      228386.31      228386.31      228386.31      1.5265609e-10  4.6223561e-09 -1.0914078e-09  6.4034001      9.6051         12.8068        787.68605    
       119   0             -54.561187      228386.31      228386.31      228386.31      228386.31     -2.264648e-10   3.4759676e-09 -7.3004217e-11  6.4034001      9.6051         12.8068        787.68605    
       120   0             -54.561187      228386.31      228386.31      228386.31      228386.31     -9.9023217e-11  2.5693533e-09 -1.3344705e-11  6.4034001      9.6051         12.8068        787.68605    
       121   0             -54.561187      228386.31      228386.31      228386.31      228386.31     -6.8134917e-11  2.0543366e-09 -1.6548564e-11  6.4034001      9.6051         12.8068        787.68605    
       122   0             -54.561187      228386.31      228386.31      228386.31      228386.31     -4.5383289e-11  1.6275389e-09 -3.3358234e-11  6.4034001      9.6051         12.8068        787.68605    
       123   0             -54.561187      228386.31      228386.31      228386.31      228386.31      1.2293219e-11  1.223514e-09   1.0472524e-11  6.4034001      9.6051         12.8068        787.68605    
       124   0             -54.561187      228386.31      228386.31      228386.31      228386.31     -5.3795181e-11  6.176178e-10  -2.4558209e-12  6.4034001      9.6051         12.8068        787.68605    
       125   0             -54.561187      228386.31      228386.31      228386.31      228386.31     -1.29848e-12    3.4675063e-10  1.8679764e-11  6.4034001      9.6051         12.8068        787.68605    
       126   0             -54.561187      228386.31      228386.31      228386.31      228386.31      2.1326123e-11  7.4627317e-11 -8.3766076e-12  6.4034001      9.6051         12.8068        787.68605    
       127   0             -54.561187      228386.31      228386.31      228386.31      228386.31     -6.3512611e-14  7.3427635e-11 -3.2172666e-11  6.4034001      9.6051         12.8068        787.68605    
       128   0             -54.561187      228386.31      228386.31      228386.31      228386.31     -8.5177468e-12 -2.9498079e-12  1.4918407e-11  6.4034001      9.6051         12.8068        787.68605    
       129   0             -54.561187      228386.31      228386.31      228386.31      228386.31      4.5947845e-11 -5.0492525e-11  1.2490813e-12  6.4034001      9.6051         12.8068        787.68605    
       130   0             -54.561187      228386.31      228386.31      228386.31      228386.31     -2.1770712e-11 -3.065542e-11  -6.6617672e-11  6.4034001      9.6051         12.8068        787.68605    
       131   0             -54.561187      228386.31      228386.31      228386.31      228386.31      7.9531902e-12 -1.7127234e-11 -5.0358443e-11  6.4034001      9.6051         12.8068        787.68605    
       132   0             -54.561187      228386.31      228386.31      228386.31      228386.31     -1.4530274e-11 -5.2390847e-11 -8.661003e-11   6.4034001      9.6051         12.8068        787.68605    
       133   0             -54.561187      228386.31      228386.31      228386.31      228386.31     -4.0154084e-11 -1.7148405e-12 -4.2235886e-11  6.4034001      9.6051         12.8068        787.68605    
       134   0             -54.561187      228386.31      228386.31      228386.31      228386.31      5.0944171e-11 -4.0584558e-11 -1.9935903e-11  6.4034001      9.6051         12.8068        787.68605    
Loop time of 0.01054 on 1 procs for 34 steps with 48 atoms

148.2% CPU use with 1 MPI tasks x 1 OpenMP threads

Minimization stats:
  Stopping criterion = force tolerance
  Energy initial, next-to-last, final = 
      -54.561187314094  -54.5611873295283  -54.5611873295286
  Force two-norm initial, final = 0.00053872694 8.1964397e-11
  Force max component initial, final = 0.00015232372 1.6520372e-11
  Final line search alpha, max atom move = 1 1.6520372e-11
  Iterations, force evaluations = 34 68

MPI task timing breakdown:
Section |  min time  |  avg time  |  max time  |%varavg| %total
---------------------------------------------------------------
Pair    | 0.009855   | 0.009855   | 0.009855   |   0.0 | 93.50
Neigh   | 0          | 0          | 0          |   0.0 |  0.00
Comm    | 0.000224   | 0.000224   | 0.000224   |   0.0 |  2.13
Output  | 0.000324   | 0.000324   | 0.000324   |   0.0 |  3.07
Modify  | 0          | 0          | 0          |   0.0 |  0.00
Other   |            | 0.000137   |            |       |  1.30

Nlocal:             48 ave          48 max          48 min
Histogram: 1 0 0 0 0 0 0 0 0 0
Nghost:           1176 ave        1176 max        1176 min
Histogram: 1 0 0 0 0 0 0 0 0 0
Neighs:           4032 ave        4032 max        4032 min
Histogram: 1 0 0 0 0 0 0 0 0 0

Total # of neighbors = 4032
Ave neighs/atom = 84
Neighbor list builds = 0
Dangerous builds = 0
OMP_NUM_THREADS environment is not set. Defaulting to 1 thread. (src/comm.cpp:98)
  using 1 OpenMP thread(s) per MPI task
Loaded 1 plugins from F:\Lammps\LAMMPS 64-bit 2Aug2023\plugins

The 'box' command has been removed and will be ignored

Reading restart file ...
  restart file = 2 Aug 2023, LAMMPS = 2 Aug 2023
  restoring atom style atomic from restart
  triclinic box = (-0.0317 -0.04755 -0.0634) to (6.3717 9.55755 12.7434) with tilt (0 0 0)
  1 by 1 by 1 MPI processor grid
  pair style eam/alloy stores no restart info
  48 atoms
  read_restart CPU = 0.000 seconds
Changing box ...
  triclinic box = (-0.0317 -0.04755 -0.0634) to (6.3717 9.5575499 12.7434) with tilt (0 0 0)
  triclinic box = (-0.0317 -0.04755 -0.0634) to (6.3717 9.5575499 12.7434) with tilt (0 0 0)
Neighbor list info ...
  update: every = 1 steps, delay = 0 steps, check = yes
  max neighbors/atom: 2000, page size: 100000
  master list distance cutoff = 8.5
  ghost atom cutoff = 8.5
  1 neighbor lists, perpetual/occasional/extra = 1 0 0
  (1) pair eam/alloy, perpetual
      attributes: half, newton on
      pair build: half/nsq/newton
      stencil: none
      bin: none
Setting up cg style minimization ...
  Unit style    : metal
  Current step  : 100
Per MPI rank memory allocation (min/avg/max) = 4.469 | 4.469 | 4.469 Mbytes
   Step          Temp          PotEng         Press           Pxx            Pyy            Pzz            Pxy            Pxz            Pyz             Lx             Ly             Lz           Volume    
       100   0             -54.561185      228386.33      228386.33      228386.33      228386.33     -6.6814785e-05  8.5328626e-05 -4.7393553e-05  6.4034         9.6050999      12.8068        787.68603    
       101   0             -54.561185      228386.33      228386.33      228386.33      228386.33     -3.1515874e-05 -4.428085e-05  -1.797688e-05   6.4034         9.6050999      12.8068        787.68603    
       102   0             -54.561185      228386.33      228386.33      228386.33      228386.33     -1.4091265e-05 -2.4665019e-06 -1.0838422e-05  6.4034         9.6050999      12.8068        787.68603    
       103   0             -54.561185      228386.33      228386.33      228386.33      228386.33     -1.5245684e-05  7.3170199e-06 -1.3477998e-06  6.4034         9.6050999      12.8068        787.68603    
       104   0             -54.561185      228386.33      228386.33      228386.33      228386.33     -4.0839844e-06  8.617051e-06  -2.7431111e-06  6.4034         9.6050999      12.8068        787.68603    
       105   0             -54.561185      228386.33      228386.33      228386.33      228386.33     -1.7578645e-06  6.0436104e-06 -1.6865976e-06  6.4034         9.6050999      12.8068        787.68603    
       106   0             -54.561185      228386.33      228386.33      228386.33      228386.33     -7.1769148e-07  3.91916e-06   -6.2380443e-07  6.4034         9.6050999      12.8068        787.68603    
       107   0             -54.561185      228386.33      228386.33      228386.33      228386.33     -5.0352405e-07  3.077043e-06  -5.4101598e-07  6.4034         9.6050999      12.8068        787.68603    
       108   0             -54.561185      228386.33      228386.33      228386.33      228386.33     -1.2704505e-07  2.2953557e-06 -4.688423e-07   6.4034         9.6050999      12.8068        787.68603    
       109   0             -54.561185      228386.33      228386.33      228386.33      228386.33      5.007539e-09   1.4914312e-06 -3.6781309e-07  6.4034         9.6050999      12.8068        787.68603    
       110   0             -54.561185      228386.33      228386.33      228386.33      228386.33     -4.8789923e-08  1.0081035e-06 -2.8216481e-07  6.4034         9.6050999      12.8068        787.68603    
       111   0             -54.561185      228386.33      228386.33      228386.33      228386.33     -2.7425473e-08  4.5200863e-07 -1.2599137e-07  6.4034         9.6050999      12.8068        787.68603    
       112   0             -54.561185      228386.33      228386.33      228386.33      228386.33      2.9893904e-09  1.0785193e-07 -2.9102869e-08  6.4034         9.6050999      12.8068        787.68603    
       113   0             -54.561185      228386.33      228386.33      228386.33      228386.33      1.4095806e-08  1.8468578e-08 -8.4183709e-09  6.4034         9.6050999      12.8068        787.68603    
       114   0             -54.561185      228386.33      228386.33      228386.33      228386.33      4.4358761e-09  1.9240299e-09 -5.0302341e-09  6.4034         9.6050999      12.8068        787.68603    
       115   0             -54.561185      228386.33      228386.33      228386.33      228386.33      1.980909e-09   1.6408907e-09 -4.2177385e-09  6.4034         9.6050999      12.8068        787.68603    
       116   0             -54.561185      228386.33      228386.33      228386.33      228386.33      1.5841245e-09  2.631758e-09  -3.095767e-09   6.4034         9.6050999      12.8068        787.68603    
       117   0             -54.561185      228386.33      228386.33      228386.33      228386.33      5.8115451e-10  3.9682186e-09 -2.1590336e-09  6.4034         9.6050999      12.8068        787.68603    
       118   0             -54.561185      228386.33      228386.33      228386.33      228386.33      2.250393e-10   4.652687e-09  -9.4495475e-10  6.4034         9.6050999      12.8068        787.68603    
       119   0             -54.561185      228386.33      228386.33      228386.33      228386.33     -2.1367054e-10  3.5043719e-09 -8.6899367e-11  6.4034         9.6050999      12.8068        787.68603    
       120   0             -54.561185      228386.33      228386.33      228386.33      228386.33     -1.2526804e-10  2.5970801e-09  8.3942502e-11  6.4034         9.6050999      12.8068        787.68603    
       121   0             -54.561185      228386.33      228386.33      228386.33      228386.33     -5.5898155e-11  2.0453954e-09  2.3704318e-11  6.4034         9.6050999      12.8068        787.68603    
       122   0             -54.561185      228386.33      228386.33      228386.33      228386.33     -2.627305e-11   1.6854554e-09 -1.8933815e-11  6.4034         9.6050999      12.8068        787.68603    
       123   0             -54.561185      228386.33      228386.33      228386.33      228386.33     -1.3238851e-11  1.192788e-09   4.612427e-11   6.4034         9.6050999      12.8068        787.68603    
       124   0             -54.561185      228386.33      228386.33      228386.33      228386.33      2.1749541e-11  5.8210014e-10 -1.2599491e-10  6.4034         9.6050999      12.8068        787.68603    
       125   0             -54.561185      228386.33      228386.33      228386.33      228386.33     -1.7988183e-11  3.1759834e-10 -7.7344247e-12  6.4034         9.6050999      12.8068        787.68603    
       126   0             -54.561185      228386.33      228386.33      228386.33      228386.33      5.3442334e-11  2.5941373e-11 -1.3038434e-10  6.4034         9.6050999      12.8068        787.68603    
       127   0             -54.561185      228386.33      228386.33      228386.33      228386.33      1.8545683e-11  2.2278813e-11 -5.5975782e-11  6.4034         9.6050999      12.8068        787.68603    
       128   0             -54.561185      228386.33      228386.33      228386.33      228386.33      2.0789795e-11 -3.436738e-12  -6.8473653e-11  6.4034         9.6050999      12.8068        787.68603    
       129   0             -54.561185      228386.33      228386.33      228386.33      228386.33     -2.1170871e-13  1.0698347e-11  1.1185277e-11  6.4034         9.6050999      12.8068        787.68603    
       130   0             -54.561185      228386.33      228386.33      228386.33      228386.33      3.0980041e-12  3.209504e-11   9.8564517e-11  6.4034         9.6050999      12.8068        787.68603    
       131   0             -54.561185      228386.33      228386.33      228386.33      228386.33      3.9963547e-11  5.1939203e-12 -7.1705739e-11  6.4034         9.6050999      12.8068        787.68603    
       132   0             -54.561185      228386.33      228386.33      228386.33      228386.33      8.5558545e-11 -3.7380701e-11  9.4774931e-12  6.4034         9.6050999      12.8068        787.68603    
       133   0             -54.561185      228386.33      228386.33      228386.33      228386.33      1.3323535e-11 -5.4585561e-11  4.5884334e-11  6.4034         9.6050999      12.8068        787.68603    
       134   0             -54.561185      228386.33      228386.33      228386.33      228386.33      9.3857526e-13 -1.1813346e-11  4.4162436e-11  6.4034         9.6050999      12.8068        787.68603    
Loop time of 0.009949 on 1 procs for 34 steps with 48 atoms

157.1% CPU use with 1 MPI tasks x 1 OpenMP threads

Minimization stats:
  Stopping criterion = force tolerance
  Energy initial, next-to-last, final = 
     -54.5611850684392  -54.5611850838744  -54.5611850838744
  Force two-norm initial, final = 0.00053872714 8.1975018e-11
  Force max component initial, final = 0.00015232379 1.6538624e-11
  Final line search alpha, max atom move = 1 1.6538624e-11
  Iterations, force evaluations = 34 68

MPI task timing breakdown:
Section |  min time  |  avg time  |  max time  |%varavg| %total
---------------------------------------------------------------
Pair    | 0.009293   | 0.009293   | 0.009293   |   0.0 | 93.41
Neigh   | 0          | 0          | 0          |   0.0 |  0.00
Comm    | 0.000223   | 0.000223   | 0.000223   |   0.0 |  2.24
Output  | 0.000294   | 0.000294   | 0.000294   |   0.0 |  2.96
Modify  | 0          | 0          | 0          |   0.0 |  0.00
Other   |            | 0.000139   |            |       |  1.40

Nlocal:             48 ave          48 max          48 min
Histogram: 1 0 0 0 0 0 0 0 0 0
Nghost:           1176 ave        1176 max        1176 min
Histogram: 1 0 0 0 0 0 0 0 0 0
Neighs:           4032 ave        4032 max        4032 min
Histogram: 1 0 0 0 0 0 0 0 0 0

Total # of neighbors = 4032
Ave neighs/atom = 84
Neighbor list builds = 0
Dangerous builds = 0
OMP_NUM_THREADS environment is not set. Defaulting to 1 thread. (src/comm.cpp:98)
  using 1 OpenMP thread(s) per MPI task
Loaded 1 plugins from F:\Lammps\LAMMPS 64-bit 2Aug2023\plugins

The 'box' command has been removed and will be ignored

Reading restart file ...
  restart file = 2 Aug 2023, LAMMPS = 2 Aug 2023
  restoring atom style atomic from restart
  triclinic box = (-0.0317 -0.04755 -0.0634) to (6.3717 9.55755 12.7434) with tilt (0 0 0)
  1 by 1 by 1 MPI processor grid
  pair style eam/alloy stores no restart info
  48 atoms
  read_restart CPU = 0.000 seconds
Changing box ...
  triclinic box = (-0.0317 -0.04755 -0.0634) to (6.3717 9.5575501 12.7434) with tilt (0 0 0)
  triclinic box = (-0.0317 -0.04755 -0.0634) to (6.3717 9.5575501 12.7434) with tilt (0 0 0)
Neighbor list info ...
  update: every = 1 steps, delay = 0 steps, check = yes
  max neighbors/atom: 2000, page size: 100000
  master list distance cutoff = 8.5
  ghost atom cutoff = 8.5
  1 neighbor lists, perpetual/occasional/extra = 1 0 0
  (1) pair eam/alloy, perpetual
      attributes: half, newton on
      pair build: half/nsq/newton
      stencil: none
      bin: none
Setting up cg style minimization ...
  Unit style    : metal
  Current step  : 100
Per MPI rank memory allocation (min/avg/max) = 4.469 | 4.469 | 4.469 Mbytes
   Step          Temp          PotEng         Press           Pxx            Pyy            Pzz            Pxy            Pxz            Pyz             Lx             Ly             Lz           Volume    
       100   0             -54.561187      228386.31      228386.31      228386.31      228386.31     -6.6849193e-05  8.4991714e-05 -4.7471425e-05  6.4034         9.6051001      12.8068        787.68605    
       101   0             -54.561187      228386.31      228386.31      228386.31      228386.31     -3.1531167e-05 -4.4128409e-05 -1.796337e-05   6.4034         9.6051001      12.8068        787.68605    
       102   0             -54.561187      228386.31      228386.31      228386.31      228386.31     -1.4317944e-05 -2.2396913e-06 -1.0728611e-05  6.4034         9.6051001      12.8068        787.68605    
       103   0             -54.561187      228386.31      228386.31      228386.31      228386.31     -1.5187121e-05  7.3755119e-06 -1.4062551e-06  6.4034         9.6051001      12.8068        787.68605    
       104   0             -54.561187      228386.31      228386.31      228386.31      228386.31     -4.0839644e-06  8.6169782e-06 -2.7430366e-06  6.4034         9.6051001      12.8068        787.68605    
       105   0             -54.561187      228386.31      228386.31      228386.31      228386.31     -1.7578242e-06  6.043649e-06  -1.6865479e-06  6.4034         9.6051001      12.8068        787.68605    
       106   0             -54.561187      228386.31      228386.31      228386.31      228386.31     -7.1766249e-07  3.9191876e-06 -6.2385425e-07  6.4034         9.6051001      12.8068        787.68605    
       107   0             -54.561187      228386.31      228386.31      228386.31      228386.31     -5.0348436e-07  3.0769967e-06 -5.4106187e-07  6.4034         9.6051001      12.8068        787.68605    
       108   0             -54.561187      228386.31      228386.31      228386.31      228386.31     -1.2705323e-07  2.2952116e-06 -4.6870008e-07  6.4034         9.6051001      12.8068        787.68605    
       109   0             -54.561187      228386.31      228386.31      228386.31      228386.31      4.9893813e-09  1.4914855e-06 -3.6780053e-07  6.4034         9.6051001      12.8068        787.68605    
       110   0             -54.561187      228386.31      228386.31      228386.31      228386.31     -4.8798242e-08  1.0080578e-06 -2.8219798e-07  6.4034         9.6051001      12.8068        787.68605    
       111   0             -54.561187      228386.31      228386.31      228386.31      228386.31     -2.7453157e-08  4.5204564e-07 -1.2610681e-07  6.4034         9.6051001      12.8068        787.68605    
       112   0             -54.561187      228386.31      228386.31      228386.31      228386.31      2.9996724e-09  1.0787811e-07 -2.9126453e-08  6.4034         9.6051001      12.8068        787.68605    
       113   0             -54.561187      228386.31      228386.31      228386.31      228386.31      1.4177899e-08  1.8415538e-08 -8.4752992e-09  6.4034         9.6051001      12.8068        787.68605    
       114   0             -54.561187      228386.31      228386.31      228386.31      228386.31      4.4083891e-09  1.9176927e-09 -5.0663374e-09  6.4034         9.6051001      12.8068        787.68605    
       115   0             -54.561187      228386.31      228386.31      228386.31      228386.31      1.9736332e-09  1.7408242e-09 -4.0987158e-09  6.4034         9.6051001      12.8068        787.68605    
       116   0             -54.561187      228386.31      228386.31      228386.31      228386.31      1.6154856e-09  2.6284553e-09 -3.0555917e-09  6.4034         9.6051001      12.8068        787.68605    
       117   0             -54.561187      228386.31      228386.31      228386.31      228386.31      5.515788e-10   3.9634268e-09 -2.1537691e-09  6.4034         9.6051001      12.8068        787.68605    
       118   0             -54.561187      228386.31      228386.31      228386.31      228386.31      1.2616427e-10  4.644402e-09  -9.14137e-10    6.4034         9.6051001      12.8068        787.68605    
       119   0             -54.561187      228386.31      228386.31      228386.31      228386.31     -2.4210301e-10  3.4499838e-09 -7.8254593e-11  6.4034         9.6051001      12.8068        787.68605    
       120   0             -54.561187      228386.31      228386.31      228386.31      228386.31     -1.4054635e-10  2.5994512e-09  6.8770043e-11  6.4034         9.6051001      12.8068        787.68605    
       121   0             -54.561187      228386.31      228386.31      228386.31      228386.31      2.766327e-12   2.0639129e-09 -1.8009354e-11  6.4034         9.6051001      12.8068        787.68605    
       122   0             -54.561187      228386.31      228386.31      228386.31      228386.31      1.1467555e-11  1.6500859e-09 -7.2143269e-11  6.4034         9.6051001      12.8068        787.68605    
       123   0             -54.561187      228386.31      228386.31      228386.31      228386.31     -2.4388842e-11  1.1986947e-09 -2.1947135e-11  6.4034         9.6051001      12.8068        787.68605    
       124   0             -54.561187      228386.31      228386.31      228386.31      228386.31     -1.4904293e-11  5.5261617e-10 -1.6710874e-11  6.4034         9.6051001      12.8068        787.68605    
       125   0             -54.561187      228386.31      228386.31      228386.31      228386.31     -5.8572741e-13  3.2786621e-10  2.6287164e-11  6.4034         9.6051001      12.8068        787.68605    
       126   0             -54.561187      228386.31      228386.31      228386.31      228386.31      7.5368298e-12  9.4718473e-11  5.9659512e-11  6.4034         9.6051001      12.8068        787.68605    
       127   0             -54.561187      228386.31      228386.31      228386.31      228386.31      6.6970519e-12 -1.2554326e-11 -6.0696885e-11  6.4034         9.6051001      12.8068        787.68605    
       128   0             -54.561187      228386.31      228386.31      228386.31      228386.31     -6.9080549e-11  1.7409512e-11  9.3723442e-11  6.4034         9.6051001      12.8068        787.68605    
       129   0             -54.561187      228386.31      228386.31      228386.31      228386.31      1.8030524e-11 -2.604017e-12   2.9999123e-11  6.4034         9.6051001      12.8068        787.68605    
       130   0             -54.561187      228386.31      228386.31      228386.31      228386.31      3.5771714e-11 -1.646388e-11  -1.9463087e-11  6.4034         9.6051001      12.8068        787.68605    
       131   0             -54.561187      228386.31      228386.31      228386.31      228386.31     -7.988475e-12  -3.6696175e-13 -3.3555829e-11  6.4034         9.6051001      12.8068        787.68605    
       132   0             -54.561187      228386.31      228386.31      228386.31      228386.31     -4.5319776e-11 -2.4459412e-11  8.9326958e-11  6.4034         9.6051001      12.8068        787.68605    
       133   0             -54.561187      228386.31      228386.31      228386.31      228386.31      1.7282487e-11 -4.1643102e-11  1.3423743e-10  6.4034         9.6051001      12.8068        787.68605    
       134   0             -54.561187      228386.31      228386.31      228386.31      228386.31     -1.987239e-11   1.2363788e-11  1.4449825e-10  6.4034         9.6051001      12.8068        787.68605    
Loop time of 0.00987 on 1 procs for 34 steps with 48 atoms

158.3% CPU use with 1 MPI tasks x 1 OpenMP threads

Minimization stats:
  Stopping criterion = force tolerance
  Energy initial, next-to-last, final = 
     -54.5611873140937  -54.5611873295284  -54.5611873295279
  Force two-norm initial, final = 0.00053872695 8.1964988e-11
  Force max component initial, final = 0.00015232372 1.6526869e-11
  Final line search alpha, max atom move = 1 1.6526869e-11
  Iterations, force evaluations = 34 68

MPI task timing breakdown:
Section |  min time  |  avg time  |  max time  |%varavg| %total
---------------------------------------------------------------
Pair    | 0.009243   | 0.009243   | 0.009243   |   0.0 | 93.65
Neigh   | 0          | 0          | 0          |   0.0 |  0.00
Comm    | 0.00022    | 0.00022    | 0.00022    |   0.0 |  2.23
Output  | 0.000293   | 0.000293   | 0.000293   |   0.0 |  2.97
Modify  | 0          | 0          | 0          |   0.0 |  0.00
Other   |            | 0.000114   |            |       |  1.16

Nlocal:             48 ave          48 max          48 min
Histogram: 1 0 0 0 0 0 0 0 0 0
Nghost:           1176 ave        1176 max        1176 min
Histogram: 1 0 0 0 0 0 0 0 0 0
Neighs:           4032 ave        4032 max        4032 min
Histogram: 1 0 0 0 0 0 0 0 0 0

Total # of neighbors = 4032
Ave neighs/atom = 84
Neighbor list builds = 0
Dangerous builds = 0
OMP_NUM_THREADS environment is not set. Defaulting to 1 thread. (src/comm.cpp:98)
  using 1 OpenMP thread(s) per MPI task
Loaded 1 plugins from F:\Lammps\LAMMPS 64-bit 2Aug2023\plugins

The 'box' command has been removed and will be ignored

Reading restart file ...
  restart file = 2 Aug 2023, LAMMPS = 2 Aug 2023
  restoring atom style atomic from restart
  triclinic box = (-0.0317 -0.04755 -0.0634) to (6.3717 9.55755 12.7434) with tilt (0 0 0)
  1 by 1 by 1 MPI processor grid
  pair style eam/alloy stores no restart info
  48 atoms
  read_restart CPU = 0.000 seconds
Changing box ...
  triclinic box = (-0.0317 -0.04755 -0.0634) to (6.3717 9.55755 12.7434) with tilt (0 0 0)
Neighbor list info ...
  update: every = 1 steps, delay = 0 steps, check = yes
  max neighbors/atom: 2000, page size: 100000
  master list distance cutoff = 8.5
  ghost atom cutoff = 8.5
  1 neighbor lists, perpetual/occasional/extra = 1 0 0
  (1) pair eam/alloy, perpetual
      attributes: half, newton on
      pair build: half/nsq/newton
      stencil: none
      bin: none
Setting up cg style minimization ...
  Unit style    : metal
  Current step  : 100
Per MPI rank memory allocation (min/avg/max) = 4.469 | 4.469 | 4.469 Mbytes
   Step          Temp          PotEng         Press           Pxx            Pyy            Pzz            Pxy            Pxz            Pyz             Lx             Ly             Lz           Volume    
       100   0             -54.561185      228386.33      228386.33      228386.33      228386.33     -6.6814812e-05  8.5328652e-05 -4.7393486e-05  6.4034         9.6051         12.8068        787.68603    
       101   0             -54.561185      228386.33      228386.33      228386.33      228386.33     -3.1515899e-05 -4.4280889e-05 -1.7976865e-05  6.4034         9.6051         12.8068        787.68603    
       102   0             -54.561185      228386.33      228386.33      228386.33      228386.33     -1.409121e-05  -2.4664403e-06 -1.083829e-05   6.4034         9.6051         12.8068        787.68603    
       103   0             -54.561185      228386.33      228386.33      228386.33      228386.33     -1.524567e-05   7.3170119e-06 -1.347802e-06   6.4034         9.6051         12.8068        787.68603    
       104   0             -54.561185      228386.33      228386.33      228386.33      228386.33     -4.0840273e-06  8.6169647e-06 -2.7431617e-06  6.4034         9.6051         12.8068        787.68603    
       105   0             -54.561185      228386.33      228386.33      228386.33      228386.33     -1.7578793e-06  6.0436097e-06 -1.6863891e-06  6.4034         9.6051         12.8068        787.68603    
       106   0             -54.561185      228386.33      228386.33      228386.33      228386.33     -7.177099e-07   3.9191616e-06 -6.2389304e-07  6.4034         9.6051         12.8068        787.68603    
       107   0             -54.561185      228386.33      228386.33      228386.33      228386.33     -5.0353618e-07  3.0770671e-06 -5.4109961e-07  6.4034         9.6051         12.8068        787.68603    
       108   0             -54.561185      228386.33      228386.33      228386.33      228386.33     -1.2707749e-07  2.2953173e-06 -4.688176e-07   6.4034         9.6051         12.8068        787.68603    
       109   0             -54.561185      228386.33      228386.33      228386.33      228386.33      5.0128035e-09  1.4914743e-06 -3.6794032e-07  6.4034         9.6051         12.8068        787.68603    
       110   0             -54.561185      228386.33      228386.33      228386.33      228386.33     -4.8801553e-08  1.0080947e-06 -2.8216889e-07  6.4034         9.6051         12.8068        787.68603    
       111   0             -54.561185      228386.33      228386.33      228386.33      228386.33     -2.7443101e-08  4.5201957e-07 -1.2607323e-07  6.4034         9.6051         12.8068        787.68603    
       112   0             -54.561185      228386.33      228386.33      228386.33      228386.33      3.0074563e-09  1.0787844e-07 -2.9109171e-08  6.4034         9.6051         12.8068        787.68603    
       113   0             -54.561185      228386.33      228386.33      228386.33      228386.33      1.4086801e-08  1.8479495e-08 -8.3731711e-09  6.4034         9.6051         12.8068        787.68603    
       114   0             -54.561185      228386.33      228386.33      228386.33      228386.33      4.401791e-09   1.9761808e-09 -5.0793929e-09  6.4034         9.6051         12.8068        787.68603    
       115   0             -54.561185      228386.33      228386.33      228386.33      228386.33      2.0433277e-09  1.6595281e-09 -4.0817933e-09  6.4034         9.6051         12.8068        787.68603    
       116   0             -54.561185      228386.33      228386.33      228386.33      228386.33      1.599798e-09   2.6590755e-09 -3.0776306e-09  6.4034         9.6051         12.8068        787.68603    
       117   0             -54.561185      228386.33      228386.33      228386.33      228386.33      5.3833996e-10  3.8945651e-09 -2.1334169e-09  6.4034         9.6051         12.8068        787.68603    
       118   0             -54.561185      228386.33      228386.33      228386.33      228386.33      1.1092125e-10  4.6109592e-09 -9.8869377e-10  6.4034         9.6051         12.8068        787.68603    
       119   0             -54.561185      228386.33      228386.33      228386.33      228386.33     -2.1081247e-10  3.4887901e-09 -1.0104151e-10  6.4034         9.6051         12.8068        787.68603    
       120   0             -54.561185      228386.33      228386.33      228386.33      228386.33     -7.9764784e-11  2.4757569e-09  1.0565676e-10  6.4034         9.6051         12.8068        787.68603    
       121   0             -54.561185      228386.33      228386.33      228386.33      228386.33      2.1608402e-11  2.0520431e-09 -7.8240481e-11  6.4034         9.6051         12.8068        787.68603    
       122   0             -54.561185      228386.33      228386.33      228386.33      228386.33     -1.1213504e-11  1.623954e-09  -3.4755513e-11  6.4034         9.6051         12.8068        787.68603    
       123   0             -54.561185      228386.33      228386.33      228386.33      228386.33     -1.1876858e-11  1.1385624e-09 -1.2676412e-10  6.4034         9.6051         12.8068        787.68603    
       124   0             -54.561185      228386.33      228386.33      228386.33      228386.33     -9.2375566e-12  6.201936e-10  -3.8093453e-11  6.4034         9.6051         12.8068        787.68603    
       125   0             -54.561185      228386.33      228386.33      228386.33      228386.33     -4.1480793e-11  3.4394196e-10 -2.675998e-11   6.4034         9.6051         12.8068        787.68603    
       126   0             -54.561185      228386.33      228386.33      228386.33      228386.33     -2.8248998e-11  5.7119009e-11  5.04149e-11    6.4034         9.6051         12.8068        787.68603    
       127   0             -54.561185      228386.33      228386.33      228386.33      228386.33      3.7211334e-11  2.7522132e-13  2.634362e-11   6.4034         9.6051         12.8068        787.68603    
       128   0             -54.561185      228386.33      228386.33      228386.33      228386.33     -2.7444505e-11  1.7106063e-11 -2.8884124e-11  6.4034         9.6051         12.8068        787.68603    
       129   0             -54.561185      228386.33      228386.33      228386.33      228386.33     -2.0902706e-11  1.4120971e-11 -4.1177343e-11  6.4034         9.6051         12.8068        787.68603    
       130   0             -54.561185      228386.33      228386.33      228386.33      228386.33     -3.5440037e-11  3.9243737e-11 -5.1649867e-11  6.4034         9.6051         12.8068        787.68603    
       131   0             -54.561185      228386.33      228386.33      228386.33      228386.33     -2.527802e-11   4.0506932e-12 -5.0563096e-11  6.4034         9.6051         12.8068        787.68603    
       132   0             -54.561185      228386.33      228386.33      228386.33      228386.33     -3.6604435e-11  2.3633749e-11  8.2714592e-11  6.4034         9.6051         12.8068        787.68603    
       133   0             -54.561185      228386.33      228386.33      228386.33      228386.33     -5.9962963e-11 -1.0197303e-11 -2.1749541e-11  6.4034         9.6051         12.8068        787.68603    
       134   0             -54.561185      228386.33      228386.33      228386.33      228386.33      1.8891474e-11 -1.0027936e-11  9.9884168e-11  6.4034         9.6051         12.8068        787.68603    
Loop time of 0.01002 on 1 procs for 34 steps with 48 atoms

155.9% CPU use with 1 MPI tasks x 1 OpenMP threads

Minimization stats:
  Stopping criterion = force tolerance
  Energy initial, next-to-last, final = 
     -54.5611850684399  -54.5611850838747  -54.5611850838744
  Force two-norm initial, final = 0.00053872715 8.1982489e-11
  Force max component initial, final = 0.00015232378 1.6532488e-11
  Final line search alpha, max atom move = 1 1.6532488e-11
  Iterations, force evaluations = 34 68

MPI task timing breakdown:
Section |  min time  |  avg time  |  max time  |%varavg| %total
---------------------------------------------------------------
Pair    | 0.00932    | 0.00932    | 0.00932    |   0.0 | 93.01
Neigh   | 0          | 0          | 0          |   0.0 |  0.00
Comm    | 0.000215   | 0.000215   | 0.000215   |   0.0 |  2.15
Output  | 0.000323   | 0.000323   | 0.000323   |   0.0 |  3.22
Modify  | 0          | 0          | 0          |   0.0 |  0.00
Other   |            | 0.000162   |            |       |  1.62

Nlocal:             48 ave          48 max          48 min
Histogram: 1 0 0 0 0 0 0 0 0 0
Nghost:           1176 ave        1176 max        1176 min
Histogram: 1 0 0 0 0 0 0 0 0 0
Neighs:           4032 ave        4032 max        4032 min
Histogram: 1 0 0 0 0 0 0 0 0 0

Total # of neighbors = 4032
Ave neighs/atom = 84
Neighbor list builds = 0
Dangerous builds = 0
OMP_NUM_THREADS environment is not set. Defaulting to 1 thread. (src/comm.cpp:98)
  using 1 OpenMP thread(s) per MPI task
Loaded 1 plugins from F:\Lammps\LAMMPS 64-bit 2Aug2023\plugins

The 'box' command has been removed and will be ignored

Reading restart file ...
  restart file = 2 Aug 2023, LAMMPS = 2 Aug 2023
  restoring atom style atomic from restart
  triclinic box = (-0.0317 -0.04755 -0.0634) to (6.3717 9.55755 12.7434) with tilt (0 0 0)
  1 by 1 by 1 MPI processor grid
  pair style eam/alloy stores no restart info
  48 atoms
  read_restart CPU = 0.000 seconds
Changing box ...
  triclinic box = (-0.0317 -0.04755 -0.0634) to (6.3717 9.55755 12.7434) with tilt (0 0 0)
Neighbor list info ...
  update: every = 1 steps, delay = 0 steps, check = yes
  max neighbors/atom: 2000, page size: 100000
  master list distance cutoff = 8.5
  ghost atom cutoff = 8.5
  1 neighbor lists, perpetual/occasional/extra = 1 0 0
  (1) pair eam/alloy, perpetual
      attributes: half, newton on
      pair build: half/nsq/newton
      stencil: none
      bin: none
Setting up cg style minimization ...
  Unit style    : metal
  Current step  : 100
Per MPI rank memory allocation (min/avg/max) = 4.469 | 4.469 | 4.469 Mbytes
   Step          Temp          PotEng         Press           Pxx            Pyy            Pzz            Pxy            Pxz            Pyz             Lx             Ly             Lz           Volume    
       100   0             -54.561187      228386.31      228386.31      228386.31      228386.31     -6.6849174e-05  8.499163e-05  -4.7471461e-05  6.4034         9.6051         12.8068        787.68605    
       101   0             -54.561187      228386.31      228386.31      228386.31      228386.31     -3.1531242e-05 -4.4128454e-05 -1.7963434e-05  6.4034         9.6051         12.8068        787.68605    
       102   0             -54.561187      228386.31      228386.31      228386.31      228386.31     -1.4317983e-05 -2.2396664e-06 -1.0728464e-05  6.4034         9.6051         12.8068        787.68605    
       103   0             -54.561187      228386.31      228386.31      228386.31      228386.31     -1.5187152e-05  7.3755622e-06 -1.4063123e-06  6.4034         9.6051         12.8068        787.68605    
       104   0             -54.561187      228386.31      228386.31      228386.31      228386.31     -4.0840166e-06  8.6169367e-06 -2.7430055e-06  6.4034         9.6051         12.8068        787.68605    
       105   0             -54.561187      228386.31      228386.31      228386.31      228386.31     -1.7578417e-06  6.0435746e-06 -1.686528e-06   6.4034         9.6051         12.8068        787.68605    
       106   0             -54.561187      228386.31      228386.31      228386.31      228386.31     -7.177159e-07   3.9191945e-06 -6.2379397e-07  6.4034         9.6051         12.8068        787.68605    
       107   0             -54.561187      228386.31      228386.31      228386.31      228386.31     -5.0359087e-07  3.0771198e-06 -5.4115692e-07  6.4034         9.6051         12.8068        787.68605    
       108   0             -54.561187      228386.31      228386.31      228386.31      228386.31     -1.2700684e-07  2.2952276e-06 -4.6870439e-07  6.4034         9.6051         12.8068        787.68605    
       109   0             -54.561187      228386.31      228386.31      228386.31      228386.31      4.9556491e-09  1.4914243e-06 -3.6788462e-07  6.4034         9.6051         12.8068        787.68605    
       110   0             -54.561187      228386.31      228386.31      228386.31      228386.31     -4.8810105e-08  1.0080239e-06 -2.8222016e-07  6.4034         9.6051         12.8068        787.68605    
       111   0             -54.561187      228386.31      228386.31      228386.31      228386.31     -2.7388282e-08  4.5195962e-07 -1.2603153e-07  6.4034         9.6051         12.8068        787.68605    
       112   0             -54.561187      228386.31      228386.31      228386.31      228386.31      3.0151412e-09  1.0786139e-07 -2.9202964e-08  6.4034         9.6051         12.8068        787.68605    
       113   0             -54.561187      228386.31      228386.31      228386.31      228386.31      1.4136714e-08  1.8449002e-08 -8.5072601e-09  6.4034         9.6051         12.8068        787.68605    
       114   0             -54.561187      228386.31      228386.31      228386.31      228386.31      4.3836827e-09  1.9446503e-09 -4.8951074e-09  6.4034         9.6051         12.8068        787.68605    
       115   0             -54.561187      228386.31      228386.31      228386.31      228386.31      2.0235471e-09  1.7091173e-09 -4.1298863e-09  6.4034         9.6051         12.8068        787.68605    
       116   0             -54.561187      228386.31      228386.31      228386.31      228386.31      1.5556497e-09  2.6300572e-09 -3.074829e-09   6.4034         9.6051         12.8068        787.68605    
       117   0             -54.561187      228386.31      228386.31      228386.31      228386.31      5.3325188e-10  3.8593297e-09 -2.2758191e-09  6.4034         9.6051         12.8068        787.68605    
[...]
       101   0             -54.561186      228386.32      228386.32      228386.32      228386.32      0.0018894963  -4.4211431e-05 -1.8046361e-05  6.4034         9.6051         12.8068        787.68604    
       102   0             -54.561186      228386.32      228386.32      228386.32      228386.32      0.0019057033  -2.4080327e-06 -1.0896877e-05  6.4034         9.6051         12.8068        787.68604    
       103   0             -54.561186      228386.32      228386.32      228386.32      228386.32      0.0019045489   7.3755737e-06 -1.4063161e-06  6.4034         9.6051         12.8068        787.68604    
       104   0             -54.561186      228386.32      228386.32      228386.32      228386.32      0.001915652    8.6169381e-06 -2.7430782e-06  6.4034         9.6051         12.8068        787.68604    
       105   0             -54.561186      228386.32      228386.32      228386.32      228386.32      0.0019179782   6.0436407e-06 -1.6864933e-06  6.4034         9.6051         12.8068        787.68604    
       106   0             -54.561186      228386.32      228386.32      228386.32      228386.32      0.0019190184   3.9191652e-06 -6.2385075e-07  6.4034         9.6051         12.8068        787.68604    
       107   0             -54.561186      228386.32      228386.32      228386.32      228386.32      0.0019192326   3.0770605e-06 -5.4104056e-07  6.4034         9.6051         12.8068        787.68604    
       108   0             -54.561186      228386.32      228386.32      228386.32      228386.32      0.0019196091   2.2952551e-06 -4.6872697e-07  6.4034         9.6051         12.8068        787.68604    
       109   0             -54.561186      228386.32      228386.32      228386.32      228386.32      0.0019197411   1.4914389e-06 -3.6795752e-07  6.4034         9.6051         12.8068        787.68604    
       110   0             -54.561186      228386.32      228386.32      228386.32      228386.32      0.0019196873   1.0080962e-06 -2.8228631e-07  6.4034         9.6051         12.8068        787.68604    
       111   0             -54.561186      228386.32      228386.32      228386.32      228386.32      0.0019197087   4.5205244e-07 -1.2605895e-07  6.4034         9.6051         12.8068        787.68604    
       112   0             -54.561186      228386.32      228386.32      228386.32      228386.32      0.0019197391   1.0786765e-07 -2.9309228e-08  6.4034         9.6051         12.8068        787.68604    
       113   0             -54.561186      228386.32      228386.32      228386.32      228386.32      0.0019197502   1.8447795e-08 -8.500916e-09   6.4034         9.6051         12.8068        787.68604    
       114   0             -54.561186      228386.32      228386.32      228386.32      228386.32      0.0019197405   1.9055406e-09 -4.9271108e-09  6.4034         9.6051         12.8068        787.68604    
       115   0             -54.561186      228386.32      228386.32      228386.32      228386.32      0.0019197381   1.6752863e-09 -4.1984941e-09  6.4034         9.6051         12.8068        787.68604    
       116   0             -54.561186      228386.32      228386.32      228386.32      228386.32      0.0019197377   2.678602e-09  -3.1364433e-09  6.4034         9.6051         12.8068        787.68604    
       117   0             -54.561186      228386.32      228386.32      228386.32      228386.32      0.0019197367   3.922186e-09  -2.1579609e-09  6.4034         9.6051         12.8068        787.68604    
       118   0             -54.561186      228386.32      228386.32      228386.32      228386.32      0.0019197362   4.6603719e-09 -9.5669046e-10  6.4034         9.6051         12.8068        787.68604    
       119   0             -54.561186      228386.32      228386.32      228386.32      228386.32      0.0019197358   3.5090718e-09 -3.527067e-11   6.4034         9.6051         12.8068        787.68604    
       120   0             -54.561186      228386.32      228386.32      228386.32      228386.32      0.0019197359   2.5760221e-09 -9.9559547e-11  6.4034         9.6051         12.8068        787.68604    
       121   0             -54.561186      228386.32      228386.32      228386.32      228386.32      0.001919736    2.0391571e-09 -1.7552063e-10  6.4034         9.6051         12.8068        787.68604    
       122   0             -54.561186      228386.32      228386.32      228386.32      228386.32      0.0019197361   1.706845e-09  -3.5814056e-11  6.4034         9.6051         12.8068        787.68604    
       123   0             -54.561186      228386.32      228386.32      228386.32      228386.32      0.0019197361   1.1811229e-09 -1.5948722e-11  6.4034         9.6051         12.8068        787.68604    
       124   0             -54.561186      228386.32      228386.32      228386.32      228386.32      0.0019197361   6.7767251e-10  6.3936029e-11  6.4034         9.6051         12.8068        787.68604    
       125   0             -54.561186      228386.32      228386.32      228386.32      228386.32      0.0019197361   3.3422453e-10 -1.0504986e-10  6.4034         9.6051         12.8068        787.68604    
       126   0             -54.561186      228386.32      228386.32      228386.32      228386.32      0.0019197361   8.6666487e-11  3.5849341e-12  6.4034         9.6051         12.8068        787.68604    
       127   0             -54.561186      228386.32      228386.32      228386.32      228386.32      0.0019197361  -1.9914732e-11 -5.7958786e-11  6.4034         9.6051         12.8068        787.68604    
       128   0             -54.561186      228386.32      228386.32      228386.32      228386.32      0.0019197361  -1.5835811e-11  1.6682646e-11  6.4034         9.6051         12.8068        787.68604    
       129   0             -54.561186      228386.32      228386.32      228386.32      228386.32      0.0019197361   8.983506e-12   2.1784826e-11  6.4034         9.6051         12.8068        787.68604    
       130   0             -54.561186      228386.32      228386.32      228386.32      228386.32      0.0019197361  -1.0176132e-11  4.9638634e-11  6.4034         9.6051         12.8068        787.68604    
       131   0             -54.561186      228386.32      228386.32      228386.32      228386.32      0.0019197361   3.8601554e-11 -4.8368382e-11  6.4034         9.6051         12.8068        787.68604    
       132   0             -54.561186      228386.32      228386.32      228386.32      228386.32      0.0019197361  -2.0465175e-13 -3.5658803e-11  6.4034         9.6051         12.8068        787.68604    
       133   0             -54.561186      228386.32      228386.32      228386.32      228386.32      0.0019197361  -3.0697762e-12  9.5127778e-12  6.4034         9.6051         12.8068        787.68604    
       134   0             -54.561186      228386.32      228386.32      228386.32      228386.32      0.0019197361  -2.082508e-11  -4.6244238e-11  6.4034         9.6051         12.8068        787.68604    
Loop time of 0.010315 on 1 procs for 34 steps with 48 atoms

151.5% CPU use with 1 MPI tasks x 1 OpenMP threads

Minimization stats:
  Stopping criterion = force tolerance
  Energy initial, next-to-last, final = 
      -54.561186191266  -54.5611862067014  -54.5611862067007
  Force two-norm initial, final = 0.00053872704 8.1979524e-11
  Force max component initial, final = 0.00015232376 1.6501544e-11
  Final line search alpha, max atom move = 1 1.6501544e-11
  Iterations, force evaluations = 34 68

MPI task timing breakdown:
Section |  min time  |  avg time  |  max time  |%varavg| %total
---------------------------------------------------------------
Pair    | 0.009511   | 0.009511   | 0.009511   |   0.0 | 92.21
Neigh   | 0          | 0          | 0          |   0.0 |  0.00
Comm    | 0.000272   | 0.000272   | 0.000272   |   0.0 |  2.64
Output  | 0.000412   | 0.000412   | 0.000412   |   0.0 |  3.99
Modify  | 0          | 0          | 0          |   0.0 |  0.00
Other   |            | 0.00012    |            |       |  1.16

Nlocal:             48 ave          48 max          48 min
Histogram: 1 0 0 0 0 0 0 0 0 0
Nghost:           1176 ave        1176 max        1176 min
Histogram: 1 0 0 0 0 0 0 0 0 0
Neighs:           4032 ave        4032 max        4032 min
Histogram: 1 0 0 0 0 0 0 0 0 0

Total # of neighbors = 4032
Ave neighs/atom = 84
Neighbor list builds = 0
Dangerous builds = 0
OMP_NUM_THREADS environment is not set. Defaulting to 1 thread. (src/comm.cpp:98)
  using 1 OpenMP thread(s) per MPI task
Loaded 1 plugins from F:\Lammps\LAMMPS 64-bit 2Aug2023\plugins

The 'box' command has been removed and will be ignored

Reading restart file ...
  restart file = 2 Aug 2023, LAMMPS = 2 Aug 2023
  restoring atom style atomic from restart
  triclinic box = (-0.0317 -0.04755 -0.0634) to (6.3717 9.55755 12.7434) with tilt (0 0 0)
  1 by 1 by 1 MPI processor grid
  pair style eam/alloy stores no restart info
  48 atoms
  read_restart CPU = 0.000 seconds
Changing box ...
  triclinic box = (-0.0317 -0.04755 -0.0634) to (6.3717 9.55755 12.7434) with tilt (9.6051e-08 0 0)
Neighbor list info ...
  update: every = 1 steps, delay = 0 steps, check = yes
  max neighbors/atom: 2000, page size: 100000
  master list distance cutoff = 8.5
  ghost atom cutoff = 8.5
  1 neighbor lists, perpetual/occasional/extra = 1 0 0
  (1) pair eam/alloy, perpetual
      attributes: half, newton on
      pair build: half/nsq/newton
      stencil: none
      bin: none
Setting up cg style minimization ...
  Unit style    : metal
  Current step  : 100
Per MPI rank memory allocation (min/avg/max) = 4.469 | 4.469 | 4.469 Mbytes
   Step          Temp          PotEng         Press           Pxx            Pyy            Pzz            Pxy            Pxz            Pyz             Lx             Ly             Lz           Volume    
       100   0             -54.561186      228386.32      228386.32      228386.32      228386.32     -0.0019894151   8.5121226e-05 -4.7600864e-05  6.4034         9.6051         12.8068        787.68604    
       101   0             -54.561186      228386.32      228386.32      228386.32      228386.32     -0.0019525434  -4.419784e-05  -1.7893939e-05  6.4034         9.6051         12.8068        787.68604    
       102   0             -54.561186      228386.32      228386.32      228386.32      228386.32     -0.0019341125  -2.2982252e-06 -1.0670043e-05  6.4034         9.6051         12.8068        787.68604    
       103   0             -54.561186      228386.32      228386.32      228386.32      228386.32     -0.0019349817   7.3169777e-06 -1.3477897e-06  6.4034         9.6051         12.8068        787.68604    
       104   0             -54.561186      228386.32      228386.32      228386.32      228386.32     -0.0019238201   8.616971e-06  -2.7431295e-06  6.4034         9.6051         12.8068        787.68604    
       105   0             -54.561186      228386.32      228386.32      228386.32      228386.32     -0.0019214939   6.0435476e-06 -1.6865533e-06  6.4034         9.6051         12.8068        787.68604    
       106   0             -54.561186      228386.32      228386.32      228386.32      228386.32     -0.0019204537   3.9192052e-06 -6.2378201e-07  6.4034         9.6051         12.8068        787.68604    
       107   0             -54.561186      228386.32      228386.32      228386.32      228386.32     -0.0019202397   3.0770665e-06 -5.4108745e-07  6.4034         9.6051         12.8068        787.68604    
       108   0             -54.561186      228386.32      228386.32      228386.32      228386.32     -0.0019198631   2.2952261e-06 -4.6869612e-07  6.4034         9.6051         12.8068        787.68604    
       109   0             -54.561186      228386.32      228386.32      228386.32      228386.32     -0.0019197311   1.4915265e-06 -3.6793479e-07  6.4034         9.6051         12.8068        787.68604    
       110   0             -54.561186      228386.32      228386.32      228386.32      228386.32     -0.0019197849   1.0080197e-06 -2.822435e-07   6.4034         9.6051         12.8068        787.68604    
       111   0             -54.561186      228386.32      228386.32      228386.32      228386.32     -0.0019197634   4.5199558e-07 -1.2612507e-07  6.4034         9.6051         12.8068        787.68604    
       112   0             -54.561186      228386.32      228386.32      228386.32      228386.32     -0.0019197331   1.0787529e-07 -2.9197164e-08  6.4034         9.6051         12.8068        787.68604    
       113   0             -54.561186      228386.32      228386.32      228386.32      228386.32     -0.001919722    1.8418587e-08 -8.3615623e-09  6.4034         9.6051         12.8068        787.68604    
       114   0             -54.561186      228386.32      228386.32      228386.32      228386.32     -0.0019197317   1.9841269e-09 -5.0780026e-09  6.4034         9.6051         12.8068        787.68604    
       115   0             -54.561186      228386.32      228386.32      228386.32      228386.32     -0.0019197341   1.692597e-09  -4.2200813e-09  6.4034         9.6051         12.8068        787.68604    
       116   0             -54.561186      228386.32      228386.32      228386.32      228386.32     -0.0019197345   2.6666052e-09 -3.1581011e-09  6.4034         9.6051         12.8068        787.68604    
       117   0             -54.561186      228386.32      228386.32      228386.32      228386.32     -0.0019197356   3.9639632e-09 -2.2158844e-09  6.4034         9.6051         12.8068        787.68604    
       118   0             -54.561186      228386.32      228386.32      228386.32      228386.32     -0.0019197359   4.6537596e-09 -9.6487653e-10  6.4034         9.6051         12.8068        787.68604    
       119   0             -54.561186      228386.32      228386.32      228386.32      228386.32     -0.0019197363   3.4906672e-09 -5.7598881e-11  6.4034         9.6051         12.8068        787.68604    
       120   0             -54.561186      228386.32      228386.32      228386.32      228386.32     -0.0019197362   2.6153858e-09 -5.8234008e-11  6.4034         9.6051         12.8068        787.68604    
       121   0             -54.561186      228386.32      228386.32      228386.32      228386.32     -0.0019197361   2.0656065e-09  5.9391348e-11  6.4034         9.6051         12.8068        787.68604    
       122   0             -54.561186      228386.32      228386.32      228386.32      228386.32     -0.0019197361   1.6634588e-09 -7.6814975e-11  6.4034         9.6051         12.8068        787.68604    
       123   0             -54.561186      228386.32      228386.32      228386.32      228386.32     -0.0019197361   1.1880246e-09 -8.350497e-11   6.4034         9.6051         12.8068        787.68604    
       124   0             -54.561186      228386.32      228386.32      228386.32      228386.32     -0.0019197361   6.5717205e-10  3.406393e-11   6.4034         9.6051         12.8068        787.68604    
       125   0             -54.561186      228386.32      228386.32      228386.32      228386.32     -0.0019197361   2.9466323e-10  2.5482671e-11  6.4034         9.6051         12.8068        787.68604    
       126   0             -54.561186      228386.32      228386.32      228386.32      228386.32     -0.0019197361   3.0246117e-11 -5.8361033e-11  6.4034         9.6051         12.8068        787.68604    
       127   0             -54.561186      228386.32      228386.32      228386.32      228386.32     -0.0019197362   8.9602181e-11 -6.3315016e-11  6.4034         9.6051         12.8068        787.68604    
       128   0             -54.561186      228386.32      228386.32      228386.32      228386.32     -0.0019197361   1.8707992e-11 -3.7352472e-11  6.4034         9.6051         12.8068        787.68604    
       129   0             -54.561186      228386.32      228386.32      228386.32      228386.32     -0.0019197361  -3.57576e-11   -1.2247349e-10  6.4034         9.6051         12.8068        787.68604    
       130   0             -54.561186      228386.32      228386.32      228386.32      228386.32     -0.0019197361  -3.3174754e-11  4.2687532e-11  6.4034         9.6051         12.8068        787.68604    
       131   0             -54.561186      228386.32      228386.32      228386.32      228386.32     -0.001919736    4.3978955e-11  3.4684943e-11  6.4034         9.6051         12.8068        787.68604    
       132   0             -54.561186      228386.32      228386.32      228386.32      228386.32     -0.0019197361  -2.082508e-11  -1.0088625e-10  6.4034         9.6051         12.8068        787.68604    
       133   0             -54.561186      228386.32      228386.32      228386.32      228386.32     -0.0019197361   4.2892183e-11  1.0523334e-10  6.4034         9.6051         12.8068        787.68604    
       134   0             -54.561186      228386.32      228386.32      228386.32      228386.32     -0.0019197361   3.5136588e-11  2.2716344e-11  6.4034         9.6051         12.8068        787.68604    
Loop time of 0.009799 on 1 procs for 34 steps with 48 atoms

0.0% CPU use with 1 MPI tasks x 1 OpenMP threads

Minimization stats:
  Stopping criterion = force tolerance
  Energy initial, next-to-last, final = 
     -54.5611861912665  -54.5611862067012  -54.5611862067015
  Force two-norm initial, final = 0.00053872706 8.1972428e-11
  Force max component initial, final = 0.00015232375 1.6565664e-11
  Final line search alpha, max atom move = 1 1.6565664e-11
  Iterations, force evaluations = 34 68

MPI task timing breakdown:
Section |  min time  |  avg time  |  max time  |%varavg| %total
---------------------------------------------------------------
Pair    | 0.009189   | 0.009189   | 0.009189   |   0.0 | 93.77
Neigh   | 0          | 0          | 0          |   0.0 |  0.00
Comm    | 0.000212   | 0.000212   | 0.000212   |   0.0 |  2.16
Output  | 0.000287   | 0.000287   | 0.000287   |   0.0 |  2.93
Modify  | 0          | 0          | 0          |   0.0 |  0.00
Other   |            | 0.000111   |            |       |  1.13

Nlocal:             48 ave          48 max          48 min
Histogram: 1 0 0 0 0 0 0 0 0 0
Nghost:           1176 ave        1176 max        1176 min
Histogram: 1 0 0 0 0 0 0 0 0 0
Neighs:           4032 ave        4032 max        4032 min
Histogram: 1 0 0 0 0 0 0 0 0 0

Total # of neighbors = 4032
Ave neighs/atom = 84
Neighbor list builds = 0
Dangerous builds = 0
=========================================
Components of the Elastic Constant Tensor
=========================================
Elastic Constant C11all = 79.3929350038525 GPa
Elastic Constant C22all = 79.3929350038525 GPa
Elastic Constant C33all = 79.3929350038525 GPa
Elastic Constant C12all = 77.7430799644208 GPa
Elastic Constant C13all = 77.7430824382463 GPa
Elastic Constant C23all = 77.7430799644208 GPa
Elastic Constant C44all = 19.1973610136745 GPa
Elastic Constant C55all = 19.1973605581479 GPa
Elastic Constant C66all = 19.1973609723207 GPa
Elastic Constant C14all = -2.3496960691218e-06 GPa
Elastic Constant C15all = 1.04513529303699e-07 GPa
Elastic Constant C16all = -2.11990982006548e-07 GPa
Elastic Constant C24all = -2.50839524930988e-07 GPa
Elastic Constant C25all = -6.0442835024385e-08 GPa
Elastic Constant C26all = 5.20274135743755e-08 GPa
Elastic Constant C34all = 2.77228193652385e-06 GPa
Elastic Constant C35all = -1.33182416479252e-07 GPa
Elastic Constant C36all = 5.1974487296509e-08 GPa
Elastic Constant C45all = 5.9278437165255e-09 GPa
Elastic Constant C46all = -2.68693630365137e-07 GPa
Elastic Constant C56all = -1.41315560027888e-07 GPa
=========================================
Average properties for a cubic crystal
=========================================
Bulk Modulus = 78.2930321939704 GPa
Shear Modulus 1 = 19.1973608480477 GPa
Shear Modulus 2 = 0.824927107411597 GPa
Poisson Ratio = 0.494750235308887
Total wall time: 0:00:00
