LAMMPS (2 Aug 2023 - Update 3)
OMP_NUM_THREADS environment is not set. Defaulting to 1 thread. (src/comm.cpp:98)
  using 1 OpenMP thread(s) per MPI task
Loaded 1 plugins from F:\Lammps\LAMMPS 64-bit 2Aug2023\plugins
Lattice spacing in x,y,z = 3.17 3.17 3.17
Created triclinic box = (0 0 0) to (6.34 9.51 12.68) with tilt (0 0 0)
  1 by 1 by 1 MPI processor grid
Created 48 atoms
  using lattice units in triclinic box = (0 0 0) to (6.34 9.51 12.68) with tilt (0 0 0)
  create_atoms CPU = 0.000 seconds
Neighbor list info ...
  update: every = 1 steps, delay = 0 steps, check = yes
  max neighbors/atom: 2000, page size: 100000
  master list distance cutoff = 5.403
  ghost atom cutoff = 5.403
  1 neighbor lists, perpetual/occasional/extra = 1 0 0
  (1) pair eam/alloy, perpetual
      attributes: half, newton on
      pair build: half/nsq/newton
      stencil: none
      bin: none
Setting up cg style minimization ...
  Unit style    : metal
  Current step  : 0
WARNING: Energy due to 3 extra global DOFs will be included in minimizer energies
 (src/min.cpp:228)
Per MPI rank memory allocation (min/avg/max) = 4.428 | 4.428 | 4.428 Mbytes
   Step          Temp          PotEng         Press           Pxx            Pyy            Pzz            Pxy            Pxz            Pyz             Lx             Ly             Lz           Volume    
         0   0             -427.18485     -14061.267     -14061.267     -14061.267     -14061.267      1.2563925e-11  9.7719413e-12 -1.1167933e-11  6.34           9.51           12.68          764.52031    
         1   0             -427.1868      -13140.267     -13140.267     -13140.267     -13140.267     -9.7749194e-12 -1.1171284e-11  2.9790091e-11  6.339366       9.509049       12.678732      764.29098    
         2   0             -427.18861     -12216.068     -12216.068     -12216.068     -12216.068      3.6317477e-11  8.8465871e-12  2.6074151e-11  6.338732       9.508098       12.677464      764.06169    
         3   0             -427.19029     -11288.515     -11288.515     -11288.515     -11288.515      5.588995e-12   8.8958171e-11 -2.235598e-11   6.338098       9.507147       12.676196      763.83245    
         4   0             -427.19184     -10360.866     -10360.866     -10360.866     -10360.866     -1.3510792e-11 -4.4259491e-11 -9.4109655e-11  6.337464       9.506196       12.674928      763.60325    
         5   0             -427.19326     -9433.9647     -9433.9647     -9433.9647     -9433.9647      3.4952192e-11  3.2622046e-11 -4.9399099e-11  6.33683        9.505245       12.67366       763.3741     
         6   0             -427.19454     -8505.9502     -8505.9502     -8505.9502     -8505.9502     -4.6616914e-13  2.5173134e-11 -9.3233828e-12  6.336196       9.504294       12.672392      763.145      
         7   0             -427.19569     -7577.4287     -7577.4287     -7577.4287     -7577.4287      3.7304728e-12 -2.7978546e-12  1.6787128e-11  6.335562       9.503343       12.671124      762.91594    
         8   0             -427.1967      -6648.3976     -6648.3976     -6648.3976     -6648.3976      2.9386295e-11 -2.4255354e-11  9.5155621e-11  6.334928       9.502392       12.669856      762.68693    
         9   0             -427.19759     -5718.8365     -5718.8365     -5718.8365     -5718.8365      3.8726903e-11 -2.332946e-12  -5.225799e-11   6.334294       9.501441       12.668588      762.45796    
        10   0             -427.19834     -4788.7687     -4788.7687     -4788.7687     -4788.7687      0             -2.2403008e-11  1.1201504e-11  6.33366        9.50049        12.66732       762.22904    
        11   0             -427.19896     -3858.211      -3858.211      -3858.211      -3858.211       5.9759298e-11  1.6340433e-11  2.9879649e-11  6.333026       9.499539       12.666052      762.00017    
        12   0             -427.19944     -2927.0361     -2927.0361     -2927.0361     -2927.0361     -6.5381366e-12 -4.1096859e-11  7.0051463e-11  6.332392       9.498588       12.664784      761.77134    
        13   0             -427.19979     -1993.6933     -1993.6933     -1993.6933     -1993.6933     -1.1211601e-11  4.0174905e-11 -2.8029003e-11  6.331758       9.497637       12.663516      761.54256    
        14   0             -427.20001     -1074.988      -1074.988      -1074.988      -1074.988       2.289723e-11  -3.2710329e-12 -4.9532784e-11  6.331124       9.496686       12.662248      761.31382    
        15   0             -427.2001      -142.13918     -142.13918     -142.13918     -142.13918      3.1317157e-11  3.9264189e-11 -2.4306403e-11  6.33049        9.495735       12.66098       761.08513    
        16   0             -427.2001       0.95789324     0.95789324     0.95789324     0.95789324    -3.7864317e-11  5.9833851e-11 -5.4224427e-11  6.3303946      9.4955919      12.660789      761.05071    
        17   0             -427.2001      -0.015746567   -0.015746567   -0.015746566   -0.015746567   -4.9083149e-11  1.6360814e-11  6.5443254e-12  6.3303952      9.4955928      12.66079       761.05095    
        18   0             -427.2001       3.994392e-05   3.9944049e-05  3.9943684e-05  3.9944027e-05 -5.3290215e-11 -4.6745182e-13  2.8982013e-11  6.3303952      9.4955928      12.66079       761.05094    
        19   0             -427.2001       5.0227698e-10  3.0664839e-10  4.7913811e-10  7.2104443e-10 -9.3631975e-13  6.0768736e-12 -3.2721627e-11  6.3303952      9.4955928      12.66079       761.05094    
Loop time of 0.001615 on 1 procs for 19 steps with 48 atoms

967.5% CPU use with 1 MPI tasks x 1 OpenMP threads

Minimization stats:
  Stopping criterion = force tolerance
  Energy initial, next-to-last, final = 
     -427.184848841919  -427.200100306399  -427.200100306395
  Force two-norm initial, final = 11.621542 7.650787e-13
  Force max component initial, final = 6.7097004 3.4302347e-13
  Final line search alpha, max atom move = 1 3.4302347e-13
  Iterations, force evaluations = 19 23

MPI task timing breakdown:
Section |  min time  |  avg time  |  max time  |%varavg| %total
---------------------------------------------------------------
Pair    | 0.000587   | 0.000587   | 0.000587   |   0.0 | 36.35
Neigh   | 0          | 0          | 0          |   0.0 |  0.00
Comm    | 4.3e-05    | 4.3e-05    | 4.3e-05    |   0.0 |  2.66
Output  | 0.000192   | 0.000192   | 0.000192   |   0.0 | 11.89
Modify  | 0          | 0          | 0          |   0.0 |  0.00
Other   |            | 0.000793   |            |       | 49.10

Nlocal:             48 ave          48 max          48 min
Histogram: 1 0 0 0 0 0 0 0 0 0
Nghost:            498 ave         498 max         498 min
Histogram: 1 0 0 0 0 0 0 0 0 0
Neighs:           1200 ave        1200 max        1200 min
Histogram: 1 0 0 0 0 0 0 0 0 0

Total # of neighbors = 1200
Ave neighs/atom = 25
Neighbor list builds = 0
Dangerous builds = 0
Displacing atoms ...
System init for write_restart ...
OMP_NUM_THREADS environment is not set. Defaulting to 1 thread. (src/comm.cpp:98)
  using 1 OpenMP thread(s) per MPI task
Loaded 1 plugins from F:\Lammps\LAMMPS 64-bit 2Aug2023\plugins

The 'box' command has been removed and will be ignored

Reading restart file ...
  restart file = 2 Aug 2023, LAMMPS = 2 Aug 2023
  restoring atom style atomic from restart
  triclinic box = (0.0048023897 0.0072035845 0.0096047793) to (6.3351976 9.5027964 12.670395) with tilt (0 0 0)
  1 by 1 by 1 MPI processor grid
  pair style eam/alloy stores no restart info
  48 atoms
  read_restart CPU = 0.000 seconds
Changing box ...
  triclinic box = (0.0048023897 0.0072035845 0.0096047793) to (6.2718937 9.5027964 12.670395) with tilt (0 0 0)
  triclinic box = (0.0048023897 0.0072035845 0.0096047793) to (6.2718937 9.5027964 12.670395) with tilt (0 0 0)
  triclinic box = (0.0048023897 0.0072035845 0.0096047793) to (6.2718937 9.5027964 12.670395) with tilt (0 0 0)
Neighbor list info ...
  update: every = 1 steps, delay = 0 steps, check = yes
  max neighbors/atom: 2000, page size: 100000
  master list distance cutoff = 5.403
  ghost atom cutoff = 5.403
  1 neighbor lists, perpetual/occasional/extra = 1 0 0
  (1) pair eam/alloy, perpetual
      attributes: half, newton on
      pair build: half/nsq/newton
      stencil: none
      bin: none
Setting up cg style minimization ...
  Unit style    : metal
  Current step  : 19
Per MPI rank memory allocation (min/avg/max) = 4.428 | 4.428 | 4.428 Mbytes
   Step          Temp          PotEng         Press           Pxx            Pyy            Pzz            Pxy            Pxz            Pyz             Lx             Ly             Lz           Volume    
        19   0             -427.08225      30276.903      48357.403      21236.651      21236.654      7.1382505e-05  3.0188723e-05 -2.6820206e-05  6.2670913      9.4955928      12.66079       753.44043    
        20   0             -427.08225      30276.907      48357.403      21236.659      21236.659      5.2726538e-07 -1.2488251e-05  3.4143908e-06  6.2670913      9.4955928      12.66079       753.44043    
        21   0             -427.08225      30276.907      48357.403      21236.659      21236.659     -7.3691158e-07  3.1980445e-07  4.780625e-07   6.2670913      9.4955928      12.66079       753.44043    
        22   0             -427.08225      30276.907      48357.403      21236.659      21236.659     -4.5021861e-07  1.3213664e-07  5.5552163e-08  6.2670913      9.4955928      12.66079       753.44043    
        23   0             -427.08225      30276.907      48357.403      21236.659      21236.659     -2.7494464e-07  3.1203798e-08 -1.7897266e-08  6.2670913      9.4955928      12.66079       753.44043    
        24   0             -427.08225      30276.907      48357.403      21236.659      21236.659     -9.0685219e-08 -9.3495565e-09 -2.8018779e-09  6.2670913      9.4955928      12.66079       753.44043    
        25   0             -427.08225      30276.907      48357.403      21236.659      21236.659     -2.6688498e-08 -3.760967e-09   3.7103398e-09  6.2670913      9.4955928      12.66079       753.44043    
        26   0             -427.08225      30276.907      48357.403      21236.659      21236.659     -8.0502566e-09 -7.7455922e-10  4.7217355e-10  6.2670913      9.4955928      12.66079       753.44043    
        27   0             -427.08225      30276.907      48357.403      21236.659      21236.659     -3.9357464e-10  2.817728e-10  -1.4070772e-10  6.2670913      9.4955928      12.66079       753.44043    
        28   0             -427.08225      30276.907      48357.403      21236.659      21236.659     -1.6050673e-10 -6.7643473e-11  1.4354076e-10  6.2670913      9.4955928      12.66079       753.44043    
        29   0             -427.08225      30276.907      48357.403      21236.659      21236.659      6.2902832e-11 -2.0444562e-11 -3.1163455e-11  6.2670913      9.4955928      12.66079       753.44043    
        30   0             -427.08225      30276.907      48357.403      21236.659      21236.659      3.6444513e-11  4.3641471e-11  4.910605e-11   6.2670913      9.4955928      12.66079       753.44043    
        31   0             -427.08225      30276.907      48357.403      21236.659      21236.659      3.5568871e-11  4.9121727e-12  5.9493868e-11  6.2670913      9.4955928      12.66079       753.44043    
        32   0             -427.08225      30276.907      48357.403      21236.659      21236.659     -2.8829331e-11  2.585888e-12   1.5109554e-11  6.2670913      9.4955928      12.66079       753.44043    
        33   0             -427.08225      30276.907      48357.403      21236.659      21236.659      2.4477403e-11 -5.9883503e-11 -4.4384314e-11  6.2670913      9.4955928      12.66079       753.44043    
        34   0             -427.08225      30276.907      48357.403      21236.659      21236.659     -9.4107325e-12 -3.0801024e-11  2.8330413e-11  6.2670913      9.4955928      12.66079       753.44043    
        35   0             -427.08225      30276.907      48357.403      21236.659      21236.659      2.3781593e-11 -3.8436956e-11 -7.5547769e-12  6.2670913      9.4955928      12.66079       753.44043    
        36   0             -427.08225      30276.907      48357.403      21236.659      21236.659     -1.7190991e-11 -1.7052197e-11 -2.2664331e-11  6.2670913      9.4955928      12.66079       753.44043    
        37   0             -427.08225      30276.907      48357.403      21236.659      21236.659     -1.8601056e-11 -1.8606589e-11 -1.5109554e-11  6.2670913      9.4955928      12.66079       753.44043    
        38   0             -427.08225      30276.907      48357.403      21236.659      21236.659      4.7557191e-11  4.3312701e-11  1.8886942e-11  6.2670913      9.4955928      12.66079       753.44043    
        39   0             -427.08225      30276.907      48357.403      21236.659      21236.659      3.9620618e-11 -1.3924509e-11 -2.3608678e-11  6.2670913      9.4955928      12.66079       753.44043    
        40   0             -427.08225      30276.907      48357.403      21236.659      21236.659      3.0715259e-11 -4.6162804e-11 -5.2883438e-11  6.2670913      9.4955928      12.66079       753.44043    
Loop time of 0.001128 on 1 procs for 21 steps with 48 atoms

0.0% CPU use with 1 MPI tasks x 1 OpenMP threads

Minimization stats:
  Stopping criterion = force tolerance
  Energy initial, next-to-last, final = 
     -427.082250290382   -427.08225032905   -427.08225032905
  Force two-norm initial, final = 0.0013107934 5.7201858e-11
  Force max component initial, final = 0.00028077339 1.4277012e-11
  Final line search alpha, max atom move = 1 1.4277012e-11
  Iterations, force evaluations = 21 42

MPI task timing breakdown:
Section |  min time  |  avg time  |  max time  |%varavg| %total
---------------------------------------------------------------
Pair    | 0.000848   | 0.000848   | 0.000848   |   0.0 | 75.18
Neigh   | 0          | 0          | 0          |   0.0 |  0.00
Comm    | 6e-05      | 6e-05      | 6e-05      |   0.0 |  5.32
Output  | 0.000167   | 0.000167   | 0.000167   |   0.0 | 14.80
Modify  | 0          | 0          | 0          |   0.0 |  0.00
Other   |            | 5.3e-05    |            |       |  4.70

Nlocal:             48 ave          48 max          48 min
Histogram: 1 0 0 0 0 0 0 0 0 0
Nghost:            498 ave         498 max         498 min
Histogram: 1 0 0 0 0 0 0 0 0 0
Neighs:           1200 ave        1200 max        1200 min
Histogram: 1 0 0 0 0 0 0 0 0 0

Total # of neighbors = 1200
Ave neighs/atom = 25
Neighbor list builds = 0
Dangerous builds = 0
OMP_NUM_THREADS environment is not set. Defaulting to 1 thread. (src/comm.cpp:98)
  using 1 OpenMP thread(s) per MPI task
Loaded 1 plugins from F:\Lammps\LAMMPS 64-bit 2Aug2023\plugins

The 'box' command has been removed and will be ignored

Reading restart file ...
  restart file = 2 Aug 2023, LAMMPS = 2 Aug 2023
  restoring atom style atomic from restart
  triclinic box = (0.0048023897 0.0072035845 0.0096047793) to (6.3351976 9.5027964 12.670395) with tilt (0 0 0)
  1 by 1 by 1 MPI processor grid
  pair style eam/alloy stores no restart info
  48 atoms
  read_restart CPU = 0.000 seconds
Changing box ...
  triclinic box = (0.0048023897 0.0072035845 0.0096047793) to (6.3985016 9.5027964 12.670395) with tilt (0 0 0)
  triclinic box = (0.0048023897 0.0072035845 0.0096047793) to (6.3985016 9.5027964 12.670395) with tilt (0 0 0)
  triclinic box = (0.0048023897 0.0072035845 0.0096047793) to (6.3985016 9.5027964 12.670395) with tilt (0 0 0)
Neighbor list info ...
  update: every = 1 steps, delay = 0 steps, check = yes
  max neighbors/atom: 2000, page size: 100000
  master list distance cutoff = 5.403
  ghost atom cutoff = 5.403
  1 neighbor lists, perpetual/occasional/extra = 1 0 0
  (1) pair eam/alloy, perpetual
      attributes: half, newton on
      pair build: half/nsq/newton
      stencil: none
      bin: none
Setting up cg style minimization ...
  Unit style    : metal
  Current step  : 19
Per MPI rank memory allocation (min/avg/max) = 4.428 | 4.428 | 4.428 Mbytes
   Step          Temp          PotEng         Press           Pxx            Pyy            Pzz            Pxy            Pxz            Pyz             Lx             Ly             Lz           Volume    
        19   0             -427.07278     -30316.113     -53466.865     -18740.738     -18740.736      6.1680569e-05  2.3339531e-05 -2.0382253e-05  6.3936992      9.4955928      12.66079       768.66145    
        20   0             -427.07278     -30316.109     -53466.866     -18740.73      -18740.73       1.864303e-06  -1.1161444e-05  3.2101948e-06  6.3936992      9.4955928      12.66079       768.66145    
        21   0             -427.07278     -30316.109     -53466.866     -18740.731     -18740.731     -7.27897e-07    5.9631488e-07  5.1523789e-07  6.3936992      9.4955928      12.66079       768.66145    
        22   0             -427.07278     -30316.109     -53466.866     -18740.731     -18740.731     -4.258047e-07   1.2431331e-07  7.1444225e-08  6.3936992      9.4955928      12.66079       768.66145    
        23   0             -427.07278     -30316.109     -53466.866     -18740.731     -18740.731     -2.5919651e-07  2.9302232e-08  2.5871838e-10  6.3936992      9.4955928      12.66079       768.66145    
        24   0             -427.07278     -30316.109     -53466.866     -18740.731     -18740.731     -9.5504395e-08 -1.1604543e-08  1.3375602e-09  6.3936992      9.4955928      12.66079       768.66145    
        25   0             -427.07278     -30316.109     -53466.866     -18740.731     -18740.731     -2.653574e-08   2.9152078e-10  6.3314266e-09  6.3936992      9.4955928      12.66079       768.66145    
        26   0             -427.07278     -30316.109     -53466.866     -18740.731     -18740.731     -1.0472095e-08 -1.1245099e-10  1.8318557e-09  6.3936992      9.4955928      12.66079       768.66145    
        27   0             -427.07278     -30316.109     -53466.866     -18740.731     -18740.731     -2.1261609e-09  5.0189602e-10  6.0167066e-11  6.3936992      9.4955928      12.66079       768.66145    
        28   0             -427.07278     -30316.109     -53466.866     -18740.731     -18740.731     -1.482701e-10  -1.0119746e-11  5.6464477e-11  6.3936992      9.4955928      12.66079       768.66145    
        29   0             -427.07278     -30316.109     -53466.866     -18740.731     -18740.731      5.5501994e-11  2.8420487e-11  3.9802828e-11  6.3936992      9.4955928      12.66079       768.66145    
        30   0             -427.07278     -30316.109     -53466.866     -18740.731     -18740.731     -2.1025027e-11  2.9348846e-11  9.2564717e-12  6.3936992      9.4955928      12.66079       768.66145    
        31   0             -427.07278     -30316.109     -53466.866     -18740.731     -18740.731      5.4850018e-11 -1.7299387e-11  2.6843768e-11  6.3936992      9.4955928      12.66079       768.66145    
        32   0             -427.07278     -30316.109     -53466.866     -18740.731     -18740.731     -3.1746805e-12  1.5830013e-11 -1.6198825e-11  6.3936992      9.4955928      12.66079       768.66145    
        33   0             -427.07278     -30316.109     -53466.866     -18740.731     -18740.731      7.0144439e-12  4.2085986e-11 -4.8596476e-11  6.3936992      9.4955928      12.66079       768.66145    
        34   0             -427.07278     -30316.109     -53466.866     -18740.731     -18740.731      3.1182965e-11 -1.255183e-11  -6.1092713e-11  6.3936992      9.4955928      12.66079       768.66145    
        35   0             -427.07278     -30316.109     -53466.866     -18740.731     -18740.731      3.9182717e-11 -4.6312641e-11  3.2397651e-11  6.3936992      9.4955928      12.66079       768.66145    
        36   0             -427.07278     -30316.109     -53466.866     -18740.731     -18740.731     -4.0838305e-12 -6.1358249e-11  4.4431064e-11  6.3936992      9.4955928      12.66079       768.66145    
        37   0             -427.07278     -30316.109     -53466.866     -18740.731     -18740.731     -5.1582005e-11 -2.3291687e-11  7.8680009e-12  6.3936992      9.4955928      12.66079       768.66145    
        38   0             -427.07278     -30316.109     -53466.866     -18740.731     -18740.731      2.6687836e-11 -2.0137798e-12  5.0910594e-12  6.3936992      9.4955928      12.66079       768.66145    
        39   0             -427.07278     -30316.109     -53466.866     -18740.731     -18740.731      3.1447823e-11  1.5412387e-11 -1.7587296e-11  6.3936992      9.4955928      12.66079       768.66145    
        40   0             -427.07278     -30316.109     -53466.866     -18740.731     -18740.731     -1.5925832e-11 -7.3595277e-12 -6.9423537e-12  6.3936992      9.4955928      12.66079       768.66145    
        41   0             -427.07278     -30316.109     -53466.866     -18740.731     -18740.731     -3.1617088e-11  2.4006713e-11 -1.0182119e-11  6.3936992      9.4955928      12.66079       768.66145    
Loop time of 0.001263 on 1 procs for 22 steps with 48 atoms

0.0% CPU use with 1 MPI tasks x 1 OpenMP threads

Minimization stats:
  Stopping criterion = force tolerance
  Energy initial, next-to-last, final = 
     -427.072781033755  -427.072781071855  -427.072781071855
  Force two-norm initial, final = 0.0012839012 5.2100486e-11
  Force max component initial, final = 0.00030320672 1.213471e-11
  Final line search alpha, max atom move = 1 1.213471e-11
  Iterations, force evaluations = 22 44

MPI task timing breakdown:
Section |  min time  |  avg time  |  max time  |%varavg| %total
---------------------------------------------------------------
Pair    | 0.000967   | 0.000967   | 0.000967   |   0.0 | 76.56
Neigh   | 0          | 0          | 0          |   0.0 |  0.00
Comm    | 7.4e-05    | 7.4e-05    | 7.4e-05    |   0.0 |  5.86
Output  | 0.000176   | 0.000176   | 0.000176   |   0.0 | 13.94
Modify  | 0          | 0          | 0          |   0.0 |  0.00
Other   |            | 4.6e-05    |            |       |  3.64

Nlocal:             48 ave          48 max          48 min
Histogram: 1 0 0 0 0 0 0 0 0 0
Nghost:            498 ave         498 max         498 min
Histogram: 1 0 0 0 0 0 0 0 0 0
Neighs:           1200 ave        1200 max        1200 min
Histogram: 1 0 0 0 0 0 0 0 0 0

Total # of neighbors = 1200
Ave neighs/atom = 25
Neighbor list builds = 0
Dangerous builds = 0
OMP_NUM_THREADS environment is not set. Defaulting to 1 thread. (src/comm.cpp:98)
  using 1 OpenMP thread(s) per MPI task
Loaded 1 plugins from F:\Lammps\LAMMPS 64-bit 2Aug2023\plugins

The 'box' command has been removed and will be ignored

Reading restart file ...
  restart file = 2 Aug 2023, LAMMPS = 2 Aug 2023
  restoring atom style atomic from restart
  triclinic box = (0.0048023897 0.0072035845 0.0096047793) to (6.3351976 9.5027964 12.670395) with tilt (0 0 0)
  1 by 1 by 1 MPI processor grid
  pair style eam/alloy stores no restart info
  48 atoms
  read_restart CPU = 0.000 seconds
Changing box ...
  triclinic box = (0.0048023897 0.0072035845 0.0096047793) to (6.3351976 9.4078405 12.670395) with tilt (0 0 0)
  triclinic box = (0.0048023897 0.0072035845 0.0096047793) to (6.3351976 9.4078405 12.670395) with tilt (0 0 0)
Neighbor list info ...
  update: every = 1 steps, delay = 0 steps, check = yes
  max neighbors/atom: 2000, page size: 100000
  master list distance cutoff = 5.403
  ghost atom cutoff = 5.403
  1 neighbor lists, perpetual/occasional/extra = 1 0 0
  (1) pair eam/alloy, perpetual
      attributes: half, newton on
      pair build: half/nsq/newton
      stencil: none
      bin: none
Setting up cg style minimization ...
  Unit style    : metal
  Current step  : 19
Per MPI rank memory allocation (min/avg/max) = 4.428 | 4.428 | 4.428 Mbytes
   Step          Temp          PotEng         Press           Pxx            Pyy            Pzz            Pxy            Pxz            Pyz             Lx             Ly             Lz           Volume    
        19   0             -427.08225      30276.903      21236.651      48357.403      21236.654      7.1952613e-05  2.8740781e-05 -2.6056681e-05  6.3303952      9.4006369      12.66079       753.44043    
        20   0             -427.08225      30276.907      21236.659      48357.403      21236.66       6.1971736e-07 -1.1258241e-05  2.6579622e-06  6.3303952      9.4006369      12.66079       753.44043    
        21   0             -427.08225      30276.907      21236.659      48357.403      21236.659     -9.472158e-07   3.3769991e-07  4.8095126e-07  6.3303952      9.4006369      12.66079       753.44043    
        22   0             -427.08225      30276.907      21236.659      48357.403      21236.659     -4.7118894e-07  1.5597769e-07  6.0490154e-08  6.3303952      9.4006369      12.66079       753.44043    
        23   0             -427.08225      30276.907      21236.659      48357.403      21236.659     -2.5223866e-07  2.2696892e-08  2.9945247e-09  6.3303952      9.4006369      12.66079       753.44043    
        24   0             -427.08225      30276.907      21236.659      48357.403      21236.659     -9.1608938e-08 -5.0590344e-09 -2.2664331e-11  6.3303952      9.4006369      12.66079       753.44043    
        25   0             -427.08225      30276.907      21236.659      48357.403      21236.659     -2.8984585e-08 -1.2471782e-09  5.6179209e-09  6.3303952      9.4006369      12.66079       753.44043    
        26   0             -427.08225      30276.907      21236.659      48357.403      21236.659     -1.112493e-08  -1.0480496e-09  1.5005676e-09  6.3303952      9.4006369      12.66079       753.44043    
        27   0             -427.08225      30276.907      21236.659      48357.403      21236.659     -1.056623e-09   2.9229756e-10 -5.8549521e-11  6.3303952      9.4006369      12.66079       753.44043    
        28   0             -427.08225      30276.907      21236.659      48357.403      21236.659     -1.8410573e-10 -9.7140487e-11  7.4603422e-11  6.3303952      9.4006369      12.66079       753.44043    
        29   0             -427.08225      30276.907      21236.659      48357.403      21236.659      1.2727014e-11 -2.9719729e-11  5.4772132e-11  6.3303952      9.4006369      12.66079       753.44043    
        30   0             -427.08225      30276.907      21236.659      48357.403      21236.659      4.6106088e-12 -1.0932847e-12  6.0438215e-11  6.3303952      9.4006369      12.66079       753.44043    
        31   0             -427.08225      30276.907      21236.659      48357.403      21236.659      1.1190605e-11 -3.1715861e-11 -2.5497372e-11  6.3303952      9.4006369      12.66079       753.44043    
        32   0             -427.08225      30276.907      21236.659      48357.403      21236.659     -6.3259267e-12 -2.3675077e-11 -7.6492116e-11  6.3303952      9.4006369      12.66079       753.44043    
        33   0             -427.08225      30276.907      21236.659      48357.403      21236.659     -7.1752858e-12  1.2680442e-11  4.1551273e-11  6.3303952      9.4006369      12.66079       753.44043    
        34   0             -427.08225      30276.907      21236.659      48357.403      21236.659      1.7950895e-11 -3.1109505e-11 -1.2276512e-11  6.3303952      9.4006369      12.66079       753.44043    
        35   0             -427.08225      30276.907      21236.659      48357.403      21236.659      5.5014675e-12 -2.7274478e-11 -6.1382562e-11  6.3303952      9.4006369      12.66079       753.44043    
        36   0             -427.08225      30276.907      21236.659      48357.403      21236.659      9.9207168e-12  2.6805071e-11 -9.4434711e-12  6.3303952      9.4006369      12.66079       753.44043    
        37   0             -427.08225      30276.907      21236.659      48357.403      21236.659      7.7982414e-12 -1.945687e-11   3.4940843e-11  6.3303952      9.4006369      12.66079       753.44043    
        38   0             -427.08225      30276.907      21236.659      48357.403      21236.659     -3.5987095e-11 -2.4382415e-11  1.6998248e-11  6.3303952      9.4006369      12.66079       753.44043    
        39   0             -427.08225      30276.907      21236.659      48357.403      21236.659      2.3488329e-11 -4.575288e-11  -3.2107802e-11  6.3303952      9.4006369      12.66079       753.44043    
        40   0             -427.08225      30276.907      21236.659      48357.403      21236.659     -5.2670407e-11  3.0416461e-11  4.249562e-11   6.3303952      9.4006369      12.66079       753.44043    
        41   0             -427.08225      30276.907      21236.659      48357.403      21236.659      2.2037225e-11  1.1094234e-12  3.4940843e-11  6.3303952      9.4006369      12.66079       753.44043    
Loop time of 0.0012 on 1 procs for 22 steps with 48 atoms

0.0% CPU use with 1 MPI tasks x 1 OpenMP threads

Minimization stats:
  Stopping criterion = force tolerance
  Energy initial, next-to-last, final = 
     -427.082250290032   -427.08225032905   -427.08225032905
  Force two-norm initial, final = 0.0013253564 3.2858919e-11
  Force max component initial, final = 0.00032058597 7.9080631e-12
  Final line search alpha, max atom move = 1 7.9080631e-12
  Iterations, force evaluations = 22 44

MPI task timing breakdown:
Section |  min time  |  avg time  |  max time  |%varavg| %total
---------------------------------------------------------------
Pair    | 0.000896   | 0.000896   | 0.000896   |   0.0 | 74.67
Neigh   | 0          | 0          | 0          |   0.0 |  0.00
Comm    | 6.4e-05    | 6.4e-05    | 6.4e-05    |   0.0 |  5.33
Output  | 0.000178   | 0.000178   | 0.000178   |   0.0 | 14.83
Modify  | 0          | 0          | 0          |   0.0 |  0.00
Other   |            | 6.2e-05    |            |       |  5.17

Nlocal:             48 ave          48 max          48 min
Histogram: 1 0 0 0 0 0 0 0 0 0
Nghost:            498 ave         498 max         498 min
Histogram: 1 0 0 0 0 0 0 0 0 0
Neighs:           1200 ave        1200 max        1200 min
Histogram: 1 0 0 0 0 0 0 0 0 0

Total # of neighbors = 1200
Ave neighs/atom = 25
Neighbor list builds = 0
Dangerous builds = 0
OMP_NUM_THREADS environment is not set. Defaulting to 1 thread. (src/comm.cpp:98)
  using 1 OpenMP thread(s) per MPI task
Loaded 1 plugins from F:\Lammps\LAMMPS 64-bit 2Aug2023\plugins

The 'box' command has been removed and will be ignored

Reading restart file ...
  restart file = 2 Aug 2023, LAMMPS = 2 Aug 2023
  restoring atom style atomic from restart
  triclinic box = (0.0048023897 0.0072035845 0.0096047793) to (6.3351976 9.5027964 12.670395) with tilt (0 0 0)
  1 by 1 by 1 MPI processor grid
  pair style eam/alloy stores no restart info
  48 atoms
  read_restart CPU = 0.000 seconds
Changing box ...
  triclinic box = (0.0048023897 0.0072035845 0.0096047793) to (6.3351976 9.5977523 12.670395) with tilt (0 0 0)
  triclinic box = (0.0048023897 0.0072035845 0.0096047793) to (6.3351976 9.5977523 12.670395) with tilt (0 0 0)
Neighbor list info ...
  update: every = 1 steps, delay = 0 steps, check = yes
  max neighbors/atom: 2000, page size: 100000
  master list distance cutoff = 5.403
  ghost atom cutoff = 5.403
  1 neighbor lists, perpetual/occasional/extra = 1 0 0
  (1) pair eam/alloy, perpetual
      attributes: half, newton on
      pair build: half/nsq/newton
      stencil: none
      bin: none
Setting up cg style minimization ...
  Unit style    : metal
  Current step  : 19
Per MPI rank memory allocation (min/avg/max) = 4.428 | 4.428 | 4.428 Mbytes
   Step          Temp          PotEng         Press           Pxx            Pyy            Pzz            Pxy            Pxz            Pyz             Lx             Ly             Lz           Volume    
        19   0             -427.07278     -30316.113     -18740.738     -53466.865     -18740.736      6.0589046e-05  2.363758e-05  -2.1922519e-05  6.3303952      9.5905488      12.66079       768.66145    
        20   0             -427.07278     -30316.109     -18740.73      -53466.866     -18740.73       1.6975579e-06 -1.1435615e-05  3.2352331e-06  6.3303952      9.5905488      12.66079       768.66145    
        21   0             -427.07278     -30316.109     -18740.731     -53466.866     -18740.731     -7.008612e-07   5.7778487e-07  5.2321466e-07  6.3303952      9.5905488      12.66079       768.66145    
        22   0             -427.07278     -30316.109     -18740.731     -53466.866     -18740.731     -4.2418586e-07  1.1550501e-07  6.8170211e-08  6.3303952      9.5905488      12.66079       768.66145    
        23   0             -427.07278     -30316.109     -18740.731     -53466.866     -18740.731     -2.6459197e-07  2.7116183e-08 -3.4808962e-09  6.3303952      9.5905488      12.66079       768.66145    
        24   0             -427.07278     -30316.109     -18740.731     -53466.866     -18740.731     -9.2332485e-08 -1.2668729e-08  2.2363636e-09  6.3303952      9.5905488      12.66079       768.66145    
        25   0             -427.07278     -30316.109     -18740.731     -53466.866     -18740.731     -2.5853147e-08 -1.4808025e-09  5.808436e-09   6.3303952      9.5905488      12.66079       768.66145    
        26   0             -427.07278     -30316.109     -18740.731     -53466.866     -18740.731     -9.0430096e-09 -4.1584066e-12  1.424571e-09   6.3303952      9.5905488      12.66079       768.66145    
        27   0             -427.07278     -30316.109     -18740.731     -53466.866     -18740.731     -1.5651864e-09  5.9831089e-10  1.1431742e-10  6.3303952      9.5905488      12.66079       768.66145    
        28   0             -427.07278     -30316.109     -18740.731     -53466.866     -18740.731     -2.0271357e-11  4.2198076e-11  1.0506095e-10  6.3303952      9.5905488      12.66079       768.66145    
        29   0             -427.07278     -30316.109     -18740.731     -53466.866     -18740.731      6.448276e-11   1.0940761e-11  4.2116946e-11  6.3303952      9.5905488      12.66079       768.66145    
        30   0             -427.07278     -30316.109     -18740.731     -53466.866     -18740.731      7.4101491e-12 -1.4980524e-11  2.7769415e-11  6.3303952      9.5905488      12.66079       768.66145    
        31   0             -427.07278     -30316.109     -18740.731     -53466.866     -18740.731      5.3248893e-11 -2.9772799e-11  7.8680009e-12  6.3303952      9.5905488      12.66079       768.66145    
        32   0             -427.07278     -30316.109     -18740.731     -53466.866     -18740.731      1.2617818e-11  8.1073223e-12 -3.2397651e-12  6.3303952      9.5905488      12.66079       768.66145    
        33   0             -427.07278     -30316.109     -18740.731     -53466.866     -18740.731     -2.9393591e-11 -3.4608944e-11  6.9423537e-12  6.3303952      9.5905488      12.66079       768.66145    
        34   0             -427.07278     -30316.109     -18740.731     -53466.866     -18740.731      2.0080623e-11  3.1260253e-11 -2.5455297e-11  6.3303952      9.5905488      12.66079       768.66145    
        35   0             -427.07278     -30316.109     -18740.731     -53466.866     -18740.731     -2.449756e-11   1.4249904e-11 -2.5918121e-11  6.3303952      9.5905488      12.66079       768.66145    
        36   0             -427.07278     -30316.109     -18740.731     -53466.866     -18740.731     -6.850919e-11  -1.9570116e-11  3.748871e-11   6.3303952      9.5905488      12.66079       768.66145    
        37   0             -427.07278     -30316.109     -18740.731     -53466.866     -18740.731      3.3810076e-11  3.7388146e-11  2.452965e-11   6.3303952      9.5905488      12.66079       768.66145    
        38   0             -427.07278     -30316.109     -18740.731     -53466.866     -18740.731     -6.9518452e-12 -3.2305674e-11  1.4810355e-11  6.3303952      9.5905488      12.66079       768.66145    
        39   0             -427.07278     -30316.109     -18740.731     -53466.866     -18740.731      1.9806499e-11  2.6326029e-11 -3.8877181e-11  6.3303952      9.5905488      12.66079       768.66145    
        40   0             -427.07278     -30316.109     -18740.731     -53466.866     -18740.731      2.5710664e-11 -3.1129632e-11 -5.4613183e-11  6.3303952      9.5905488      12.66079       768.66145    
        41   0             -427.07278     -30316.109     -18740.731     -53466.866     -18740.731     -2.2686943e-11  1.1287652e-11  2.2678356e-11  6.3303952      9.5905488      12.66079       768.66145    
Loop time of 0.001118 on 1 procs for 22 steps with 48 atoms

0.0% CPU use with 1 MPI tasks x 1 OpenMP threads

Minimization stats:
  Stopping criterion = force tolerance
  Energy initial, next-to-last, final = 
     -427.072781033748  -427.072781071855  -427.072781071855
  Force two-norm initial, final = 0.0012821477 3.2045931e-11
  Force max component initial, final = 0.000294041 8.1941953e-12
  Final line search alpha, max atom move = 1 8.1941953e-12
  Iterations, force evaluations = 22 44

MPI task timing breakdown:
Section |  min time  |  avg time  |  max time  |%varavg| %total
---------------------------------------------------------------
Pair    | 0.000836   | 0.000836   | 0.000836   |   0.0 | 74.78
Neigh   | 0          | 0          | 0          |   0.0 |  0.00
Comm    | 6.3e-05    | 6.3e-05    | 6.3e-05    |   0.0 |  5.64
Output  | 0.000168   | 0.000168   | 0.000168   |   0.0 | 15.03
Modify  | 0          | 0          | 0          |   0.0 |  0.00
Other   |            | 5.1e-05    |            |       |  4.56

Nlocal:             48 ave          48 max          48 min
Histogram: 1 0 0 0 0 0 0 0 0 0
Nghost:            498 ave         498 max         498 min
Histogram: 1 0 0 0 0 0 0 0 0 0
Neighs:           1200 ave        1200 max        1200 min
Histogram: 1 0 0 0 0 0 0 0 0 0

Total # of neighbors = 1200
Ave neighs/atom = 25
Neighbor list builds = 0
Dangerous builds = 0
OMP_NUM_THREADS environment is not set. Defaulting to 1 thread. (src/comm.cpp:98)
  using 1 OpenMP thread(s) per MPI task
Loaded 1 plugins from F:\Lammps\LAMMPS 64-bit 2Aug2023\plugins

The 'box' command has been removed and will be ignored

Reading restart file ...
  restart file = 2 Aug 2023, LAMMPS = 2 Aug 2023
  restoring atom style atomic from restart
  triclinic box = (0.0048023897 0.0072035845 0.0096047793) to (6.3351976 9.5027964 12.670395) with tilt (0 0 0)
  1 by 1 by 1 MPI processor grid
  pair style eam/alloy stores no restart info
  48 atoms
  read_restart CPU = 0.000 seconds
Changing box ...
  triclinic box = (0.0048023897 0.0072035845 0.0096047793) to (6.3351976 9.5027964 12.543787) with tilt (0 0 0)
Neighbor list info ...
  update: every = 1 steps, delay = 0 steps, check = yes
  max neighbors/atom: 2000, page size: 100000
  master list distance cutoff = 5.403
  ghost atom cutoff = 5.403
  1 neighbor lists, perpetual/occasional/extra = 1 0 0
  (1) pair eam/alloy, perpetual
      attributes: half, newton on
      pair build: half/nsq/newton
      stencil: none
      bin: none
Setting up cg style minimization ...
  Unit style    : metal
  Current step  : 19
Per MPI rank memory allocation (min/avg/max) = 4.428 | 4.428 | 4.428 Mbytes
   Step          Temp          PotEng         Press           Pxx            Pyy            Pzz            Pxy            Pxz            Pyz             Lx             Ly             Lz           Volume    
        19   0             -427.08225      30276.902      21236.651      21236.651      48357.403      7.2585442e-05  2.8011324e-05 -2.6796186e-05  6.3303952      9.4955928      12.534183      753.44043    
        20   0             -427.08225      30276.907      21236.659      21236.659      48357.403      3.0592644e-06 -1.4324905e-05  3.1376159e-06  6.3303952      9.4955928      12.534183      753.44043    
        21   0             -427.08225      30276.907      21236.659      21236.659      48357.403     -5.4749623e-07  7.7983894e-07  4.2604692e-07  6.3303952      9.4955928      12.534183      753.44043    
        22   0             -427.08225      30276.907      21236.659      21236.659      48357.403     -4.710234e-07   2.4861122e-07  4.6591253e-08  6.3303952      9.4955928      12.534183      753.44043    
        23   0             -427.08225      30276.907      21236.659      21236.659      48357.403     -2.6866196e-07  6.5502279e-08 -8.8164246e-09  6.3303952      9.4955928      12.534183      753.44043    
        24   0             -427.08225      30276.907      21236.659      21236.659      48357.403     -9.738826e-08  -1.2008366e-08  3.6942859e-09  6.3303952      9.4955928      12.534183      753.44043    
        25   0             -427.08225      30276.907      21236.659      21236.659      48357.403     -2.8985734e-08 -5.828728e-09   5.8039573e-09  6.3303952      9.4955928      12.534183      753.44043    
        26   0             -427.08225      30276.907      21236.659      21236.659      48357.403     -8.6124572e-09 -1.3132055e-09  1.2635364e-09  6.3303952      9.4955928      12.534183      753.44043    
        27   0             -427.08225      30276.907      21236.659      21236.659      48357.403     -8.8346715e-10  4.1628739e-10 -1.3126425e-10  6.3303952      9.4955928      12.534183      753.44043    
        28   0             -427.08225      30276.907      21236.659      21236.659      48357.403     -1.235384e-10   8.6333522e-11  3.8718231e-11  6.3303952      9.4955928      12.534183      753.44043    
        29   0             -427.08225      30276.907      21236.659      21236.659      48357.403      1.6683773e-11  4.1163482e-11  3.7773884e-12  6.3303952      9.4955928      12.534183      753.44043    
        30   0             -427.08225      30276.907      21236.659      21236.659      48357.403      2.8047294e-11 -1.7700975e-11  2.0775636e-11  6.3303952      9.4955928      12.534183      753.44043    
        31   0             -427.08225      30276.907      21236.659      21236.659      48357.403     -3.0239396e-12  1.0824948e-11 -1.8886942e-11  6.3303952      9.4955928      12.534183      753.44043    
        32   0             -427.08225      30276.907      21236.659      21236.659      48357.403      5.5517281e-13 -1.537469e-11   1.4165207e-11  6.3303952      9.4955928      12.534183      753.44043    
        33   0             -427.08225      30276.907      21236.659      21236.659      48357.403      5.564178e-12  -3.6031361e-11 -3.1163455e-11  6.3303952      9.4955928      12.534183      753.44043    
        34   0             -427.08225      30276.907      21236.659      21236.659      48357.403     -5.5671291e-11 -4.7406409e-12 -1.6998248e-11  6.3303952      9.4955928      12.534183      753.44043    
        35   0             -427.08225      30276.907      21236.659      21236.659      48357.403      3.2433804e-11  2.2211524e-11 -1.6998248e-11  6.3303952      9.4955928      12.534183      753.44043    
        36   0             -427.08225      30276.907      21236.659      21236.659      48357.403      1.7880346e-11 -1.9681891e-11  2.6441719e-11  6.3303952      9.4955928      12.534183      753.44043    
        37   0             -427.08225      30276.907      21236.659      21236.659      48357.403     -2.8602927e-11 -1.5216992e-11 -6.9881686e-11  6.3303952      9.4955928      12.534183      753.44043    
        38   0             -427.08225      30276.907      21236.659      21236.659      48357.403     -1.7084475e-11  3.9747422e-12  4.7217355e-12  6.3303952      9.4955928      12.534183      753.44043    
        39   0             -427.08225      30276.907      21236.659      21236.659      48357.403     -1.2332767e-11 -5.6301163e-13 -1.7942595e-11  6.3303952      9.4955928      12.534183      753.44043    
        40   0             -427.08225      30276.907      21236.659      21236.659      48357.403     -1.2637559e-11  4.8463728e-11 -1.9831289e-11  6.3303952      9.4955928      12.534183      753.44043    
        41   0             -427.08225      30276.907      21236.659      21236.659      48357.403     -7.3848128e-11  3.9968754e-11 -5.6660826e-11  6.3303952      9.4955928      12.534183      753.44043    
Loop time of 0.001144 on 1 procs for 22 steps with 48 atoms

0.0% CPU use with 1 MPI tasks x 1 OpenMP threads

Minimization stats:
  Stopping criterion = force tolerance
  Energy initial, next-to-last, final = 
     -427.082250289774   -427.08225032905   -427.08225032905
  Force two-norm initial, final = 0.0013431482 4.540115e-11
  Force max component initial, final = 0.00032120785 9.9691644e-12
  Final line search alpha, max atom move = 1 9.9691644e-12
  Iterations, force evaluations = 22 44

MPI task timing breakdown:
Section |  min time  |  avg time  |  max time  |%varavg| %total
---------------------------------------------------------------
Pair    | 0.000842   | 0.000842   | 0.000842   |   0.0 | 73.60
Neigh   | 0          | 0          | 0          |   0.0 |  0.00
Comm    | 6.8e-05    | 6.8e-05    | 6.8e-05    |   0.0 |  5.94
Output  | 0.000178   | 0.000178   | 0.000178   |   0.0 | 15.56
Modify  | 0          | 0          | 0          |   0.0 |  0.00
Other   |            | 5.6e-05    |            |       |  4.90

Nlocal:             48 ave          48 max          48 min
Histogram: 1 0 0 0 0 0 0 0 0 0
Nghost:            498 ave         498 max         498 min
Histogram: 1 0 0 0 0 0 0 0 0 0
Neighs:           1200 ave        1200 max        1200 min
Histogram: 1 0 0 0 0 0 0 0 0 0

Total # of neighbors = 1200
Ave neighs/atom = 25
Neighbor list builds = 0
Dangerous builds = 0
OMP_NUM_THREADS environment is not set. Defaulting to 1 thread. (src/comm.cpp:98)
  using 1 OpenMP thread(s) per MPI task
Loaded 1 plugins from F:\Lammps\LAMMPS 64-bit 2Aug2023\plugins

The 'box' command has been removed and will be ignored

Reading restart file ...
  restart file = 2 Aug 2023, LAMMPS = 2 Aug 2023
  restoring atom style atomic from restart
  triclinic box = (0.0048023897 0.0072035845 0.0096047793) to (6.3351976 9.5027964 12.670395) with tilt (0 0 0)
  1 by 1 by 1 MPI processor grid
  pair style eam/alloy stores no restart info
  48 atoms
  read_restart CPU = 0.000 seconds
Changing box ...
  triclinic box = (0.0048023897 0.0072035845 0.0096047793) to (6.3351976 9.5027964 12.797003) with tilt (0 0 0)
Neighbor list info ...
  update: every = 1 steps, delay = 0 steps, check = yes
  max neighbors/atom: 2000, page size: 100000
  master list distance cutoff = 5.403
  ghost atom cutoff = 5.403
  1 neighbor lists, perpetual/occasional/extra = 1 0 0
  (1) pair eam/alloy, perpetual
      attributes: half, newton on
      pair build: half/nsq/newton
      stencil: none
      bin: none
Setting up cg style minimization ...
  Unit style    : metal
  Current step  : 19
Per MPI rank memory allocation (min/avg/max) = 4.428 | 4.428 | 4.428 Mbytes
   Step          Temp          PotEng         Press           Pxx            Pyy            Pzz            Pxy            Pxz            Pyz             Lx             Ly             Lz           Volume    
        19   0             -427.07278     -30316.114     -18740.738     -18740.738     -53466.865      5.9476458e-05  2.449102e-05  -2.1193647e-05  6.3303952      9.4955928      12.787398      768.66145    
        20   0             -427.07278     -30316.109     -18740.73      -18740.73      -53466.866      1.1313544e-06 -1.0851398e-05  3.3516643e-06  6.3303952      9.4955928      12.787398      768.66145    
        21   0             -427.07278     -30316.109     -18740.731     -18740.731     -53466.866     -7.2449772e-07  4.515815e-07   5.5014497e-07  6.3303952      9.4955928      12.787398      768.66145    
        22   0             -427.07278     -30316.109     -18740.731     -18740.731     -53466.866     -3.9804434e-07  1.208106e-07   6.395574e-08   6.3303952      9.4955928      12.787398      768.66145    
        23   0             -427.07278     -30316.109     -18740.731     -18740.731     -53466.866     -2.446565e-07   2.3478476e-08 -6.8696904e-09  6.3303952      9.4955928      12.787398      768.66145    
        24   0             -427.07278     -30316.109     -18740.731     -18740.731     -53466.866     -8.78501e-08   -1.3673977e-08  2.547381e-09   6.3303952      9.4955928      12.787398      768.66145    
        25   0             -427.07278     -30316.109     -18740.731     -18740.731     -53466.866     -2.5172127e-08 -7.0293072e-10  5.6700517e-09  6.3303952      9.4955928      12.787398      768.66145    
        26   0             -427.07278     -30316.109     -18740.731     -18740.731     -53466.866     -9.7646745e-09 -4.2643679e-10  1.4939945e-09  6.3303952      9.4955928      12.787398      768.66145    
        27   0             -427.07278     -30316.109     -18740.731     -18740.731     -53466.866     -1.7522187e-09  4.9813964e-10  9.6730129e-11  6.3303952      9.4955928      12.787398      768.66145    
        28   0             -427.07278     -30316.109     -18740.731     -18740.731     -53466.866     -8.2175141e-11 -3.9146107e-11  8.0994127e-11  6.3303952      9.4955928      12.787398      768.66145    
        29   0             -427.07278     -30316.109     -18740.731     -18740.731     -53466.866      8.4986658e-11  3.6983853e-11  3.7025887e-11  6.3303952      9.4955928      12.787398      768.66145    
        30   0             -427.07278     -30316.109     -18740.731     -18740.731     -53466.866     -5.0675566e-12 -3.6617074e-11  3.7025887e-12  6.3303952      9.4955928      12.787398      768.66145    
        31   0             -427.07278     -30316.109     -18740.731     -18740.731     -53466.866      1.4973518e-11 -5.4872391e-11 -4.2116946e-11  6.3303952      9.4955928      12.787398      768.66145    
        32   0             -427.07278     -30316.109     -18740.731     -18740.731     -53466.866     -3.1286919e-11 -2.0335311e-11  3.7951534e-11  6.3303952      9.4955928      12.787398      768.66145    
        33   0             -427.07278     -30316.109     -18740.731     -18740.731     -53466.866     -8.98793e-11    1.0275452e-11  8.3308245e-12  6.3303952      9.4955928      12.787398      768.66145    
        34   0             -427.07278     -30316.109     -18740.731     -18740.731     -53466.866     -2.6998796e-11  8.3624628e-12  2.2678356e-11  6.3303952      9.4955928      12.787398      768.66145    
        35   0             -427.07278     -30316.109     -18740.731     -18740.731     -53466.866     -3.1269518e-11  4.2065647e-11 -7.8217185e-11  6.3303952      9.4955928      12.787398      768.66145    
        36   0             -427.07278     -30316.109     -18740.731     -18740.731     -53466.866      1.945102e-11   2.1617568e-11 -2.2678356e-11  6.3303952      9.4955928      12.787398      768.66145    
        37   0             -427.07278     -30316.109     -18740.731     -18740.731     -53466.866     -2.399564e-11   8.4221237e-12  5.1836241e-11  6.3303952      9.4955928      12.787398      768.66145    
        38   0             -427.07278     -30316.109     -18740.731     -18740.731     -53466.866      1.1148218e-11 -3.8861362e-11  2.2678356e-11  6.3303952      9.4955928      12.787398      768.66145    
        39   0             -427.07278     -30316.109     -18740.731     -18740.731     -53466.866     -3.0192007e-11 -1.5696228e-11  2.0364238e-11  6.3303952      9.4955928      12.787398      768.66145    
        40   0             -427.07278     -30316.109     -18740.731     -18740.731     -53466.866     -2.2233385e-11  3.677504e-11   2.6380944e-11  6.3303952      9.4955928      12.787398      768.66145    
        41   0             -427.07278     -30316.109     -18740.731     -18740.731     -53466.866     -4.0328476e-11 -4.5440327e-11 -1.7587296e-11  6.3303952      9.4955928      12.787398      768.66145    
Loop time of 0.001121 on 1 procs for 22 steps with 48 atoms

0.0% CPU use with 1 MPI tasks x 1 OpenMP threads

Minimization stats:
  Stopping criterion = force tolerance
  Energy initial, next-to-last, final = 
     -427.072781033889  -427.072781071855  -427.072781071855
  Force two-norm initial, final = 0.0012754939 4.4619617e-11
  Force max component initial, final = 0.00029335461 1.1624618e-11
  Final line search alpha, max atom move = 1 1.1624618e-11
  Iterations, force evaluations = 22 44

MPI task timing breakdown:
Section |  min time  |  avg time  |  max time  |%varavg| %total
---------------------------------------------------------------
Pair    | 0.000836   | 0.000836   | 0.000836   |   0.0 | 74.58
Neigh   | 0          | 0          | 0          |   0.0 |  0.00
Comm    | 6.8e-05    | 6.8e-05    | 6.8e-05    |   0.0 |  6.07
Output  | 0.000167   | 0.000167   | 0.000167   |   0.0 | 14.90
Modify  | 0          | 0          | 0          |   0.0 |  0.00
Other   |            | 5e-05      |            |       |  4.46

Nlocal:             48 ave          48 max          48 min
Histogram: 1 0 0 0 0 0 0 0 0 0
Nghost:            498 ave         498 max         498 min
Histogram: 1 0 0 0 0 0 0 0 0 0
Neighs:           1200 ave        1200 max        1200 min
Histogram: 1 0 0 0 0 0 0 0 0 0

Total # of neighbors = 1200
Ave neighs/atom = 25
Neighbor list builds = 0
Dangerous builds = 0
OMP_NUM_THREADS environment is not set. Defaulting to 1 thread. (src/comm.cpp:98)
  using 1 OpenMP thread(s) per MPI task
Loaded 1 plugins from F:\Lammps\LAMMPS 64-bit 2Aug2023\plugins

The 'box' command has been removed and will be ignored

Reading restart file ...
  restart file = 2 Aug 2023, LAMMPS = 2 Aug 2023
  restoring atom style atomic from restart
  triclinic box = (0.0048023897 0.0072035845 0.0096047793) to (6.3351976 9.5027964 12.670395) with tilt (0 0 0)
  1 by 1 by 1 MPI processor grid
  pair style eam/alloy stores no restart info
  48 atoms
  read_restart CPU = 0.000 seconds
Changing box ...
  triclinic box = (0.0048023897 0.0072035845 0.0096047793) to (6.3351976 9.5027964 12.670395) with tilt (0 0 -0.1266079)
Neighbor list info ...
  update: every = 1 steps, delay = 0 steps, check = yes
  max neighbors/atom: 2000, page size: 100000
  master list distance cutoff = 5.403
  ghost atom cutoff = 5.403
  1 neighbor lists, perpetual/occasional/extra = 1 0 0
  (1) pair eam/alloy, perpetual
      attributes: half, newton on
      pair build: half/nsq/newton
      stencil: none
      bin: none
Setting up cg style minimization ...
  Unit style    : metal
  Current step  : 19
Per MPI rank memory allocation (min/avg/max) = 4.428 | 4.428 | 4.428 Mbytes
   Step          Temp          PotEng         Press           Pxx            Pyy            Pzz            Pxy            Pxz            Pyz             Lx             Ly             Lz           Volume    
        19   0             -427.16192      385.66367      548.03324      226.39274      382.56502      6.7893081e-05  3.2120469e-05  16080.099      6.3303952      9.4955928      12.66079       761.05094    
        20   0             -427.16192      385.66673      548.04072      226.40087      382.55859      1.022638e-06  -1.2170518e-05  16080.099      6.3303952      9.4955928      12.66079       761.05094    
        21   0             -427.16192      385.66599      548.04031      226.40015      382.55751     -6.860911e-07   5.8583683e-07  16080.099      6.3303952      9.4955928      12.66079       761.05094    
        22   0             -427.16192      385.66591      548.04026      226.40004      382.55743     -4.2324507e-07  1.0423001e-07  16080.099      6.3303952      9.4955928      12.66079       761.05094    
        23   0             -427.16192      385.6659       548.04026      226.40003      382.55742     -2.777917e-07   2.446017e-09   16080.099      6.3303952      9.4955928      12.66079       761.05094    
        24   0             -427.16192      385.6659       548.04026      226.40003      382.55742     -9.7102574e-08 -1.7374584e-08  16080.099      6.3303952      9.4955928      12.66079       761.05094    
        25   0             -427.16192      385.6659       548.04026      226.40003      382.55742     -2.8967425e-08 -5.6516052e-09  16080.099      6.3303952      9.4955928      12.66079       761.05094    
        26   0             -427.16192      385.6659       548.04026      226.40003      382.55742     -9.8225432e-09 -1.2511145e-09  16080.099      6.3303952      9.4955928      12.66079       761.05094    
        27   0             -427.16192      385.6659       548.04026      226.40003      382.55742     -1.5465016e-09  8.1637219e-11  16080.099      6.3303952      9.4955928      12.66079       761.05094    
        28   0             -427.16192      385.6659       548.04026      226.40003      382.55742     -1.3607869e-10  4.7930245e-11  16080.099      6.3303952      9.4955928      12.66079       761.05094    
        29   0             -427.16192      385.6659       548.04026      226.40003      382.55742      8.2961057e-11  7.6994427e-11  16080.099      6.3303952      9.4955928      12.66079       761.05094    
        30   0             -427.16192      385.6659       548.04026      226.40003      382.55742      3.0426366e-11 -2.4144754e-11  16080.099      6.3303952      9.4955928      12.66079       761.05094    
        31   0             -427.16192      385.6659       548.04026      226.40003      382.55742      2.5583401e-11  5.9622932e-12  16080.099      6.3303952      9.4955928      12.66079       761.05094    
        32   0             -427.16192      385.6659       548.04026      226.40003      382.55742      2.4156851e-11  3.1772116e-13  16080.099      6.3303952      9.4955928      12.66079       761.05094    
        33   0             -427.16192      385.6659       548.04026      226.40003      382.55742     -7.4863048e-12 -1.1965899e-11  16080.099      6.3303952      9.4955928      12.66079       761.05094    
        34   0             -427.16192      385.6659       548.04026      226.40003      382.55742     -7.3772023e-12 -5.560805e-12   16080.099      6.3303952      9.4955928      12.66079       761.05094    
        35   0             -427.16192      385.6659       548.04026      226.40003      382.55742     -9.1009308e-12 -3.6648633e-11  16080.099      6.3303952      9.4955928      12.66079       761.05094    
        36   0             -427.16192      385.6659       548.04026      226.40003      382.55742     -7.8884777e-12  1.8123573e-11  16080.099      6.3303952      9.4955928      12.66079       761.05094    
        37   0             -427.16192      385.6659       548.04026      226.40003      382.55742     -2.545718e-11   1.8541495e-11  16080.099      6.3303952      9.4955928      12.66079       761.05094    
        38   0             -427.16192      385.6659       548.04026      226.40003      382.55742      1.1412398e-13  1.05278e-10    16080.099      6.3303952      9.4955928      12.66079       761.05094    
        39   0             -427.16192      385.6659       548.04026      226.40003      382.55742      4.629599e-11  -2.6415136e-12  16080.099      6.3303952      9.4955928      12.66079       761.05094    
        40   0             -427.16192      385.6659       548.04026      226.40003      382.55742     -3.2575549e-12  6.6159268e-11  16080.099      6.3303952      9.4955928      12.66079       761.05094    
        41   0             -427.16192      385.6659       548.04026      226.40003      382.55742     -2.1311284e-11 -2.9546926e-11  16080.099      6.3303952      9.4955928      12.66079       761.05094    
Loop time of 0.001126 on 1 procs for 22 steps with 48 atoms

0.0% CPU use with 1 MPI tasks x 1 OpenMP threads

Minimization stats:
  Stopping criterion = force tolerance
  Energy initial, next-to-last, final = 
     -427.161924453335  -427.161924492222  -427.161924492222
  Force two-norm initial, final = 0.0013165418 4.8034205e-11
  Force max component initial, final = 0.00030947856 1.1436684e-11
  Final line search alpha, max atom move = 1 1.1436684e-11
  Iterations, force evaluations = 22 44

MPI task timing breakdown:
Section |  min time  |  avg time  |  max time  |%varavg| %total
---------------------------------------------------------------
Pair    | 0.000835   | 0.000835   | 0.000835   |   0.0 | 74.16
Neigh   | 0          | 0          | 0          |   0.0 |  0.00
Comm    | 6.3e-05    | 6.3e-05    | 6.3e-05    |   0.0 |  5.60
Output  | 0.000175   | 0.000175   | 0.000175   |   0.0 | 15.54
Modify  | 0          | 0          | 0          |   0.0 |  0.00
Other   |            | 5.3e-05    |            |       |  4.71

Nlocal:             48 ave          48 max          48 min
Histogram: 1 0 0 0 0 0 0 0 0 0
Nghost:            498 ave         498 max         498 min
Histogram: 1 0 0 0 0 0 0 0 0 0
Neighs:           1200 ave        1200 max        1200 min
Histogram: 1 0 0 0 0 0 0 0 0 0

Total # of neighbors = 1200
Ave neighs/atom = 25
Neighbor list builds = 0
Dangerous builds = 0
OMP_NUM_THREADS environment is not set. Defaulting to 1 thread. (src/comm.cpp:98)
  using 1 OpenMP thread(s) per MPI task
Loaded 1 plugins from F:\Lammps\LAMMPS 64-bit 2Aug2023\plugins

The 'box' command has been removed and will be ignored

Reading restart file ...
  restart file = 2 Aug 2023, LAMMPS = 2 Aug 2023
  restoring atom style atomic from restart
  triclinic box = (0.0048023897 0.0072035845 0.0096047793) to (6.3351976 9.5027964 12.670395) with tilt (0 0 0)
  1 by 1 by 1 MPI processor grid
  pair style eam/alloy stores no restart info
  48 atoms
  read_restart CPU = 0.000 seconds
Changing box ...
  triclinic box = (0.0048023897 0.0072035845 0.0096047793) to (6.3351976 9.5027964 12.670395) with tilt (0 0 0.1266079)
Neighbor list info ...
  update: every = 1 steps, delay = 0 steps, check = yes
  max neighbors/atom: 2000, page size: 100000
  master list distance cutoff = 5.403
  ghost atom cutoff = 5.403
  1 neighbor lists, perpetual/occasional/extra = 1 0 0
  (1) pair eam/alloy, perpetual
      attributes: half, newton on
      pair build: half/nsq/newton
      stencil: none
      bin: none
Setting up cg style minimization ...
  Unit style    : metal
  Current step  : 19
Per MPI rank memory allocation (min/avg/max) = 4.428 | 4.428 | 4.428 Mbytes
   Step          Temp          PotEng         Press           Pxx            Pyy            Pzz            Pxy            Pxz            Pyz             Lx             Ly             Lz           Volume    
        19   0             -427.16192      385.66365      548.03325      226.39273      382.56496      6.383588e-05   2.0278747e-05 -16080.099      6.3303952      9.4955928      12.66079       761.05094    
        20   0             -427.16192      385.66678      548.04091      226.4008       382.55863      2.1870108e-06 -1.2092356e-05 -16080.099      6.3303952      9.4955928      12.66079       761.05094    
        21   0             -427.16192      385.66599      548.04031      226.40016      382.55751     -7.8362589e-07  5.2542215e-07 -16080.099      6.3303952      9.4955928      12.66079       761.05094    
        22   0             -427.16192      385.66591      548.04026      226.40004      382.55743     -4.5403085e-07  1.7483081e-07 -16080.099      6.3303952      9.4955928      12.66079       761.05094    
        23   0             -427.16192      385.6659       548.04026      226.40003      382.55742     -2.6416881e-07  7.0080454e-08 -16080.099      6.3303952      9.4955928      12.66079       761.05094    
        24   0             -427.16192      385.6659       548.04026      226.40003      382.55742     -8.9338107e-08 -8.4126158e-09 -16080.099      6.3303952      9.4955928      12.66079       761.05094    
        25   0             -427.16192      385.6659       548.04026      226.40003      382.55742     -2.4932257e-08  1.7638158e-09 -16080.099      6.3303952      9.4955928      12.66079       761.05094    
        26   0             -427.16192      385.6659       548.04026      226.40003      382.55742     -1.0360411e-08  6.4284257e-10 -16080.099      6.3303952      9.4955928      12.66079       761.05094    
        27   0             -427.16192      385.6659       548.04026      226.40003      382.55742     -1.2761699e-09  5.6559616e-10 -16080.099      6.3303952      9.4955928      12.66079       761.05094    
        28   0             -427.16192      385.6659       548.04026      226.40003      382.55742     -1.3423582e-10  1.0735506e-10 -16080.099      6.3303952      9.4955928      12.66079       761.05094    
        29   0             -427.16192      385.6659       548.04026      226.40003      382.55742      7.1861131e-11  2.5985574e-11 -16080.099      6.3303952      9.4955928      12.66079       761.05094    
        30   0             -427.16192      385.6659       548.04026      226.40003      382.55742      3.131562e-12   3.4792293e-11 -16080.099      6.3303952      9.4955928      12.66079       761.05094    
        31   0             -427.16192      385.6659       548.04026      226.40003      382.55742     -1.8902126e-11 -6.5119142e-12 -16080.099      6.3303952      9.4955928      12.66079       761.05094    
        32   0             -427.16192      385.6659       548.04026      226.40003      382.55742     -2.3040262e-11  8.2854009e-13 -16080.099      6.3303952      9.4955928      12.66079       761.05094    
        33   0             -427.16192      385.6659       548.04026      226.40003      382.55742     -1.9780425e-11 -5.4546697e-12 -16080.099      6.3303952      9.4955928      12.66079       761.05094    
        34   0             -427.16192      385.6659       548.04026      226.40003      382.55742      5.1278186e-11 -8.3479408e-12 -16080.099      6.3303952      9.4955928      12.66079       761.05094    
        35   0             -427.16192      385.6659       548.04026      226.40003      382.55742      2.1358531e-11 -3.8809913e-11 -16080.099      6.3303952      9.4955928      12.66079       761.05094    
        36   0             -427.16192      385.6659       548.04026      226.40003      382.55742     -5.7859944e-11  1.8206427e-11 -16080.099      6.3303952      9.4955928      12.66079       761.05094    
        37   0             -427.16192      385.6659       548.04026      226.40003      382.55742      6.1065459e-12  8.3712221e-12 -16080.099      6.3303952      9.4955928      12.66079       761.05094    
        38   0             -427.16192      385.6659       548.04026      226.40003      382.55742     -1.9680452e-11  3.4022641e-12 -16080.099      6.3303952      9.4955928      12.66079       761.05094    
        39   0             -427.16192      385.6659       548.04026      226.40003      382.55742     -1.1347575e-11  2.3203231e-11 -16080.099      6.3303952      9.4955928      12.66079       761.05094    
        40   0             -427.16192      385.6659       548.04026      226.40003      382.55742     -3.2465533e-11 -2.5431388e-12 -16080.099      6.3303952      9.4955928      12.66079       761.05094    
        41   0             -427.16192      385.6659       548.04026      226.40003      382.55742     -4.4713319e-11  7.5854557e-11 -16080.099      6.3303952      9.4955928      12.66079       761.05094    
Loop time of 0.001291 on 1 procs for 22 steps with 48 atoms

1210.3% CPU use with 1 MPI tasks x 1 OpenMP threads

Minimization stats:
  Stopping criterion = force tolerance
  Energy initial, next-to-last, final = 
      -427.16192445311  -427.161924492222  -427.161924492222
  Force two-norm initial, final = 0.0013236671 5.3896961e-11
  Force max component initial, final = 0.00030663423 1.3301749e-11
  Final line search alpha, max atom move = 1 1.3301749e-11
  Iterations, force evaluations = 22 44

MPI task timing breakdown:
Section |  min time  |  avg time  |  max time  |%varavg| %total
---------------------------------------------------------------
Pair    | 0.000981   | 0.000981   | 0.000981   |   0.0 | 75.99
Neigh   | 0          | 0          | 0          |   0.0 |  0.00
Comm    | 6.3e-05    | 6.3e-05    | 6.3e-05    |   0.0 |  4.88
Output  | 0.00019    | 0.00019    | 0.00019    |   0.0 | 14.72
Modify  | 0          | 0          | 0          |   0.0 |  0.00
Other   |            | 5.7e-05    |            |       |  4.42

Nlocal:             48 ave          48 max          48 min
Histogram: 1 0 0 0 0 0 0 0 0 0
Nghost:            498 ave         498 max         498 min
Histogram: 1 0 0 0 0 0 0 0 0 0
Neighs:           1200 ave        1200 max        1200 min
Histogram: 1 0 0 0 0 0 0 0 0 0

Total # of neighbors = 1200
Ave neighs/atom = 25
Neighbor list builds = 0
Dangerous builds = 0
OMP_NUM_THREADS environment is not set. Defaulting to 1 thread. (src/comm.cpp:98)
  using 1 OpenMP thread(s) per MPI task
Loaded 1 plugins from F:\Lammps\LAMMPS 64-bit 2Aug2023\plugins

The 'box' command has been removed and will be ignored

Reading restart file ...
  restart file = 2 Aug 2023, LAMMPS = 2 Aug 2023
  restoring atom style atomic from restart
  triclinic box = (0.0048023897 0.0072035845 0.0096047793) to (6.3351976 9.5027964 12.670395) with tilt (0 0 0)
  1 by 1 by 1 MPI processor grid
  pair style eam/alloy stores no restart info
  48 atoms
  read_restart CPU = 0.000 seconds
Changing box ...
  triclinic box = (0.0048023897 0.0072035845 0.0096047793) to (6.3351976 9.5027964 12.670395) with tilt (0 -0.1266079 0)
Neighbor list info ...
  update: every = 1 steps, delay = 0 steps, check = yes
  max neighbors/atom: 2000, page size: 100000
  master list distance cutoff = 5.403
  ghost atom cutoff = 5.403
  1 neighbor lists, perpetual/occasional/extra = 1 0 0
  (1) pair eam/alloy, perpetual
      attributes: half, newton on
      pair build: half/nsq/newton
      stencil: none
      bin: none
Setting up cg style minimization ...
  Unit style    : metal
  Current step  : 19
Per MPI rank memory allocation (min/avg/max) = 4.428 | 4.428 | 4.428 Mbytes
   Step          Temp          PotEng         Press           Pxx            Pyy            Pzz            Pxy            Pxz            Pyz             Lx             Ly             Lz           Volume    
        19   0             -427.16192      385.66367      226.39306      548.03296      382.56498      6.3070421e-05  16080.099     -1.7788954e-05  6.3303952      9.4955928      12.66079       761.05094    
        20   0             -427.16192      385.66672      226.40055      548.04102      382.55858      1.9702883e-06  16080.099      3.1572893e-06  6.3303952      9.4955928      12.66079       761.05094    
        21   0             -427.16192      385.66599      226.40008      548.04039      382.5575      -7.8650783e-07  16080.099      4.906823e-07   6.3303952      9.4955928      12.66079       761.05094    
        22   0             -427.16192      385.66591      226.40004      548.04027      382.55743     -4.3561217e-07  16080.099      4.5613948e-09  6.3303952      9.4955928      12.66079       761.05094    
        23   0             -427.16192      385.6659       226.40003      548.04026      382.55742     -2.6895519e-07  16080.099     -1.5251083e-08  6.3303952      9.4955928      12.66079       761.05094    
        24   0             -427.16192      385.6659       226.40003      548.04026      382.55742     -9.3133057e-08  16080.099     -7.974728e-09   6.3303952      9.4955928      12.66079       761.05094    
        25   0             -427.16192      385.6659       226.40003      548.04026      382.55742     -3.0991876e-08  16080.099      3.8274955e-09  6.3303952      9.4955928      12.66079       761.05094    
        26   0             -427.16192      385.6659       226.40003      548.04026      382.55742     -1.2016152e-08  16080.099      8.6291606e-10  6.3303952      9.4955928      12.66079       761.05094    
        27   0             -427.16192      385.6659       226.40003      548.04026      382.55742     -1.785125e-09   16080.099     -2.6177302e-11  6.3303952      9.4955928      12.66079       761.05094    
        28   0             -427.16192      385.6659       226.40003      548.04026      382.55742     -8.4622931e-11  16080.099      3.7396145e-11  6.3303952      9.4955928      12.66079       761.05094    
        29   0             -427.16192      385.6659       226.40003      548.04026      382.55742      2.6049939e-11  16080.099      8.0401713e-11  6.3303952      9.4955928      12.66079       761.05094    
        30   0             -427.16192      385.6659       226.40003      548.04026      382.55742      3.7464163e-11  16080.099      5.6094218e-11  6.3303952      9.4955928      12.66079       761.05094    
        31   0             -427.16192      385.6659       226.40003      548.04026      382.55742     -9.1737419e-12  16080.099     -3.7396145e-12  6.3303952      9.4955928      12.66079       761.05094    
        32   0             -427.16192      385.6659       226.40003      548.04026      382.55742     -6.6155845e-11  16080.099      6.5443255e-12  6.3303952      9.4955928      12.66079       761.05094    
        33   0             -427.16192      385.6659       226.40003      548.04026      382.55742     -2.7712041e-11  16080.099     -5.14197e-11    6.3303952      9.4955928      12.66079       761.05094    
        34   0             -427.16192      385.6659       226.40003      548.04026      382.55742     -5.6874826e-12  16080.099     -1.4958458e-11  6.3303952      9.4955928      12.66079       761.05094    
        35   0             -427.16192      385.6659       226.40003      548.04026      382.55742      1.8457043e-11  16080.099     -6.5443255e-12  6.3303952      9.4955928      12.66079       761.05094    
        36   0             -427.16192      385.6659       226.40003      548.04026      382.55742      1.7299826e-11  16080.099     -2.9916916e-11  6.3303952      9.4955928      12.66079       761.05094    
        37   0             -427.16192      385.6659       226.40003      548.04026      382.55742     -3.2177941e-11  16080.099     -2.7112205e-11  6.3303952      9.4955928      12.66079       761.05094    
        38   0             -427.16192      385.6659       226.40003      548.04026      382.55742     -9.0660089e-13  16080.099      2.9916916e-11  6.3303952      9.4955928      12.66079       761.05094    
        39   0             -427.16192      385.6659       226.40003      548.04026      382.55742      2.9807357e-11  16080.099     -1.1218844e-11  6.3303952      9.4955928      12.66079       761.05094    
        40   0             -427.16192      385.6659       226.40003      548.04026      382.55742     -8.6871173e-13  16080.099      4.113576e-11   6.3303952      9.4955928      12.66079       761.05094    
        41   0             -427.16192      385.6659       226.40003      548.04026      382.55742     -1.7108097e-11  16080.099      1.2153747e-11  6.3303952      9.4955928      12.66079       761.05094    
        42   0             -427.16192      385.6659       226.40003      548.04026      382.55742     -3.6594539e-11  16080.099     -7.4792291e-12  6.3303952      9.4955928      12.66079       761.05094    
Loop time of 0.001169 on 1 procs for 23 steps with 48 atoms

0.0% CPU use with 1 MPI tasks x 1 OpenMP threads

Minimization stats:
  Stopping criterion = force tolerance
  Energy initial, next-to-last, final = 
     -427.161924453094  -427.161924492222  -427.161924492223
  Force two-norm initial, final = 0.0013251637 4.1380047e-11
  Force max component initial, final = 0.00030851524 9.474449e-12
  Final line search alpha, max atom move = 1 9.474449e-12
  Iterations, force evaluations = 23 46

MPI task timing breakdown:
Section |  min time  |  avg time  |  max time  |%varavg| %total
---------------------------------------------------------------
Pair    | 0.000883   | 0.000883   | 0.000883   |   0.0 | 75.53
Neigh   | 0          | 0          | 0          |   0.0 |  0.00
Comm    | 6.5e-05    | 6.5e-05    | 6.5e-05    |   0.0 |  5.56
Output  | 0.000169   | 0.000169   | 0.000169   |   0.0 | 14.46
Modify  | 0          | 0          | 0          |   0.0 |  0.00
Other   |            | 5.2e-05    |            |       |  4.45

Nlocal:             48 ave          48 max          48 min
Histogram: 1 0 0 0 0 0 0 0 0 0
Nghost:            498 ave         498 max         498 min
Histogram: 1 0 0 0 0 0 0 0 0 0
Neighs:           1200 ave        1200 max        1200 min
Histogram: 1 0 0 0 0 0 0 0 0 0

Total # of neighbors = 1200
Ave neighs/atom = 25
Neighbor list builds = 0
Dangerous builds = 0
OMP_NUM_THREADS environment is not set. Defaulting to 1 thread. (src/comm.cpp:98)
  using 1 OpenMP thread(s) per MPI task
Loaded 1 plugins from F:\Lammps\LAMMPS 64-bit 2Aug2023\plugins

The 'box' command has been removed and will be ignored

Reading restart file ...
  restart file = 2 Aug 2023, LAMMPS = 2 Aug 2023
  restoring atom style atomic from restart
  triclinic box = (0.0048023897 0.0072035845 0.0096047793) to (6.3351976 9.5027964 12.670395) with tilt (0 0 0)
  1 by 1 by 1 MPI processor grid
  pair style eam/alloy stores no restart info
  48 atoms
  read_restart CPU = 0.000 seconds
Changing box ...
  triclinic box = (0.0048023897 0.0072035845 0.0096047793) to (6.3351976 9.5027964 12.670395) with tilt (0 0.1266079 0)
Neighbor list info ...
  update: every = 1 steps, delay = 0 steps, check = yes
  max neighbors/atom: 2000, page size: 100000
  master list distance cutoff = 5.403
  ghost atom cutoff = 5.403
  1 neighbor lists, perpetual/occasional/extra = 1 0 0
  (1) pair eam/alloy, perpetual
      attributes: half, newton on
      pair build: half/nsq/newton
      stencil: none
      bin: none
Setting up cg style minimization ...
  Unit style    : metal
  Current step  : 19
Per MPI rank memory allocation (min/avg/max) = 4.428 | 4.428 | 4.428 Mbytes
   Step          Temp          PotEng         Press           Pxx            Pyy            Pzz            Pxy            Pxz            Pyz             Lx             Ly             Lz           Volume    
        19   0             -427.16192      385.66364      226.39298      548.03296      382.565        6.8560771e-05 -16080.099     -2.9628515e-05  6.3303952      9.4955928      12.66079       761.05094    
        20   0             -427.16192      385.66677      226.40061      548.04108      382.55863      1.2507207e-06 -16080.099      3.7446598e-06  6.3303952      9.4955928      12.66079       761.05094    
        21   0             -427.16192      385.666        226.40009      548.04038      382.55752     -6.6116271e-07 -16080.099      6.427556e-07   6.3303952      9.4955928      12.66079       761.05094    
        22   0             -427.16192      385.66591      226.40004      548.04027      382.55743     -4.4486571e-07 -16080.099      1.423933e-07   6.3303952      9.4955928      12.66079       761.05094    
        23   0             -427.16192      385.6659       226.40003      548.04026      382.55742     -2.6940705e-07 -16080.099      1.4056744e-08  6.3303952      9.4955928      12.66079       761.05094    
        24   0             -427.16192      385.6659       226.40003      548.04026      382.55742     -8.7495034e-08 -16080.099      9.1349434e-09  6.3303952      9.4955928      12.66079       761.05094    
        25   0             -427.16192      385.6659       226.40003      548.04026      382.55742     -2.6980638e-08 -16080.099      1.0777569e-08  6.3303952      9.4955928      12.66079       761.05094    
        26   0             -427.16192      385.6659       226.40003      548.04026      382.55742     -9.4855732e-09 -16080.099      2.1965561e-09  6.3303952      9.4955928      12.66079       761.05094    
        27   0             -427.16192      385.6659       226.40003      548.04026      382.55742     -1.1926198e-09 -16080.099     -5.2822055e-11  6.3303952      9.4955928      12.66079       761.05094    
        28   0             -427.16192      385.6659       226.40003      548.04026      382.55742     -2.3195585e-10 -16080.099      9.1153105e-11  6.3303952      9.4955928      12.66079       761.05094    
[...]
        35   0             -427.16192      385.6659       226.40003      548.04026      382.55742      3.0060484e-11 -16080.099      1.9632976e-11  6.3303952      9.4955928      12.66079       761.05094    
        36   0             -427.16192      385.6659       226.40003      548.04026      382.55742      8.8697157e-13 -16080.099     -1.8698073e-12  6.3303952      9.4955928      12.66079       761.05094    
        37   0             -427.16192      385.6659       226.40003      548.04026      382.55742     -6.1567148e-11 -16080.099     -3.0384368e-11  6.3303952      9.4955928      12.66079       761.05094    
        38   0             -427.16192      385.6659       226.40003      548.04026      382.55742      1.5603943e-11 -16080.099      6.5443255e-12  6.3303952      9.4955928      12.66079       761.05094    
        39   0             -427.16192      385.6659       226.40003      548.04026      382.55742      3.7354148e-11 -16080.099      4.113576e-11   6.3303952      9.4955928      12.66079       761.05094    
        40   0             -427.16192      385.6659       226.40003      548.04026      382.55742      2.0509677e-11 -16080.099      9.3490364e-12  6.3303952      9.4955928      12.66079       761.05094    
        41   0             -427.16192      385.6659       226.40003      548.04026      382.55742      2.5407878e-11 -16080.099     -8.741349e-11   6.3303952      9.4955928      12.66079       761.05094    
        42   0             -427.16192      385.6659       226.40003      548.04026      382.55742      5.2871357e-12 -16080.099     -2.7112205e-11  6.3303952      9.4955928      12.66079       761.05094    
Loop time of 0.001162 on 1 procs for 23 steps with 48 atoms

0.0% CPU use with 1 MPI tasks x 1 OpenMP threads

Minimization stats:
  Stopping criterion = force tolerance
  Energy initial, next-to-last, final = 
     -427.161924453343  -427.161924492222  -427.161924492222
  Force two-norm initial, final = 0.0013147968 4.226796e-11
  Force max component initial, final = 0.0003071956 1.1435242e-11
  Final line search alpha, max atom move = 1 1.1435242e-11
  Iterations, force evaluations = 23 46

MPI task timing breakdown:
Section |  min time  |  avg time  |  max time  |%varavg| %total
---------------------------------------------------------------
Pair    | 0.00088    | 0.00088    | 0.00088    |   0.0 | 75.73
Neigh   | 0          | 0          | 0          |   0.0 |  0.00
Comm    | 6.4e-05    | 6.4e-05    | 6.4e-05    |   0.0 |  5.51
Output  | 0.000166   | 0.000166   | 0.000166   |   0.0 | 14.29
Modify  | 0          | 0          | 0          |   0.0 |  0.00
Other   |            | 5.2e-05    |            |       |  4.48

Nlocal:             48 ave          48 max          48 min
Histogram: 1 0 0 0 0 0 0 0 0 0
Nghost:            498 ave         498 max         498 min
Histogram: 1 0 0 0 0 0 0 0 0 0
Neighs:           1200 ave        1200 max        1200 min
Histogram: 1 0 0 0 0 0 0 0 0 0

Total # of neighbors = 1200
Ave neighs/atom = 25
Neighbor list builds = 0
Dangerous builds = 0
OMP_NUM_THREADS environment is not set. Defaulting to 1 thread. (src/comm.cpp:98)
  using 1 OpenMP thread(s) per MPI task
Loaded 1 plugins from F:\Lammps\LAMMPS 64-bit 2Aug2023\plugins

The 'box' command has been removed and will be ignored

Reading restart file ...
  restart file = 2 Aug 2023, LAMMPS = 2 Aug 2023
  restoring atom style atomic from restart
  triclinic box = (0.0048023897 0.0072035845 0.0096047793) to (6.3351976 9.5027964 12.670395) with tilt (0 0 0)
  1 by 1 by 1 MPI processor grid
  pair style eam/alloy stores no restart info
  48 atoms
  read_restart CPU = 0.000 seconds
Changing box ...
  triclinic box = (0.0048023897 0.0072035845 0.0096047793) to (6.3351976 9.5027964 12.670395) with tilt (-0.094955928 0 0)
Neighbor list info ...
  update: every = 1 steps, delay = 0 steps, check = yes
  max neighbors/atom: 2000, page size: 100000
  master list distance cutoff = 5.403
  ghost atom cutoff = 5.403
  1 neighbor lists, perpetual/occasional/extra = 1 0 0
  (1) pair eam/alloy, perpetual
      attributes: half, newton on
      pair build: half/nsq/newton
      stencil: none
      bin: none
Setting up cg style minimization ...
  Unit style    : metal
  Current step  : 19
Per MPI rank memory allocation (min/avg/max) = 4.428 | 4.428 | 4.428 Mbytes
   Step          Temp          PotEng         Press           Pxx            Pyy            Pzz            Pxy            Pxz            Pyz             Lx             Ly             Lz           Volume    
        19   0             -427.16192      385.66476      226.39308      382.56567      548.03553      16080.099      2.3424768e-05 -2.1414562e-05  6.3303952      9.4955928      12.66079       761.05094    
        20   0             -427.16192      385.66678      226.40056      382.5585       548.04129      16080.099     -1.1697018e-05  1.715967e-06   6.3303952      9.4955928      12.66079       761.05094    
        21   0             -427.16192      385.66599      226.4001       382.55754      548.04035      16080.099      3.1875748e-07  7.6160756e-07  6.3303952      9.4955928      12.66079       761.05094    
        22   0             -427.16192      385.66591      226.40004      382.55743      548.04027      16080.099      1.5838599e-07  9.8439276e-08  6.3303952      9.4955928      12.66079       761.05094    
        23   0             -427.16192      385.6659       226.40003      382.55742      548.04026      16080.099      4.9545069e-08  1.3976809e-10  6.3303952      9.4955928      12.66079       761.05094    
        24   0             -427.16192      385.6659       226.40003      382.55742      548.04026      16080.099     -1.8019117e-08  7.7774634e-09  6.3303952      9.4955928      12.66079       761.05094    
        25   0             -427.16192      385.6659       226.40003      382.55742      548.04026      16080.099     -6.6911711e-10  5.0639056e-09  6.3303952      9.4955928      12.66079       761.05094    
        26   0             -427.16192      385.6659       226.40003      382.55742      548.04026      16080.099     -5.8873365e-10  1.0985118e-09  6.3303952      9.4955928      12.66079       761.05094    
        27   0             -427.16192      385.6659       226.40003      382.55742      548.04026      16080.099      1.0150278e-09 -3.7442891e-10  6.3303952      9.4955928      12.66079       761.05094    
        28   0             -427.16192      385.6659       226.40003      382.55742      548.04026      16080.099     -5.1134847e-11  1.8464347e-10  6.3303952      9.4955928      12.66079       761.05094    
        29   0             -427.16192      385.6659       226.40003      382.55742      548.04026      16080.099      5.4224411e-11  6.4508351e-11  6.3303952      9.4955928      12.66079       761.05094    
        30   0             -427.16192      385.6659       226.40003      382.55742      548.04026      16080.099      3.2407558e-11  4.3005567e-11  6.3303952      9.4955928      12.66079       761.05094    
        31   0             -427.16192      385.6659       226.40003      382.55742      548.04026      16080.099      2.1586779e-11 -2.1502784e-11  6.3303952      9.4955928      12.66079       761.05094    
        32   0             -427.16192      385.6659       226.40003      382.55742      548.04026      16080.099      5.9600107e-12 -1.4958458e-11  6.3303952      9.4955928      12.66079       761.05094    
        33   0             -427.16192      385.6659       226.40003      382.55742      548.04026      16080.099     -6.278097e-11  -1.8698073e-12  6.3303952      9.4955928      12.66079       761.05094    
        34   0             -427.16192      385.6659       226.40003      382.55742      548.04026      16080.099      2.9544416e-12 -1.0751392e-11  6.3303952      9.4955928      12.66079       761.05094    
        35   0             -427.16192      385.6659       226.40003      382.55742      548.04026      16080.099     -4.1048113e-12 -4.5810278e-11  6.3303952      9.4955928      12.66079       761.05094    
        36   0             -427.16192      385.6659       226.40003      382.55742      548.04026      16080.099     -6.0951335e-12  4.6745182e-11  6.3303952      9.4955928      12.66079       761.05094    
        37   0             -427.16192      385.6659       226.40003      382.55742      548.04026      16080.099      4.5839494e-11 -4.2070664e-12  6.3303952      9.4955928      12.66079       761.05094    
        38   0             -427.16192      385.6659       226.40003      382.55742      548.04026      16080.099      6.4493743e-11 -6.0768736e-12  6.3303952      9.4955928      12.66079       761.05094    
        39   0             -427.16192      385.6659       226.40003      382.55742      548.04026      16080.099     -1.7529443e-11 -1.7295717e-11  6.3303952      9.4955928      12.66079       761.05094    
        40   0             -427.16192      385.6659       226.40003      382.55742      548.04026      16080.099     -4.5751847e-11  3.0384368e-11  6.3303952      9.4955928      12.66079       761.05094    
        41   0             -427.16192      385.6659       226.40003      382.55742      548.04026      16080.099     -5.5133751e-11 -5.5159315e-11  6.3303952      9.4955928      12.66079       761.05094    
Loop time of 0.001147 on 1 procs for 22 steps with 48 atoms

0.0% CPU use with 1 MPI tasks x 1 OpenMP threads

Minimization stats:
  Stopping criterion = force tolerance
  Energy initial, next-to-last, final = 
     -427.161924452923  -427.161924492223  -427.161924492223
  Force two-norm initial, final = 0.001329942 5.128663e-11
  Force max component initial, final = 0.0003060494 1.0259821e-11
  Final line search alpha, max atom move = 1 1.0259821e-11
  Iterations, force evaluations = 22 44

MPI task timing breakdown:
Section |  min time  |  avg time  |  max time  |%varavg| %total
---------------------------------------------------------------
Pair    | 0.000845   | 0.000845   | 0.000845   |   0.0 | 73.67
Neigh   | 0          | 0          | 0          |   0.0 |  0.00
Comm    | 5.3e-05    | 5.3e-05    | 5.3e-05    |   0.0 |  4.62
Output  | 0.000182   | 0.000182   | 0.000182   |   0.0 | 15.87
Modify  | 0          | 0          | 0          |   0.0 |  0.00
Other   |            | 6.7e-05    |            |       |  5.84

Nlocal:             48 ave          48 max          48 min
Histogram: 1 0 0 0 0 0 0 0 0 0
Nghost:            498 ave         498 max         498 min
Histogram: 1 0 0 0 0 0 0 0 0 0
Neighs:           1200 ave        1200 max        1200 min
Histogram: 1 0 0 0 0 0 0 0 0 0

Total # of neighbors = 1200
Ave neighs/atom = 25
Neighbor list builds = 0
Dangerous builds = 0
OMP_NUM_THREADS environment is not set. Defaulting to 1 thread. (src/comm.cpp:98)
  using 1 OpenMP thread(s) per MPI task
Loaded 1 plugins from F:\Lammps\LAMMPS 64-bit 2Aug2023\plugins

The 'box' command has been removed and will be ignored

Reading restart file ...
  restart file = 2 Aug 2023, LAMMPS = 2 Aug 2023
  restoring atom style atomic from restart
  triclinic box = (0.0048023897 0.0072035845 0.0096047793) to (6.3351976 9.5027964 12.670395) with tilt (0 0 0)
  1 by 1 by 1 MPI processor grid
  pair style eam/alloy stores no restart info
  48 atoms
  read_restart CPU = 0.000 seconds
Changing box ...
  triclinic box = (0.0048023897 0.0072035845 0.0096047793) to (6.3351976 9.5027964 12.670395) with tilt (0.094955928 0 0)
Neighbor list info ...
  update: every = 1 steps, delay = 0 steps, check = yes
  max neighbors/atom: 2000, page size: 100000
  master list distance cutoff = 5.403
  ghost atom cutoff = 5.403
  1 neighbor lists, perpetual/occasional/extra = 1 0 0
  (1) pair eam/alloy, perpetual
      attributes: half, newton on
      pair build: half/nsq/newton
      stencil: none
      bin: none
Setting up cg style minimization ...
  Unit style    : metal
  Current step  : 19
Per MPI rank memory allocation (min/avg/max) = 4.428 | 4.428 | 4.428 Mbytes
   Step          Temp          PotEng         Press           Pxx            Pyy            Pzz            Pxy            Pxz            Pyz             Lx             Ly             Lz           Volume    
        19   0             -427.16192      385.66473      226.39296      382.56571      548.03552     -16080.099      2.8915104e-05 -2.5992849e-05  6.3303952      9.4955928      12.66079       761.05094    
        20   0             -427.16192      385.66675      226.40062      382.55839      548.04123     -16080.099     -1.200702e-05   4.8727393e-06  6.3303952      9.4955928      12.66079       761.05094    
        21   0             -427.16192      385.66599      226.40008      382.55755      548.04034     -16080.099      4.7059347e-07  4.0612214e-07  6.3303952      9.4955928      12.66079       761.05094    
        22   0             -427.16192      385.66591      226.40004      382.55743      548.04027     -16080.099      1.5007896e-07  3.9550163e-08  6.3303952      9.4955928      12.66079       761.05094    
        23   0             -427.16192      385.6659       226.40003      382.55742      548.04026     -16080.099      3.499375e-08   1.8316632e-08  6.3303952      9.4955928      12.66079       761.05094    
        24   0             -427.16192      385.6659       226.40003      382.55742      548.04026     -16080.099     -1.5354938e-08 -7.2520475e-09  6.3303952      9.4955928      12.66079       761.05094    
        25   0             -427.16192      385.6659       226.40003      382.55742      548.04026     -16080.099     -1.8844224e-09  6.053501e-09   6.3303952      9.4955928      12.66079       761.05094    
        26   0             -427.16192      385.6659       226.40003      382.55742      548.04026     -16080.099     -6.1039712e-10  1.2639897e-09  6.3303952      9.4955928      12.66079       761.05094    
        27   0             -427.16192      385.6659       226.40003      382.55742      548.04026     -16080.099      4.3168445e-10  1.3369122e-10  6.3303952      9.4955928      12.66079       761.05094    
        28   0             -427.16192      385.6659       226.40003      382.55742      548.04026     -16080.099      2.0589792e-11  4.5810278e-11  6.3303952      9.4955928      12.66079       761.05094    
        29   0             -427.16192      385.6659       226.40003      382.55742      548.04026     -16080.099     -5.1704553e-11  1.3088651e-11  6.3303952      9.4955928      12.66079       761.05094    
        30   0             -427.16192      385.6659       226.40003      382.55742      548.04026     -16080.099      4.4437138e-11  2.8047109e-11  6.3303952      9.4955928      12.66079       761.05094    
        31   0             -427.16192      385.6659       226.40003      382.55742      548.04026     -16080.099     -1.4688213e-11  1.7763169e-11  6.3303952      9.4955928      12.66079       761.05094    
        32   0             -427.16192      385.6659       226.40003      382.55742      548.04026     -16080.099     -3.684835e-11   9.3490364e-13  6.3303952      9.4955928      12.66079       761.05094    
        33   0             -427.16192      385.6659       226.40003      382.55742      548.04026     -16080.099     -1.8968318e-11  1.8698073e-11  6.3303952      9.4955928      12.66079       761.05094    
        34   0             -427.16192      385.6659       226.40003      382.55742      548.04026     -16080.099      7.7932983e-12 -1.9632976e-11  6.3303952      9.4955928      12.66079       761.05094    
        35   0             -427.16192      385.6659       226.40003      382.55742      548.04026     -16080.099      9.6558016e-12 -2.6177302e-11  6.3303952      9.4955928      12.66079       761.05094    
        36   0             -427.16192      385.6659       226.40003      382.55742      548.04026     -16080.099      3.4985847e-12 -4.6745182e-12  6.3303952      9.4955928      12.66079       761.05094    
        37   0             -427.16192      385.6659       226.40003      382.55742      548.04026     -16080.099      2.1583127e-11  3.6461242e-11  6.3303952      9.4955928      12.66079       761.05094    
        38   0             -427.16192      385.6659       226.40003      382.55742      548.04026     -16080.099      1.0663745e-11  9.3490364e-13  6.3303952      9.4955928      12.66079       761.05094    
        39   0             -427.16192      385.6659       226.40003      382.55742      548.04026     -16080.099     -1.0459234e-11 -7.4792291e-12  6.3303952      9.4955928      12.66079       761.05094    
        40   0             -427.16192      385.6659       226.40003      382.55742      548.04026     -16080.099     -1.7492924e-11  3.8331049e-11  6.3303952      9.4955928      12.66079       761.05094    
        41   0             -427.16192      385.6659       226.40003      382.55742      548.04026     -16080.099     -5.2734408e-11  4.6745182e-12  6.3303952      9.4955928      12.66079       761.05094    
Loop time of 0.001119 on 1 procs for 22 steps with 48 atoms

0.0% CPU use with 1 MPI tasks x 1 OpenMP threads

Minimization stats:
  Stopping criterion = force tolerance
  Energy initial, next-to-last, final = 
      -427.16192445355  -427.161924492222  -427.161924492223
  Force two-norm initial, final = 0.0013070527 5.1684334e-11
  Force max component initial, final = 0.00030966634 1.1627671e-11
  Final line search alpha, max atom move = 1 1.1627671e-11
  Iterations, force evaluations = 22 44

MPI task timing breakdown:
Section |  min time  |  avg time  |  max time  |%varavg| %total
---------------------------------------------------------------
Pair    | 0.000848   | 0.000848   | 0.000848   |   0.0 | 75.78
Neigh   | 0          | 0          | 0          |   0.0 |  0.00
Comm    | 6e-05      | 6e-05      | 6e-05      |   0.0 |  5.36
Output  | 0.000159   | 0.000159   | 0.000159   |   0.0 | 14.21
Modify  | 0          | 0          | 0          |   0.0 |  0.00
Other   |            | 5.2e-05    |            |       |  4.65

Nlocal:             48 ave          48 max          48 min
Histogram: 1 0 0 0 0 0 0 0 0 0
Nghost:            498 ave         498 max         498 min
Histogram: 1 0 0 0 0 0 0 0 0 0
Neighs:           1200 ave        1200 max        1200 min
Histogram: 1 0 0 0 0 0 0 0 0 0

Total # of neighbors = 1200
Ave neighs/atom = 25
Neighbor list builds = 0
Dangerous builds = 0
=========================================
Components of the Elastic Constant Tensor
=========================================
Elastic Constant C11all = 509.121343706033 GPa
Elastic Constant C22all = 509.121343706037 GPa
Elastic Constant C33all = 509.121343706033 GPa
Elastic Constant C12all = 199.886947512469 GPa
Elastic Constant C13all = 199.886947512469 GPa
Elastic Constant C23all = 199.886947512469 GPa
Elastic Constant C44all = 160.800986499612 GPa
Elastic Constant C55all = 160.800986499612 GPa
Elastic Constant C66all = 160.800986499612 GPa
Elastic Constant C14all = -3.21692475658272e-13 GPa
Elastic Constant C15all = 1.95313701218545e-14 GPa
Elastic Constant C16all = 5.59107941519085e-14 GPa
Elastic Constant C24all = -2.09373999302076e-13 GPa
Elastic Constant C25all = -5.46155826988505e-15 GPa
Elastic Constant C26all = 4.2678069256906e-13 GPa
Elastic Constant C34all = -2.27437717019635e-14 GPa
Elastic Constant C35all = 5.88556038403967e-13 GPa
Elastic Constant C36all = -1.8962105158541e-14 GPa
Elastic Constant C45all = -2.14421267574118e-13 GPa
Elastic Constant C46all = -9.10794946465595e-14 GPa
Elastic Constant C56all = -1.1070254223858e-13 GPa
=========================================
Average properties for a cubic crystal
=========================================
Bulk Modulus = 302.965079576991 GPa
Shear Modulus 1 = 160.800986499612 GPa
Shear Modulus 2 = 154.617198096782 GPa
Poisson Ratio = 0.281924696774622
Total wall time: 0:00:00
