LAMMPS (2 Aug 2023 - Update 3)
OMP_NUM_THREADS environment is not set. Defaulting to 1 thread. (src/comm.cpp:98)
  using 1 OpenMP thread(s) per MPI task
Loaded 1 plugins from F:\Lammps\LAMMPS 64-bit 2Aug2023\plugins
Lattice spacing in x,y,z = 3.17 3.17 3.17
Created triclinic box = (0 0 0) to (6.34 9.51 12.68) with tilt (0 0 0)
  1 by 1 by 1 MPI processor grid
Created 48 atoms
  using lattice units in triclinic box = (0 0 0) to (6.34 9.51 12.68) with tilt (0 0 0)
  create_atoms CPU = 0.000 seconds
Neighbor list info ...
  update: every = 1 steps, delay = 0 steps, check = yes
  max neighbors/atom: 2000, page size: 100000
  master list distance cutoff = 5.403
  ghost atom cutoff = 5.403
  1 neighbor lists, perpetual/occasional/extra = 1 0 0
  (1) pair eam/alloy, perpetual
      attributes: half, newton on
      pair build: half/nsq/newton
      stencil: none
      bin: none
Setting up cg style minimization ...
  Unit style    : metal
  Current step  : 0
WARNING: Energy due to 3 extra global DOFs will be included in minimizer energies
 (src/min.cpp:228)
Per MPI rank memory allocation (min/avg/max) = 4.428 | 4.428 | 4.428 Mbytes
   Step          Temp          PotEng         Press           Pxx            Pyy            Pzz            Pxy            Pxz            Pyz             Lx             Ly             Lz           Volume    
         0   0             -427.18485     -14061.267     -14061.267     -14061.267     -14061.267      1.2563925e-11  9.7719413e-12 -1.1167933e-11  6.34           9.51           12.68          764.52031    
         1   0             -427.1868      -13140.267     -13140.267     -13140.267     -13140.267     -9.7749194e-12 -1.1171284e-11  2.9790091e-11  6.339366       9.509049       12.678732      764.29098    
         2   0             -427.18861     -12216.068     -12216.068     -12216.068     -12216.068      3.6317477e-11  8.8465871e-12  2.6074151e-11  6.338732       9.508098       12.677464      764.06169    
         3   0             -427.19029     -11288.515     -11288.515     -11288.515     -11288.515      5.588995e-12   8.8958171e-11 -2.235598e-11   6.338098       9.507147       12.676196      763.83245    
         4   0             -427.19184     -10360.866     -10360.866     -10360.866     -10360.866     -1.3510792e-11 -4.4259491e-11 -9.4109655e-11  6.337464       9.506196       12.674928      763.60325    
         5   0             -427.19326     -9433.9647     -9433.9647     -9433.9647     -9433.9647      3.4952192e-11  3.2622046e-11 -4.9399099e-11  6.33683        9.505245       12.67366       763.3741     
         6   0             -427.19454     -8505.9502     -8505.9502     -8505.9502     -8505.9502     -4.6616914e-13  2.5173134e-11 -9.3233828e-12  6.336196       9.504294       12.672392      763.145      
         7   0             -427.19569     -7577.4287     -7577.4287     -7577.4287     -7577.4287      3.7304728e-12 -2.7978546e-12  1.6787128e-11  6.335562       9.503343       12.671124      762.91594    
         8   0             -427.1967      -6648.3976     -6648.3976     -6648.3976     -6648.3976      2.9386295e-11 -2.4255354e-11  9.5155621e-11  6.334928       9.502392       12.669856      762.68693    
         9   0             -427.19759     -5718.8365     -5718.8365     -5718.8365     -5718.8365      3.8726903e-11 -2.332946e-12  -5.225799e-11   6.334294       9.501441       12.668588      762.45796    
        10   0             -427.19834     -4788.7687     -4788.7687     -4788.7687     -4788.7687      0             -2.2403008e-11  1.1201504e-11  6.33366        9.50049        12.66732       762.22904    
        11   0             -427.19896     -3858.211      -3858.211      -3858.211      -3858.211       5.9759298e-11  1.6340433e-11  2.9879649e-11  6.333026       9.499539       12.666052      762.00017    
        12   0             -427.19944     -2927.0361     -2927.0361     -2927.0361     -2927.0361     -6.5381366e-12 -4.1096859e-11  7.0051463e-11  6.332392       9.498588       12.664784      761.77134    
        13   0             -427.19979     -1993.6933     -1993.6933     -1993.6933     -1993.6933     -1.1211601e-11  4.0174905e-11 -2.8029003e-11  6.331758       9.497637       12.663516      761.54256    
        14   0             -427.20001     -1074.988      -1074.988      -1074.988      -1074.988       2.289723e-11  -3.2710329e-12 -4.9532784e-11  6.331124       9.496686       12.662248      761.31382    
        15   0             -427.2001      -142.13918     -142.13918     -142.13918     -142.13918      3.1317157e-11  3.9264189e-11 -2.4306403e-11  6.33049        9.495735       12.66098       761.08513    
        16   0             -427.2001       0.95789324     0.95789324     0.95789324     0.95789324    -3.7864317e-11  5.9833851e-11 -5.4224427e-11  6.3303946      9.4955919      12.660789      761.05071    
        17   0             -427.2001      -0.015746567   -0.015746567   -0.015746566   -0.015746567   -4.9083149e-11  1.6360814e-11  6.5443254e-12  6.3303952      9.4955928      12.66079       761.05095    
        18   0             -427.2001       3.994392e-05   3.9944049e-05  3.9943684e-05  3.9944027e-05 -5.3290215e-11 -4.6745182e-13  2.8982013e-11  6.3303952      9.4955928      12.66079       761.05094    
        19   0             -427.2001       5.0227698e-10  3.0664839e-10  4.7913811e-10  7.2104443e-10 -9.3631975e-13  6.0768736e-12 -3.2721627e-11  6.3303952      9.4955928      12.66079       761.05094    
Loop time of 0.001415 on 1 procs for 19 steps with 48 atoms

0.0% CPU use with 1 MPI tasks x 1 OpenMP threads

Minimization stats:
  Stopping criterion = force tolerance
  Energy initial, next-to-last, final = 
     -427.184848841919  -427.200100306399  -427.200100306395
  Force two-norm initial, final = 11.621542 7.650787e-13
  Force max component initial, final = 6.7097004 3.4302347e-13
  Final line search alpha, max atom move = 1 3.4302347e-13
  Iterations, force evaluations = 19 23

MPI task timing breakdown:
Section |  min time  |  avg time  |  max time  |%varavg| %total
---------------------------------------------------------------
Pair    | 0.000477   | 0.000477   | 0.000477   |   0.0 | 33.71
Neigh   | 0          | 0          | 0          |   0.0 |  0.00
Comm    | 3.7e-05    | 3.7e-05    | 3.7e-05    |   0.0 |  2.61
Output  | 0.000171   | 0.000171   | 0.000171   |   0.0 | 12.08
Modify  | 0          | 0          | 0          |   0.0 |  0.00
Other   |            | 0.00073    |            |       | 51.59

Nlocal:             48 ave          48 max          48 min
Histogram: 1 0 0 0 0 0 0 0 0 0
Nghost:            498 ave         498 max         498 min
Histogram: 1 0 0 0 0 0 0 0 0 0
Neighs:           1200 ave        1200 max        1200 min
Histogram: 1 0 0 0 0 0 0 0 0 0

Total # of neighbors = 1200
Ave neighs/atom = 25
Neighbor list builds = 0
Dangerous builds = 0
Displacing atoms ...
System init for write_restart ...
OMP_NUM_THREADS environment is not set. Defaulting to 1 thread. (src/comm.cpp:98)
  using 1 OpenMP thread(s) per MPI task
Loaded 1 plugins from F:\Lammps\LAMMPS 64-bit 2Aug2023\plugins

The 'box' command has been removed and will be ignored

Reading restart file ...
  restart file = 2 Aug 2023, LAMMPS = 2 Aug 2023
  restoring atom style atomic from restart
  triclinic box = (0.0048023897 0.0072035845 0.0096047793) to (6.3351976 9.5027964 12.670395) with tilt (0 0 0)
  1 by 1 by 1 MPI processor grid
  pair style eam/alloy stores no restart info
  48 atoms
  read_restart CPU = 0.000 seconds
Changing box ...
  triclinic box = (0.0048023897 0.0072035845 0.0096047793) to (6.3288672 9.5027964 12.670395) with tilt (0 0 0)
  triclinic box = (0.0048023897 0.0072035845 0.0096047793) to (6.3288672 9.5027964 12.670395) with tilt (0 0 0)
  triclinic box = (0.0048023897 0.0072035845 0.0096047793) to (6.3288672 9.5027964 12.670395) with tilt (0 0 0)
Neighbor list info ...
  update: every = 1 steps, delay = 0 steps, check = yes
  max neighbors/atom: 2000, page size: 100000
  master list distance cutoff = 5.403
  ghost atom cutoff = 5.403
  1 neighbor lists, perpetual/occasional/extra = 1 0 0
  (1) pair eam/alloy, perpetual
      attributes: half, newton on
      pair build: half/nsq/newton
      stencil: none
      bin: none
Setting up cg style minimization ...
  Unit style    : metal
  Current step  : 19
Per MPI rank memory allocation (min/avg/max) = 4.428 | 4.428 | 4.428 Mbytes
   Step          Temp          PotEng         Press           Pxx            Pyy            Pzz            Pxy            Pxz            Pyz             Lx             Ly             Lz           Volume    
        19   0             -427.19886      3098.0477      5190.1398      2052.0004      2052.003       6.8964191e-05  2.7582077e-05 -2.4785483e-05  6.3240648      9.4955928      12.66079       760.28989    
        20   0             -427.19886      3098.0523      5190.1398      2052.0085      2052.0087      1.2569751e-06 -1.249251e-05   3.5297783e-06  6.3240648      9.4955928      12.66079       760.28989    
        21   0             -427.19886      3098.0518      5190.1398      2052.0078      2052.0078     -7.6293557e-07  5.4243951e-07  5.1851543e-07  6.3240648      9.4955928      12.66079       760.28989    
        22   0             -427.19886      3098.0517      5190.1398      2052.0077      2052.0077     -4.5486688e-07  1.4459511e-07  7.0116369e-08  6.3240648      9.4955928      12.66079       760.28989    
        23   0             -427.19886      3098.0517      5190.1398      2052.0077      2052.0077     -2.7735806e-07  2.336982e-08  -9.613411e-09   6.3240648      9.4955928      12.66079       760.28989    
        24   0             -427.19886      3098.0517      5190.1398      2052.0077      2052.0077     -8.6323646e-08 -1.1557047e-08  2.6381315e-09  6.3240648      9.4955928      12.66079       760.28989    
        25   0             -427.19886      3098.0517      5190.1398      2052.0077      2052.0077     -2.6305822e-08 -2.389986e-09   5.9650408e-09  6.3240648      9.4955928      12.66079       760.28989    
        26   0             -427.19886      3098.0517      5190.1398      2052.0077      2052.0077     -9.297891e-09  -3.1895562e-10  1.0214688e-09  6.3240648      9.4955928      12.66079       760.28989    
        27   0             -427.19886      3098.0517      5190.1398      2052.0077      2052.0077     -1.0523355e-09  3.115347e-10   1.1230074e-11  6.3240648      9.4955928      12.66079       760.28989    
        28   0             -427.19886      3098.0517      5190.1398      2052.0077      2052.0077     -4.2931864e-11  8.7548971e-11  5.1003251e-11  6.3240648      9.4955928      12.66079       760.28989    
        29   0             -427.19886      3098.0517      5190.1398      2052.0077      2052.0077      6.7431164e-11  6.200759e-11   8.4693473e-11  6.3240648      9.4955928      12.66079       760.28989    
        30   0             -427.19886      3098.0517      5190.1398      2052.0077      2052.0077      1.6601326e-11  1.3247064e-12 -6.0829566e-11  6.3240648      9.4955928      12.66079       760.28989    
        31   0             -427.19886      3098.0517      5190.1398      2052.0077      2052.0077      7.587017e-12  -6.7576247e-11  1.2633833e-11  6.3240648      9.4955928      12.66079       760.28989    
        32   0             -427.19886      3098.0517      5190.1398      2052.0077      2052.0077     -3.5313089e-11 -4.7562396e-11  7.4867158e-12  6.3240648      9.4955928      12.66079       760.28989    
        33   0             -427.19886      3098.0517      5190.1398      2052.0077      2052.0077     -1.0200559e-11 -4.3684466e-11  1.4037592e-12  6.3240648      9.4955928      12.66079       760.28989    
        34   0             -427.19886      3098.0517      5190.1398      2052.0077      2052.0077      9.4148284e-12  2.7412603e-12  2.9946863e-11  6.3240648      9.4955928      12.66079       760.28989    
        35   0             -427.19886      3098.0517      5190.1398      2052.0077      2052.0077     -4.2756623e-11 -2.3867105e-11 -3.2754382e-12  6.3240648      9.4955928      12.66079       760.28989    
        36   0             -427.19886      3098.0517      5190.1398      2052.0077      2052.0077      5.8590497e-12 -4.0453809e-11  1.5909271e-11  6.3240648      9.4955928      12.66079       760.28989    
        37   0             -427.19886      3098.0517      5190.1398      2052.0077      2052.0077     -7.7480929e-12 -2.2365101e-11  7.0187961e-12  6.3240648      9.4955928      12.66079       760.28989    
        38   0             -427.19886      3098.0517      5190.1398      2052.0077      2052.0077     -4.9545115e-12 -1.1846046e-11 -3.3690221e-11  6.3240648      9.4955928      12.66079       760.28989    
        39   0             -427.19886      3098.0517      5190.1398      2052.0077      2052.0077     -3.0214638e-11  2.0927071e-11 -6.8784202e-11  6.3240648      9.4955928      12.66079       760.28989    
        40   0             -427.19886      3098.0517      5190.1398      2052.0077      2052.0077     -9.3298352e-12 -2.1463305e-11 -4.4452375e-11  6.3240648      9.4955928      12.66079       760.28989    
Loop time of 0.001127 on 1 procs for 21 steps with 48 atoms

0.0% CPU use with 1 MPI tasks x 1 OpenMP threads

Minimization stats:
  Stopping criterion = force tolerance
  Energy initial, next-to-last, final = 
      -427.19886267102  -427.198862709755  -427.198862709755
  Force two-norm initial, final = 0.0013084402 7.67411e-11
  Force max component initial, final = 0.00029856029 2.0225097e-11
  Final line search alpha, max atom move = 1 2.0225097e-11
  Iterations, force evaluations = 21 42

MPI task timing breakdown:
Section |  min time  |  avg time  |  max time  |%varavg| %total
---------------------------------------------------------------
Pair    | 0.000849   | 0.000849   | 0.000849   |   0.0 | 75.33
Neigh   | 0          | 0          | 0          |   0.0 |  0.00
Comm    | 6.2e-05    | 6.2e-05    | 6.2e-05    |   0.0 |  5.50
Output  | 0.000163   | 0.000163   | 0.000163   |   0.0 | 14.46
Modify  | 0          | 0          | 0          |   0.0 |  0.00
Other   |            | 5.3e-05    |            |       |  4.70

Nlocal:             48 ave          48 max          48 min
Histogram: 1 0 0 0 0 0 0 0 0 0
Nghost:            498 ave         498 max         498 min
Histogram: 1 0 0 0 0 0 0 0 0 0
Neighs:           1200 ave        1200 max        1200 min
Histogram: 1 0 0 0 0 0 0 0 0 0

Total # of neighbors = 1200
Ave neighs/atom = 25
Neighbor list builds = 0
Dangerous builds = 0
OMP_NUM_THREADS environment is not set. Defaulting to 1 thread. (src/comm.cpp:98)
  using 1 OpenMP thread(s) per MPI task
Loaded 1 plugins from F:\Lammps\LAMMPS 64-bit 2Aug2023\plugins

The 'box' command has been removed and will be ignored

Reading restart file ...
  restart file = 2 Aug 2023, LAMMPS = 2 Aug 2023
  restoring atom style atomic from restart
  triclinic box = (0.0048023897 0.0072035845 0.0096047793) to (6.3351976 9.5027964 12.670395) with tilt (0 0 0)
  1 by 1 by 1 MPI processor grid
  pair style eam/alloy stores no restart info
  48 atoms
  read_restart CPU = 0.000 seconds
Changing box ...
  triclinic box = (0.0048023897 0.0072035845 0.0096047793) to (6.341528 9.5027964 12.670395) with tilt (0 0 0)
  triclinic box = (0.0048023897 0.0072035845 0.0096047793) to (6.341528 9.5027964 12.670395) with tilt (0 0 0)
  triclinic box = (0.0048023897 0.0072035845 0.0096047793) to (6.341528 9.5027964 12.670395) with tilt (0 0 0)
Neighbor list info ...
  update: every = 1 steps, delay = 0 steps, check = yes
  max neighbors/atom: 2000, page size: 100000
  master list distance cutoff = 5.403
  ghost atom cutoff = 5.403
  1 neighbor lists, perpetual/occasional/extra = 1 0 0
  (1) pair eam/alloy, perpetual
      attributes: half, newton on
      pair build: half/nsq/newton
      stencil: none
      bin: none
Setting up cg style minimization ...
  Unit style    : metal
  Current step  : 19
Per MPI rank memory allocation (min/avg/max) = 4.428 | 4.428 | 4.428 Mbytes
   Step          Temp          PotEng         Press           Pxx            Pyy            Pzz            Pxy            Pxz            Pyz             Lx             Ly             Lz           Volume    
        19   0             -427.19886     -3109.832      -5256.043      -2036.7277     -2036.7252      6.3191368e-05  2.5138741e-05 -2.216227e-05   6.3367256      9.4955928      12.66079       761.812      
        20   0             -427.19886     -3109.8273     -5256.043      -2036.7196     -2036.7194      1.349331e-06  -1.1590131e-05  3.3660075e-06  6.3367256      9.4955928      12.66079       761.812      
        21   0             -427.19886     -3109.8279     -5256.043      -2036.7203     -2036.7203     -7.0694809e-07  5.2485409e-07  4.9776614e-07  6.3367256      9.4955928      12.66079       761.812      
        22   0             -427.19886     -3109.8279     -5256.043      -2036.7204     -2036.7204     -4.2214987e-07  1.3098515e-07  7.0942001e-08  6.3367256      9.4955928      12.66079       761.812      
        23   0             -427.19886     -3109.8279     -5256.043      -2036.7204     -2036.7204     -2.5842499e-07  2.2685481e-08 -5.3521132e-09  6.3367256      9.4955928      12.66079       761.812      
        24   0             -427.19886     -3109.8279     -5256.043      -2036.7204     -2036.7204     -8.4195399e-08 -1.0304103e-08  2.5016378e-09  6.3367256      9.4955928      12.66079       761.812      
        25   0             -427.19886     -3109.8279     -5256.043      -2036.7204     -2036.7204     -2.5045434e-08 -1.4334355e-09  5.7948148e-09  6.3367256      9.4955928      12.66079       761.812      
        26   0             -427.19886     -3109.8279     -5256.043      -2036.7204     -2036.7204     -9.1436052e-09 -1.4092932e-10  1.1058201e-09  6.3367256      9.4955928      12.66079       761.812      
        27   0             -427.19886     -3109.8279     -5256.043      -2036.7204     -2036.7204     -1.2686589e-09  3.755046e-10  -7.051471e-11   6.3367256      9.4955928      12.66079       761.812      
        28   0             -427.19886     -3109.8279     -5256.043      -2036.7204     -2036.7204     -3.8648239e-11 -8.7634903e-12  8.9661088e-11  6.3367256      9.4955928      12.66079       761.812      
        29   0             -427.19886     -3109.8279     -5256.043      -2036.7204     -2036.7204      5.6089713e-11  7.477207e-11   3.7358787e-11  6.3367256      9.4955928      12.66079       761.812      
        30   0             -427.19886     -3109.8279     -5256.043      -2036.7204     -2036.7204     -4.2742793e-11  5.349553e-11   3.7358787e-11  6.3367256      9.4955928      12.66079       761.812      
        31   0             -427.19886     -3109.8279     -5256.043      -2036.7204     -2036.7204      8.3190794e-12  2.2690264e-11  1.54105e-11    6.3367256      9.4955928      12.66079       761.812      
        32   0             -427.19886     -3109.8279     -5256.043      -2036.7204     -2036.7204      1.1016555e-11 -2.8512069e-11 -5.7906119e-11  6.3367256      9.4955928      12.66079       761.812      
        33   0             -427.19886     -3109.8279     -5256.043      -2036.7204     -2036.7204     -5.8126387e-11 -3.9924011e-12 -6.3976922e-11  6.3367256      9.4955928      12.66079       761.812      
        34   0             -427.19886     -3109.8279     -5256.043      -2036.7204     -2036.7204      1.7150976e-11 -1.9020055e-11  6.2108983e-11  6.3367256      9.4955928      12.66079       761.812      
        35   0             -427.19886     -3109.8279     -5256.043      -2036.7204     -2036.7204     -2.9404995e-11  5.1816619e-11 -1.0553857e-10  6.3367256      9.4955928      12.66079       761.812      
        36   0             -427.19886     -3109.8279     -5256.043      -2036.7204     -2036.7204      2.745246e-11   3.1124722e-12  1.354256e-11   6.3367256      9.4955928      12.66079       761.812      
        37   0             -427.19886     -3109.8279     -5256.043      -2036.7204     -2036.7204     -1.4082967e-11  4.558643e-11   7.5184558e-11  6.3367256      9.4955928      12.66079       761.812      
        38   0             -427.19886     -3109.8279     -5256.043      -2036.7204     -2036.7204     -5.5709831e-12 -3.4081456e-11 -1.4009545e-12  6.3367256      9.4955928      12.66079       761.812      
        39   0             -427.19886     -3109.8279     -5256.043      -2036.7204     -2036.7204      1.9388991e-11 -3.3523035e-11  4.2028635e-11  6.3367256      9.4955928      12.66079       761.812      
        40   0             -427.19886     -3109.8279     -5256.043      -2036.7204     -2036.7204     -4.7511374e-11  3.6503256e-11  5.7439135e-11  6.3367256      9.4955928      12.66079       761.812      
Loop time of 0.001181 on 1 procs for 21 steps with 48 atoms

0.0% CPU use with 1 MPI tasks x 1 OpenMP threads

Minimization stats:
  Stopping criterion = force tolerance
  Energy initial, next-to-last, final = 
     -427.198856106759  -427.198856145549  -427.198856145549
  Force two-norm initial, final = 0.0013101341 8.4457721e-11
  Force max component initial, final = 0.0003029929 2.0647204e-11
  Final line search alpha, max atom move = 1 2.0647204e-11
  Iterations, force evaluations = 21 42

MPI task timing breakdown:
Section |  min time  |  avg time  |  max time  |%varavg| %total
---------------------------------------------------------------
Pair    | 0.000895   | 0.000895   | 0.000895   |   0.0 | 75.78
Neigh   | 0          | 0          | 0          |   0.0 |  0.00
Comm    | 8.7e-05    | 8.7e-05    | 8.7e-05    |   0.0 |  7.37
Output  | 0.000157   | 0.000157   | 0.000157   |   0.0 | 13.29
Modify  | 0          | 0          | 0          |   0.0 |  0.00
Other   |            | 4.2e-05    |            |       |  3.56

Nlocal:             48 ave          48 max          48 min
Histogram: 1 0 0 0 0 0 0 0 0 0
Nghost:            498 ave         498 max         498 min
Histogram: 1 0 0 0 0 0 0 0 0 0
Neighs:           1200 ave        1200 max        1200 min
Histogram: 1 0 0 0 0 0 0 0 0 0

Total # of neighbors = 1200
Ave neighs/atom = 25
Neighbor list builds = 0
Dangerous builds = 0
OMP_NUM_THREADS environment is not set. Defaulting to 1 thread. (src/comm.cpp:98)
  using 1 OpenMP thread(s) per MPI task
Loaded 1 plugins from F:\Lammps\LAMMPS 64-bit 2Aug2023\plugins

The 'box' command has been removed and will be ignored

Reading restart file ...
  restart file = 2 Aug 2023, LAMMPS = 2 Aug 2023
  restoring atom style atomic from restart
  triclinic box = (0.0048023897 0.0072035845 0.0096047793) to (6.3351976 9.5027964 12.670395) with tilt (0 0 0)
  1 by 1 by 1 MPI processor grid
  pair style eam/alloy stores no restart info
  48 atoms
  read_restart CPU = 0.000 seconds
Changing box ...
  triclinic box = (0.0048023897 0.0072035845 0.0096047793) to (6.3351976 9.4933008 12.670395) with tilt (0 0 0)
  triclinic box = (0.0048023897 0.0072035845 0.0096047793) to (6.3351976 9.4933008 12.670395) with tilt (0 0 0)
Neighbor list info ...
  update: every = 1 steps, delay = 0 steps, check = yes
  max neighbors/atom: 2000, page size: 100000
  master list distance cutoff = 5.403
  ghost atom cutoff = 5.403
  1 neighbor lists, perpetual/occasional/extra = 1 0 0
  (1) pair eam/alloy, perpetual
      attributes: half, newton on
      pair build: half/nsq/newton
      stencil: none
      bin: none
Setting up cg style minimization ...
  Unit style    : metal
  Current step  : 19
Per MPI rank memory allocation (min/avg/max) = 4.428 | 4.428 | 4.428 Mbytes
   Step          Temp          PotEng         Press           Pxx            Pyy            Pzz            Pxy            Pxz            Pyz             Lx             Ly             Lz           Volume    
        19   0             -427.19886      3098.0478      2052.0007      5190.1398      2052.003       6.8874598e-05  2.7209229e-05 -2.4940923e-05  6.3303952      9.4860972      12.66079       760.28989    
        20   0             -427.19886      3098.0522      2052.0082      5190.1398      2052.0087      1.2613662e-06 -1.2125561e-05  3.3078388e-06  6.3303952      9.4860972      12.66079       760.28989    
        21   0             -427.19886      3098.0518      2052.0078      5190.1398      2052.0078     -8.2269717e-07  5.1303526e-07  5.2862671e-07  6.3303952      9.4860972      12.66079       760.28989    
        22   0             -427.19886      3098.0517      2052.0077      5190.1398      2052.0077     -4.6305429e-07  1.4320949e-07  7.6231144e-08  6.3303952      9.4860972      12.66079       760.28989    
        23   0             -427.19886      3098.0517      2052.0077      5190.1398      2052.0077     -2.7413456e-07  2.5571593e-08 -1.9760251e-09  6.3303952      9.4860972      12.66079       760.28989    
        24   0             -427.19886      3098.0517      2052.0077      5190.1398      2052.0077     -9.1125512e-08 -1.0323104e-08  1.5862479e-09  6.3303952      9.4860972      12.66079       760.28989    
        25   0             -427.19886      3098.0517      2052.0077      5190.1398      2052.0077     -2.7584897e-08 -6.7073393e-10  6.2532794e-09  6.3303952      9.4860972      12.66079       760.28989    
        26   0             -427.19886      3098.0517      2052.0077      5190.1398      2052.0077     -1.0722653e-08 -3.8905904e-10  1.4149893e-09  6.3303952      9.4860972      12.66079       760.28989    
        27   0             -427.19886      3098.0517      2052.0077      5190.1398      2052.0077     -1.2301555e-09  4.1813564e-10 -1.7453406e-10  6.3303952      9.4860972      12.66079       760.28989    
        28   0             -427.19886      3098.0517      2052.0077      5190.1398      2052.0077     -5.8351511e-11 -4.7979594e-11  5.0067412e-11  6.3303952      9.4860972      12.66079       760.28989    
        29   0             -427.19886      3098.0517      2052.0077      5190.1398      2052.0077      4.7665439e-11 -3.9067186e-12  6.9720041e-11  6.3303952      9.4860972      12.66079       760.28989    
        30   0             -427.19886      3098.0517      2052.0077      5190.1398      2052.0077     -5.3701101e-12 -3.0493836e-11  5.334285e-11   6.3303952      9.4860972      12.66079       760.28989    
        31   0             -427.19886      3098.0517      2052.0077      5190.1398      2052.0077      4.2807573e-11 -4.8932341e-11  1.6845111e-11  6.3303952      9.4860972      12.66079       760.28989    
        32   0             -427.19886      3098.0517      2052.0077      5190.1398      2052.0077     -6.4464626e-12  1.2732078e-11 -2.4331826e-11  6.3303952      9.4860972      12.66079       760.28989    
        33   0             -427.19886      3098.0517      2052.0077      5190.1398      2052.0077      1.1225276e-11  3.2466958e-11 -3.3690221e-11  6.3303952      9.4860972      12.66079       760.28989    
        34   0             -427.19886      3098.0517      2052.0077      5190.1398      2052.0077     -2.3462245e-11 -2.4982299e-11  9.3583948e-12  6.3303952      9.4860972      12.66079       760.28989    
        35   0             -427.19886      3098.0517      2052.0077      5190.1398      2052.0077     -3.6165535e-12  7.5281614e-11 -2.8075184e-12  6.3303952      9.4860972      12.66079       760.28989    
        36   0             -427.19886      3098.0517      2052.0077      5190.1398      2052.0077      1.1297931e-11  8.1458703e-12  1.0387818e-10  6.3303952      9.4860972      12.66079       760.28989    
        37   0             -427.19886      3098.0517      2052.0077      5190.1398      2052.0077      1.9709977e-11  2.9839479e-11  4.5856134e-11  6.3303952      9.4860972      12.66079       760.28989    
        38   0             -427.19886      3098.0517      2052.0077      5190.1398      2052.0077      2.4048516e-11 -2.3874417e-11 -3.7433579e-12  6.3303952      9.4860972      12.66079       760.28989    
        39   0             -427.19886      3098.0517      2052.0077      5190.1398      2052.0077      9.1840672e-12  3.5633185e-11 -4.5856134e-11  6.3303952      9.4860972      12.66079       760.28989    
        40   0             -427.19886      3098.0517      2052.0077      5190.1398      2052.0077     -5.3807114e-11 -5.5839641e-12 -5.5682449e-11  6.3303952      9.4860972      12.66079       760.28989    
Loop time of 0.001119 on 1 procs for 21 steps with 48 atoms

0.0% CPU use with 1 MPI tasks x 1 OpenMP threads

Minimization stats:
  Stopping criterion = force tolerance
  Energy initial, next-to-last, final = 
     -427.198862670904  -427.198862709755  -427.198862709755
  Force two-norm initial, final = 0.0013133428 5.2057391e-11
  Force max component initial, final = 0.00030869044 1.6176838e-11
  Final line search alpha, max atom move = 1 1.6176838e-11
  Iterations, force evaluations = 21 42

MPI task timing breakdown:
Section |  min time  |  avg time  |  max time  |%varavg| %total
---------------------------------------------------------------
Pair    | 0.000851   | 0.000851   | 0.000851   |   0.0 | 76.05
Neigh   | 0          | 0          | 0          |   0.0 |  0.00
Comm    | 5.7e-05    | 5.7e-05    | 5.7e-05    |   0.0 |  5.09
Output  | 0.00016    | 0.00016    | 0.00016    |   0.0 | 14.30
Modify  | 0          | 0          | 0          |   0.0 |  0.00
Other   |            | 5.1e-05    |            |       |  4.56

Nlocal:             48 ave          48 max          48 min
Histogram: 1 0 0 0 0 0 0 0 0 0
Nghost:            498 ave         498 max         498 min
Histogram: 1 0 0 0 0 0 0 0 0 0
Neighs:           1200 ave        1200 max        1200 min
Histogram: 1 0 0 0 0 0 0 0 0 0

Total # of neighbors = 1200
Ave neighs/atom = 25
Neighbor list builds = 0
Dangerous builds = 0
OMP_NUM_THREADS environment is not set. Defaulting to 1 thread. (src/comm.cpp:98)
  using 1 OpenMP thread(s) per MPI task
Loaded 1 plugins from F:\Lammps\LAMMPS 64-bit 2Aug2023\plugins

The 'box' command has been removed and will be ignored

Reading restart file ...
  restart file = 2 Aug 2023, LAMMPS = 2 Aug 2023
  restoring atom style atomic from restart
  triclinic box = (0.0048023897 0.0072035845 0.0096047793) to (6.3351976 9.5027964 12.670395) with tilt (0 0 0)
  1 by 1 by 1 MPI processor grid
  pair style eam/alloy stores no restart info
  48 atoms
  read_restart CPU = 0.000 seconds
Changing box ...
  triclinic box = (0.0048023897 0.0072035845 0.0096047793) to (6.3351976 9.512292 12.670395) with tilt (0 0 0)
  triclinic box = (0.0048023897 0.0072035845 0.0096047793) to (6.3351976 9.512292 12.670395) with tilt (0 0 0)
Neighbor list info ...
  update: every = 1 steps, delay = 0 steps, check = yes
  max neighbors/atom: 2000, page size: 100000
  master list distance cutoff = 5.403
  ghost atom cutoff = 5.403
  1 neighbor lists, perpetual/occasional/extra = 1 0 0
  (1) pair eam/alloy, perpetual
      attributes: half, newton on
      pair build: half/nsq/newton
      stencil: none
      bin: none
Setting up cg style minimization ...
  Unit style    : metal
  Current step  : 19
Per MPI rank memory allocation (min/avg/max) = 4.428 | 4.428 | 4.428 Mbytes
   Step          Temp          PotEng         Press           Pxx            Pyy            Pzz            Pxy            Pxz            Pyz             Lx             Ly             Lz           Volume    
        19   0             -427.19886     -3109.8319     -2036.7274     -5256.043      -2036.7252      6.2982376e-05  2.5014719e-05 -2.2477226e-05  6.3303952      9.5050884      12.66079       761.812      
        20   0             -427.19886     -3109.8274     -2036.7199     -5256.043      -2036.7194      1.308017e-06  -1.146771e-05   3.2961284e-06  6.3303952      9.5050884      12.66079       761.812      
        21   0             -427.19886     -3109.8279     -2036.7204     -5256.043      -2036.7203     -7.2716564e-07  4.9694904e-07  5.0892941e-07  6.3303952      9.5050884      12.66079       761.812      
        22   0             -427.19886     -3109.8279     -2036.7204     -5256.043      -2036.7204     -4.2581627e-07  1.2822581e-07  7.3666391e-08  6.3303952      9.5050884      12.66079       761.812      
        23   0             -427.19886     -3109.8279     -2036.7204     -5256.043      -2036.7204     -2.5873776e-07  2.45181e-08   -2.6632145e-09  6.3303952      9.5050884      12.66079       761.812      
        24   0             -427.19886     -3109.8279     -2036.7204     -5256.043      -2036.7204     -8.616856e-08  -1.0188801e-08  1.9664731e-09  6.3303952      9.5050884      12.66079       761.812      
        25   0             -427.19886     -3109.8279     -2036.7204     -5256.043      -2036.7204     -2.5575755e-08 -8.5942425e-10  5.8597257e-09  6.3303952      9.5050884      12.66079       761.812      
        26   0             -427.19886     -3109.8279     -2036.7204     -5256.043      -2036.7204     -9.5956151e-09 -1.1288013e-10  1.3052226e-09  6.3303952      9.5050884      12.66079       761.812      
        27   0             -427.19886     -3109.8279     -2036.7204     -5256.043      -2036.7204     -1.2917065e-09  3.9576919e-10 -5.9774059e-11  6.3303952      9.5050884      12.66079       761.812      
        28   0             -427.19886     -3109.8279     -2036.7204     -5256.043      -2036.7204     -1.0957909e-10  1.3162679e-11  1.046046e-10   6.3303952      9.5050884      12.66079       761.812      
        29   0             -427.19886     -3109.8279     -2036.7204     -5256.043      -2036.7204      3.9373571e-11 -1.1404645e-11  8.5458225e-11  6.3303952      9.5050884      12.66079       761.812      
        30   0             -427.19886     -3109.8279     -2036.7204     -5256.043      -2036.7204      5.6827129e-12 -3.7227219e-11 -1.1207636e-11  6.3303952      9.5050884      12.66079       761.812      
        31   0             -427.19886     -3109.8279     -2036.7204     -5256.043      -2036.7204     -4.0120792e-11  2.6303924e-11 -4.6698483e-11  6.3303952      9.5050884      12.66079       761.812      
        32   0             -427.19886     -3109.8279     -2036.7204     -5256.043      -2036.7204      3.0521609e-11 -3.1638907e-11  5.3703256e-11  6.3303952      9.5050884      12.66079       761.812      
        33   0             -427.19886     -3109.8279     -2036.7204     -5256.043      -2036.7204     -3.026121e-11  -3.7061449e-11 -5.603818e-11   6.3303952      9.5050884      12.66079       761.812      
        34   0             -427.19886     -3109.8279     -2036.7204     -5256.043      -2036.7204      6.1592746e-12 -5.4463474e-11 -4.9033408e-11  6.3303952      9.5050884      12.66079       761.812      
        35   0             -427.19886     -3109.8279     -2036.7204     -5256.043      -2036.7204      1.5163554e-11  1.9518051e-11  6.0241044e-11  6.3303952      9.5050884      12.66079       761.812      
        36   0             -427.19886     -3109.8279     -2036.7204     -5256.043      -2036.7204      4.1404316e-11 -9.3846166e-12  2.6618136e-11  6.3303952      9.5050884      12.66079       761.812      
        37   0             -427.19886     -3109.8279     -2036.7204     -5256.043      -2036.7204     -5.2536022e-11 -6.1770601e-13  2.4750196e-11  6.3303952      9.5050884      12.66079       761.812      
        38   0             -427.19886     -3109.8279     -2036.7204     -5256.043      -2036.7204     -8.1332432e-12  7.6891287e-11 -1.5877484e-11  6.3303952      9.5050884      12.66079       761.812      
        39   0             -427.19886     -3109.8279     -2036.7204     -5256.043      -2036.7204      4.1324053e-12 -3.3246447e-11  3.5957832e-11  6.3303952      9.5050884      12.66079       761.812      
        40   0             -427.19886     -3109.8279     -2036.7204     -5256.043      -2036.7204      2.3626742e-11 -4.9995652e-12 -1.7278439e-11  6.3303952      9.5050884      12.66079       761.812      
Loop time of 0.001069 on 1 procs for 21 steps with 48 atoms

0.0% CPU use with 1 MPI tasks x 1 OpenMP threads

Minimization stats:
  Stopping criterion = force tolerance
  Energy initial, next-to-last, final = 
     -427.198856106702  -427.198856145549  -427.198856145548
  Force two-norm initial, final = 0.0013122378 8.8692264e-11
  Force max component initial, final = 0.00030620411 1.9953011e-11
  Final line search alpha, max atom move = 1 1.9953011e-11
  Iterations, force evaluations = 21 42

MPI task timing breakdown:
Section |  min time  |  avg time  |  max time  |%varavg| %total
---------------------------------------------------------------
Pair    | 0.000799   | 0.000799   | 0.000799   |   0.0 | 74.74
Neigh   | 0          | 0          | 0          |   0.0 |  0.00
Comm    | 5.3e-05    | 5.3e-05    | 5.3e-05    |   0.0 |  4.96
Output  | 0.000163   | 0.000163   | 0.000163   |   0.0 | 15.25
Modify  | 0          | 0          | 0          |   0.0 |  0.00
Other   |            | 5.4e-05    |            |       |  5.05

Nlocal:             48 ave          48 max          48 min
Histogram: 1 0 0 0 0 0 0 0 0 0
Nghost:            498 ave         498 max         498 min
Histogram: 1 0 0 0 0 0 0 0 0 0
Neighs:           1200 ave        1200 max        1200 min
Histogram: 1 0 0 0 0 0 0 0 0 0

Total # of neighbors = 1200
Ave neighs/atom = 25
Neighbor list builds = 0
Dangerous builds = 0
OMP_NUM_THREADS environment is not set. Defaulting to 1 thread. (src/comm.cpp:98)
  using 1 OpenMP thread(s) per MPI task
Loaded 1 plugins from F:\Lammps\LAMMPS 64-bit 2Aug2023\plugins

The 'box' command has been removed and will be ignored

Reading restart file ...
  restart file = 2 Aug 2023, LAMMPS = 2 Aug 2023
  restoring atom style atomic from restart
  triclinic box = (0.0048023897 0.0072035845 0.0096047793) to (6.3351976 9.5027964 12.670395) with tilt (0 0 0)
  1 by 1 by 1 MPI processor grid
  pair style eam/alloy stores no restart info
  48 atoms
  read_restart CPU = 0.000 seconds
Changing box ...
  triclinic box = (0.0048023897 0.0072035845 0.0096047793) to (6.3351976 9.5027964 12.657734) with tilt (0 0 0)
Neighbor list info ...
  update: every = 1 steps, delay = 0 steps, check = yes
  max neighbors/atom: 2000, page size: 100000
  master list distance cutoff = 5.403
  ghost atom cutoff = 5.403
  1 neighbor lists, perpetual/occasional/extra = 1 0 0
  (1) pair eam/alloy, perpetual
      attributes: half, newton on
      pair build: half/nsq/newton
      stencil: none
      bin: none
Setting up cg style minimization ...
  Unit style    : metal
  Current step  : 19
Per MPI rank memory allocation (min/avg/max) = 4.428 | 4.428 | 4.428 Mbytes
   Step          Temp          PotEng         Press           Pxx            Pyy            Pzz            Pxy            Pxz            Pyz             Lx             Ly             Lz           Volume    
        19   0             -427.19886      3098.047       2052.0007      2052.0004      5190.1399      6.8783527e-05  2.7194758e-05 -2.4987394e-05  6.3303952      9.4955928      12.64813       760.28989    
        20   0             -427.19886      3098.0522      2052.0082      2052.0085      5190.1398      1.8357241e-06 -1.2988509e-05  3.5037755e-06  6.3303952      9.4955928      12.64813       760.28989    
        21   0             -427.19886      3098.0518      2052.0078      2052.0078      5190.1398     -7.1699254e-07  6.2038557e-07  5.2973428e-07  6.3303952      9.4955928      12.64813       760.28989    
        22   0             -427.19886      3098.0517      2052.0077      2052.0077      5190.1398     -4.5465603e-07  1.681041e-07   7.4644428e-08  6.3303952      9.4955928      12.64813       760.28989    
        23   0             -427.19886      3098.0517      2052.0077      2052.0077      5190.1398     -2.7875746e-07  3.7211278e-08 -2.4888651e-09  6.3303952      9.4955928      12.64813       760.28989    
        24   0             -427.19886      3098.0517      2052.0077      2052.0077      5190.1398     -9.2301161e-08 -1.2181747e-08  2.7406059e-09  6.3303952      9.4955928      12.64813       760.28989    
        25   0             -427.19886      3098.0517      2052.0077      2052.0077      5190.1398     -2.6958914e-08 -2.4294468e-09  6.2855658e-09  6.3303952      9.4955928      12.64813       760.28989    
        26   0             -427.19886      3098.0517      2052.0077      2052.0077      5190.1398     -9.5917768e-09  1.651382e-11   1.2933302e-09  6.3303952      9.4955928      12.64813       760.28989    
        27   0             -427.19886      3098.0517      2052.0077      2052.0077      5190.1398     -1.1656973e-09  3.9696273e-10 -1.5534935e-10  6.3303952      9.4955928      12.64813       760.28989    
        28   0             -427.19886      3098.0517      2052.0077      2052.0077      5190.1398     -7.2856565e-11  7.1427674e-11  1.2493457e-10  6.3303952      9.4955928      12.64813       760.28989    
        29   0             -427.19886      3098.0517      2052.0077      2052.0077      5190.1398      3.9240371e-11  4.6666312e-11  4.1644857e-11  6.3303952      9.4955928      12.64813       760.28989    
        30   0             -427.19886      3098.0517      2052.0077      2052.0077      5190.1398      2.4791978e-12  6.7503363e-11  4.8663653e-11  6.3303952      9.4955928      12.64813       760.28989    
        31   0             -427.19886      3098.0517      2052.0077      2052.0077      5190.1398      4.3540526e-11  2.7978082e-11 -4.7259894e-11  6.3303952      9.4955928      12.64813       760.28989    
        32   0             -427.19886      3098.0517      2052.0077      2052.0077      5190.1398     -1.8262578e-11  5.8672748e-13  7.6270917e-11  6.3303952      9.4955928      12.64813       760.28989    
        33   0             -427.19886      3098.0517      2052.0077      2052.0077      5190.1398     -3.8869097e-11  2.0152535e-11 -5.6150369e-12  6.3303952      9.4955928      12.64813       760.28989    
        34   0             -427.19886      3098.0517      2052.0077      2052.0077      5190.1398     -1.4088314e-11  5.2424146e-11  6.5976683e-11  6.3303952      9.4955928      12.64813       760.28989    
        35   0             -427.19886      3098.0517      2052.0077      2052.0077      5190.1398      2.4397171e-11  3.6053581e-12  1.9652629e-11  6.3303952      9.4955928      12.64813       760.28989    
        36   0             -427.19886      3098.0517      2052.0077      2052.0077      5190.1398     -2.6208532e-12  3.5505009e-11  9.1244349e-11  6.3303952      9.4955928      12.64813       760.28989    
        37   0             -427.19886      3098.0517      2052.0077      2052.0077      5190.1398     -6.2746483e-12 -4.4188485e-11  4.2112776e-12  6.3303952      9.4955928      12.64813       760.28989    
        38   0             -427.19886      3098.0517      2052.0077      2052.0077      5190.1398      8.9446239e-12 -3.1234785e-11 -1.3101753e-11  6.3303952      9.4955928      12.64813       760.28989    
        39   0             -427.19886      3098.0517      2052.0077      2052.0077      5190.1398     -2.8144413e-11  3.7374175e-11  4.2112776e-12  6.3303952      9.4955928      12.64813       760.28989    
        40   0             -427.19886      3098.0517      2052.0077      2052.0077      5190.1398      7.6406861e-11  1.4506426e-11 -2.1056388e-11  6.3303952      9.4955928      12.64813       760.28989    
Loop time of 0.001098 on 1 procs for 21 steps with 48 atoms

0.0% CPU use with 1 MPI tasks x 1 OpenMP threads

Minimization stats:
  Stopping criterion = force tolerance
  Energy initial, next-to-last, final = 
     -427.198862670858  -427.198862709755  -427.198862709755
  Force two-norm initial, final = 0.0013170572 6.2277976e-11
  Force max component initial, final = 0.00030875663 1.5506263e-11
  Final line search alpha, max atom move = 1 1.5506263e-11
  Iterations, force evaluations = 21 42

MPI task timing breakdown:
Section |  min time  |  avg time  |  max time  |%varavg| %total
---------------------------------------------------------------
Pair    | 0.00082    | 0.00082    | 0.00082    |   0.0 | 74.68
Neigh   | 0          | 0          | 0          |   0.0 |  0.00
Comm    | 5.8e-05    | 5.8e-05    | 5.8e-05    |   0.0 |  5.28
Output  | 0.000165   | 0.000165   | 0.000165   |   0.0 | 15.03
Modify  | 0          | 0          | 0          |   0.0 |  0.00
Other   |            | 5.5e-05    |            |       |  5.01

Nlocal:             48 ave          48 max          48 min
Histogram: 1 0 0 0 0 0 0 0 0 0
Nghost:            498 ave         498 max         498 min
Histogram: 1 0 0 0 0 0 0 0 0 0
Neighs:           1200 ave        1200 max        1200 min
Histogram: 1 0 0 0 0 0 0 0 0 0

Total # of neighbors = 1200
Ave neighs/atom = 25
Neighbor list builds = 0
Dangerous builds = 0
OMP_NUM_THREADS environment is not set. Defaulting to 1 thread. (src/comm.cpp:98)
  using 1 OpenMP thread(s) per MPI task
Loaded 1 plugins from F:\Lammps\LAMMPS 64-bit 2Aug2023\plugins

The 'box' command has been removed and will be ignored

Reading restart file ...
  restart file = 2 Aug 2023, LAMMPS = 2 Aug 2023
  restoring atom style atomic from restart
  triclinic box = (0.0048023897 0.0072035845 0.0096047793) to (6.3351976 9.5027964 12.670395) with tilt (0 0 0)
  1 by 1 by 1 MPI processor grid
  pair style eam/alloy stores no restart info
  48 atoms
  read_restart CPU = 0.000 seconds
Changing box ...
  triclinic box = (0.0048023897 0.0072035845 0.0096047793) to (6.3351976 9.5027964 12.683056) with tilt (0 0 0)
Neighbor list info ...
  update: every = 1 steps, delay = 0 steps, check = yes
  max neighbors/atom: 2000, page size: 100000
  master list distance cutoff = 5.403
  ghost atom cutoff = 5.403
  1 neighbor lists, perpetual/occasional/extra = 1 0 0
  (1) pair eam/alloy, perpetual
      attributes: half, newton on
      pair build: half/nsq/newton
      stencil: none
      bin: none
Setting up cg style minimization ...
  Unit style    : metal
  Current step  : 19
Per MPI rank memory allocation (min/avg/max) = 4.428 | 4.428 | 4.428 Mbytes
   Step          Temp          PotEng         Press           Pxx            Pyy            Pzz            Pxy            Pxz            Pyz             Lx             Ly             Lz           Volume    
        19   0             -427.19886     -3109.8327     -2036.7274     -2036.7277     -5256.0429      6.2763088e-05  2.5142029e-05 -2.2385204e-05  6.3303952      9.4955928      12.673451      761.812      
        20   0             -427.19886     -3109.8275     -2036.7199     -2036.7196     -5256.043       1.4580784e-06 -1.1771461e-05  3.4131314e-06  6.3303952      9.4955928      12.673451      761.812      
        21   0             -427.19886     -3109.8279     -2036.7204     -2036.7203     -5256.043      -6.8517747e-07  5.1756696e-07  5.1979755e-07  6.3303952      9.4955928      12.673451      761.812      
        22   0             -427.19886     -3109.8279     -2036.7204     -2036.7204     -5256.043      -4.1740658e-07  1.3935962e-07  7.2726817e-08  6.3303952      9.4955928      12.673451      761.812      
        23   0             -427.19886     -3109.8279     -2036.7204     -2036.7204     -5256.043      -2.5817559e-07  2.896031e-08  -3.0125192e-09  6.3303952      9.4955928      12.673451      761.812      
        24   0             -427.19886     -3109.8279     -2036.7204     -2036.7204     -5256.043      -8.6174863e-08 -1.0872232e-08  2.3592074e-09  6.3303952      9.4955928      12.673451      761.812      
        25   0             -427.19886     -3109.8279     -2036.7204     -2036.7204     -5256.043      -2.516559e-08  -1.5334343e-09  5.7639938e-09  6.3303952      9.4955928      12.673451      761.812      
        26   0             -427.19886     -3109.8279     -2036.7204     -2036.7204     -5256.043      -9.231568e-09   1.9521471e-11  1.2421797e-09  6.3303952      9.4955928      12.673451      761.812      
        27   0             -427.19886     -3109.8279     -2036.7204     -2036.7204     -5256.043      -1.2534092e-09  4.3602429e-10 -7.0047725e-11  6.3303952      9.4955928      12.673451      761.812      
        28   0             -427.19886     -3109.8279     -2036.7204     -2036.7204     -5256.043      -6.1792263e-11  4.5458283e-11  6.3509937e-11  6.3303952      9.4955928      12.673451      761.812      
        29   0             -427.19886     -3109.8279     -2036.7204     -2036.7204     -5256.043      -1.337907e-11   5.5954497e-11  3.6424817e-11  6.3303952      9.4955928      12.673451      761.812      
        30   0             -427.19886     -3109.8279     -2036.7204     -2036.7204     -5256.043       2.605675e-11  -2.585062e-11   5.4637226e-11  6.3303952      9.4955928      12.673451      761.812      
        31   0             -427.19886     -3109.8279     -2036.7204     -2036.7204     -5256.043      -1.8439972e-11 -4.4726795e-11 -2.895306e-11   6.3303952      9.4955928      12.673451      761.812      
        32   0             -427.19886     -3109.8279     -2036.7204     -2036.7204     -5256.043       1.1623772e-11  5.5588297e-11  3.9226726e-11  6.3303952      9.4955928      12.673451      761.812      
        33   0             -427.19886     -3109.8279     -2036.7204     -2036.7204     -5256.043       3.1353198e-11  1.8943212e-11 -1.5877484e-11  6.3303952      9.4955928      12.673451      761.812      
        34   0             -427.19886     -3109.8279     -2036.7204     -2036.7204     -5256.043       1.0801304e-12  2.1798478e-11  4.6231499e-11  6.3303952      9.4955928      12.673451      761.812      
        35   0             -427.19886     -3109.8279     -2036.7204     -2036.7204     -5256.043       1.4421577e-11  2.0282602e-11  0              6.3303952      9.4955928      12.673451      761.812      
        36   0             -427.19886     -3109.8279     -2036.7204     -2036.7204     -5256.043       1.2784394e-11 -2.0286934e-12 -4.0627681e-11  6.3303952      9.4955928      12.673451      761.812      
        37   0             -427.19886     -3109.8279     -2036.7204     -2036.7204     -5256.043       2.6614943e-11  2.0895747e-12  5.3703256e-11  6.3303952      9.4955928      12.673451      761.812      
        38   0             -427.19886     -3109.8279     -2036.7204     -2036.7204     -5256.043      -5.9424276e-12 -9.8757715e-12  5.3236271e-11  6.3303952      9.4955928      12.673451      761.812      
        39   0             -427.19886     -3109.8279     -2036.7204     -2036.7204     -5256.043       2.7555069e-11 -6.0717149e-12 -2.1948287e-11  6.3303952      9.4955928      12.673451      761.812      
        40   0             -427.19886     -3109.8279     -2036.7204     -2036.7204     -5256.043      -2.218406e-12   3.557111e-11   7.4717573e-12  6.3303952      9.4955928      12.673451      761.812      
Loop time of 0.001179 on 1 procs for 21 steps with 48 atoms

1325.3% CPU use with 1 MPI tasks x 1 OpenMP threads

Minimization stats:
  Stopping criterion = force tolerance
  Energy initial, next-to-last, final = 
     -427.198856106703  -427.198856145549  -427.198856145549
  Force two-norm initial, final = 0.0013128913 9.1943408e-11
  Force max component initial, final = 0.00030613722 1.9655166e-11
  Final line search alpha, max atom move = 1 1.9655166e-11
  Iterations, force evaluations = 21 42

MPI task timing breakdown:
Section |  min time  |  avg time  |  max time  |%varavg| %total
---------------------------------------------------------------
Pair    | 0.000904   | 0.000904   | 0.000904   |   0.0 | 76.68
Neigh   | 0          | 0          | 0          |   0.0 |  0.00
Comm    | 5.6e-05    | 5.6e-05    | 5.6e-05    |   0.0 |  4.75
Output  | 0.00016    | 0.00016    | 0.00016    |   0.0 | 13.57
Modify  | 0          | 0          | 0          |   0.0 |  0.00
Other   |            | 5.9e-05    |            |       |  5.00

Nlocal:             48 ave          48 max          48 min
Histogram: 1 0 0 0 0 0 0 0 0 0
Nghost:            498 ave         498 max         498 min
Histogram: 1 0 0 0 0 0 0 0 0 0
Neighs:           1200 ave        1200 max        1200 min
Histogram: 1 0 0 0 0 0 0 0 0 0

Total # of neighbors = 1200
Ave neighs/atom = 25
Neighbor list builds = 0
Dangerous builds = 0
OMP_NUM_THREADS environment is not set. Defaulting to 1 thread. (src/comm.cpp:98)
  using 1 OpenMP thread(s) per MPI task
Loaded 1 plugins from F:\Lammps\LAMMPS 64-bit 2Aug2023\plugins

The 'box' command has been removed and will be ignored

Reading restart file ...
  restart file = 2 Aug 2023, LAMMPS = 2 Aug 2023
  restoring atom style atomic from restart
  triclinic box = (0.0048023897 0.0072035845 0.0096047793) to (6.3351976 9.5027964 12.670395) with tilt (0 0 0)
  1 by 1 by 1 MPI processor grid
  pair style eam/alloy stores no restart info
  48 atoms
  read_restart CPU = 0.001 seconds
Changing box ...
  triclinic box = (0.0048023897 0.0072035845 0.0096047793) to (6.3351976 9.5027964 12.670395) with tilt (0 0 -0.01266079)
Neighbor list info ...
  update: every = 1 steps, delay = 0 steps, check = yes
  max neighbors/atom: 2000, page size: 100000
  master list distance cutoff = 5.403
  ghost atom cutoff = 5.403
  1 neighbor lists, perpetual/occasional/extra = 1 0 0
  (1) pair eam/alloy, perpetual
      attributes: half, newton on
      pair build: half/nsq/newton
      stencil: none
      bin: none
Setting up cg style minimization ...
  Unit style    : metal
  Current step  : 19
Per MPI rank memory allocation (min/avg/max) = 4.428 | 4.428 | 4.428 Mbytes
   Step          Temp          PotEng         Press           Pxx            Pyy            Pzz            Pxy            Pxz            Pyz             Lx             Ly             Lz           Volume    
        19   0             -427.19972      3.8384455      5.4713666      2.2584374      3.7855326      6.6811432e-05  2.9053654e-05  1606.3207      6.3303952      9.4955928      12.66079       761.05094    
        20   0             -427.19972      3.84437        5.4789165      2.2665314      3.7876619      9.2146607e-07 -1.2141893e-05  1606.3207      6.3303952      9.4955928      12.66079       761.05094    
        21   0             -427.19972      3.8436389      5.4784303      2.2658548      3.7866317     -7.0318737e-07  4.786742e-07   1606.3207      6.3303952      9.4955928      12.66079       761.05094    
        22   0             -427.19972      3.8435629      5.4783862      2.2657443      3.7865582     -4.3327645e-07  1.1965822e-07  1606.3207      6.3303952      9.4955928      12.66079       761.05094    
        23   0             -427.19972      3.8435556      5.4783837      2.2657358      3.7865472     -2.7229984e-07  1.6838461e-08  1606.3207      6.3303952      9.4955928      12.66079       761.05094    
        24   0             -427.19972      3.8435535      5.4783798      2.2657348      3.786546      -9.1897905e-08 -1.5043986e-08  1606.3207      6.3303952      9.4955928      12.66079       761.05094    
        25   0             -427.19972      3.8435525      5.4783789      2.2657338      3.7865447     -2.7031884e-08 -2.6691029e-09  1606.3207      6.3303952      9.4955928      12.66079       761.05094    
        26   0             -427.19972      3.8435522      5.4783786      2.2657335      3.7865444     -1.0023962e-08 -6.1095291e-10  1606.3207      6.3303952      9.4955928      12.66079       761.05094    
        27   0             -427.19972      3.8435521      5.4783785      2.2657334      3.7865442     -1.3892796e-09  2.8962657e-10  1606.3207      6.3303952      9.4955928      12.66079       761.05094    
        28   0             -427.19972      3.843552       5.4783785      2.2657333      3.7865442     -4.9921024e-11 -1.9670637e-11  1606.3207      6.3303952      9.4955928      12.66079       761.05094    
        29   0             -427.19972      3.843552       5.4783785      2.2657333      3.7865442      1.0509152e-10 -5.1014332e-11  1606.3207      6.3303952      9.4955928      12.66079       761.05094    
        30   0             -427.19972      3.843552       5.4783785      2.2657333      3.7865442      2.077764e-11   3.0727197e-11  1606.3207      6.3303952      9.4955928      12.66079       761.05094    
        31   0             -427.19972      3.843552       5.4783785      2.2657333      3.7865442      4.6119098e-11 -1.4352916e-11  1606.3207      6.3303952      9.4955928      12.66079       761.05094    
        32   0             -427.19972      3.843552       5.4783785      2.2657333      3.7865442     -3.4368665e-11  5.9709666e-12  1606.3207      6.3303952      9.4955928      12.66079       761.05094    
        33   0             -427.19972      3.843552       5.4783785      2.2657333      3.7865442      5.7678031e-11 -8.6101977e-12  1606.3207      6.3303952      9.4955928      12.66079       761.05094    
        34   0             -427.19972      3.843552       5.4783785      2.2657333      3.7865442      1.5832876e-11  4.0903404e-11  1606.3207      6.3303952      9.4955928      12.66079       761.05094    
        35   0             -427.19972      3.843552       5.4783785      2.2657333      3.7865442     -4.571624e-11   4.1249884e-11  1606.3207      6.3303952      9.4955928      12.66079       761.05094    
        36   0             -427.19972      3.843552       5.4783785      2.2657333      3.7865442      2.0651191e-11  2.9228977e-11  1606.3207      6.3303952      9.4955928      12.66079       761.05094    
        37   0             -427.19972      3.843552       5.4783785      2.2657333      3.7865442     -2.0306536e-11 -4.1847665e-11  1606.3207      6.3303952      9.4955928      12.66079       761.05094    
        38   0             -427.19972      3.843552       5.4783785      2.2657333      3.7865442      2.1483383e-11 -6.2435631e-11  1606.3207      6.3303952      9.4955928      12.66079       761.05094    
        39   0             -427.19972      3.843552       5.4783785      2.2657333      3.7865442     -1.0957728e-11 -2.1837167e-11  1606.3207      6.3303952      9.4955928      12.66079       761.05094    
        40   0             -427.19972      3.843552       5.4783785      2.2657333      3.7865442      2.3517757e-11 -2.1068656e-11  1606.3207      6.3303952      9.4955928      12.66079       761.05094    
Loop time of 0.001075 on 1 procs for 21 steps with 48 atoms

0.0% CPU use with 1 MPI tasks x 1 OpenMP threads

Minimization stats:
  Stopping criterion = force tolerance
  Energy initial, next-to-last, final = 
     -427.199718771384  -427.199718810479  -427.199718810479
  Force two-norm initial, final = 0.0013213009 9.7998996e-11
  Force max component initial, final = 0.00030758882 1.9769875e-11
  Final line search alpha, max atom move = 1 1.9769875e-11
  Iterations, force evaluations = 21 42

MPI task timing breakdown:
Section |  min time  |  avg time  |  max time  |%varavg| %total
---------------------------------------------------------------
Pair    | 0.000806   | 0.000806   | 0.000806   |   0.0 | 74.98
Neigh   | 0          | 0          | 0          |   0.0 |  0.00
Comm    | 5.6e-05    | 5.6e-05    | 5.6e-05    |   0.0 |  5.21
Output  | 0.000147   | 0.000147   | 0.000147   |   0.0 | 13.67
Modify  | 0          | 0          | 0          |   0.0 |  0.00
Other   |            | 6.6e-05    |            |       |  6.14

Nlocal:             48 ave          48 max          48 min
Histogram: 1 0 0 0 0 0 0 0 0 0
Nghost:            498 ave         498 max         498 min
Histogram: 1 0 0 0 0 0 0 0 0 0
Neighs:           1200 ave        1200 max        1200 min
Histogram: 1 0 0 0 0 0 0 0 0 0

Total # of neighbors = 1200
Ave neighs/atom = 25
Neighbor list builds = 0
Dangerous builds = 0
OMP_NUM_THREADS environment is not set. Defaulting to 1 thread. (src/comm.cpp:98)
  using 1 OpenMP thread(s) per MPI task
Loaded 1 plugins from F:\Lammps\LAMMPS 64-bit 2Aug2023\plugins

The 'box' command has been removed and will be ignored

Reading restart file ...
  restart file = 2 Aug 2023, LAMMPS = 2 Aug 2023
  restoring atom style atomic from restart
  triclinic box = (0.0048023897 0.0072035845 0.0096047793) to (6.3351976 9.5027964 12.670395) with tilt (0 0 0)
  1 by 1 by 1 MPI processor grid
  pair style eam/alloy stores no restart info
  48 atoms
  read_restart CPU = 0.000 seconds
Changing box ...
  triclinic box = (0.0048023897 0.0072035845 0.0096047793) to (6.3351976 9.5027964 12.670395) with tilt (0 0 0.01266079)
Neighbor list info ...
  update: every = 1 steps, delay = 0 steps, check = yes
  max neighbors/atom: 2000, page size: 100000
  master list distance cutoff = 5.403
  ghost atom cutoff = 5.403
  1 neighbor lists, perpetual/occasional/extra = 1 0 0
  (1) pair eam/alloy, perpetual
      attributes: half, newton on
      pair build: half/nsq/newton
      stencil: none
      bin: none
Setting up cg style minimization ...
  Unit style    : metal
  Current step  : 19
Per MPI rank memory allocation (min/avg/max) = 4.428 | 4.428 | 4.428 Mbytes
   Step          Temp          PotEng         Press           Pxx            Pyy            Pzz            Pxy            Pxz            Pyz             Lx             Ly             Lz           Volume    
        19   0             -427.19972      3.8384452      5.4713692      2.2584378      3.7855286      6.4721176e-05  2.3163402e-05 -1606.3207      6.3303952      9.4955928      12.66079       761.05094    
        20   0             -427.19972      3.8443747      5.4789353      2.2665233      3.7876656      1.8196948e-06 -1.2236833e-05 -1606.3207      6.3303952      9.4955928      12.66079       761.05094    
        21   0             -427.19972      3.8436394      5.4784307      2.2658552      3.7866322     -7.6373501e-07  5.2927097e-07 -1606.3207      6.3303952      9.4955928      12.66079       761.05094    
        22   0             -427.19972      3.8435629      5.4783862      2.2657444      3.7865582     -4.4805652e-07  1.572915e-07  -1606.3207      6.3303952      9.4955928      12.66079       761.05094    
        23   0             -427.19972      3.8435556      5.4783836      2.2657359      3.7865473     -2.7328583e-07  4.2664821e-08 -1606.3207      6.3303952      9.4955928      12.66079       761.05094    
        24   0             -427.19972      3.8435535      5.4783798      2.2657348      3.786546      -8.9955711e-08 -8.1078443e-09 -1606.3207      6.3303952      9.4955928      12.66079       761.05094    
        25   0             -427.19972      3.8435525      5.4783789      2.2657338      3.7865447     -2.6461259e-08  1.0159682e-10 -1606.3207      6.3303952      9.4955928      12.66079       761.05094    
        26   0             -427.19972      3.8435522      5.4783786      2.2657335      3.7865444     -1.0096211e-08  3.5600222e-10 -1606.3207      6.3303952      9.4955928      12.66079       761.05094    
        27   0             -427.19972      3.8435521      5.4783785      2.2657334      3.7865442     -1.3740194e-09  5.6159383e-10 -1606.3207      6.3303952      9.4955928      12.66079       761.05094    
        28   0             -427.19972      3.843552       5.4783785      2.2657333      3.7865442     -5.1849034e-11  3.0736555e-11 -1606.3207      6.3303952      9.4955928      12.66079       761.05094    
        29   0             -427.19972      3.843552       5.4783785      2.2657333      3.7865442      2.2550898e-11  1.0706883e-11 -1606.3207      6.3303952      9.4955928      12.66079       761.05094    
        30   0             -427.19972      3.843552       5.4783785      2.2657333      3.7865442      5.1356932e-11  9.6181407e-12 -1606.3207      6.3303952      9.4955928      12.66079       761.05094    
        31   0             -427.19972      3.843552       5.4783785      2.2657333      3.7865442     -1.1890121e-11  5.5963432e-11 -1606.3207      6.3303952      9.4955928      12.66079       761.05094    
        32   0             -427.19972      3.843552       5.4783785      2.2657333      3.7865442      6.3589881e-13  4.7464163e-11 -1606.3207      6.3303952      9.4955928      12.66079       761.05094    
        33   0             -427.19972      3.843552       5.4783785      2.2657333      3.7865442      3.7766135e-11 -9.5136031e-12 -1606.3207      6.3303952      9.4955928      12.66079       761.05094    
        34   0             -427.19972      3.843552       5.4783785      2.2657333      3.7865442      1.6199442e-11 -7.0184193e-11 -1606.3207      6.3303952      9.4955928      12.66079       761.05094    
        35   0             -427.19972      3.843552       5.4783785      2.2657333      3.7865442     -3.0862319e-11 -1.8352049e-11 -1606.3207      6.3303952      9.4955928      12.66079       761.05094    
        36   0             -427.19972      3.843552       5.4783785      2.2657333      3.7865442      7.1761158e-13 -7.6229112e-11 -1606.3207      6.3303952      9.4955928      12.66079       761.05094    
        37   0             -427.19972      3.843552       5.4783785      2.2657333      3.7865442      3.9690037e-11  4.0810735e-13 -1606.3207      6.3303952      9.4955928      12.66079       761.05094    
        38   0             -427.19972      3.843552       5.4783785      2.2657333      3.7865442      5.5993789e-11 -1.1187345e-11 -1606.3207      6.3303952      9.4955928      12.66079       761.05094    
        39   0             -427.19972      3.843552       5.4783785      2.2657333      3.7865442      5.0317262e-12  4.9874918e-11 -1606.3207      6.3303952      9.4955928      12.66079       761.05094    
        40   0             -427.19972      3.843552       5.4783785      2.2657333      3.7865442     -2.4597598e-11  2.5680178e-12 -1606.3207      6.3303952      9.4955928      12.66079       761.05094    
        41   0             -427.19972      3.843552       5.4783785      2.2657333      3.7865442     -2.0279831e-12 -8.9918283e-12 -1606.3207      6.3303952      9.4955928      12.66079       761.05094    
Loop time of 0.001133 on 1 procs for 22 steps with 48 atoms

0.0% CPU use with 1 MPI tasks x 1 OpenMP threads

Minimization stats:
  Stopping criterion = force tolerance
  Energy initial, next-to-last, final = 
     -427.199718771362  -427.199718810479  -427.199718810479
  Force two-norm initial, final = 0.0013220112 3.4353903e-11
  Force max component initial, final = 0.00030730429 1.0874746e-11
  Final line search alpha, max atom move = 1 1.0874746e-11
  Iterations, force evaluations = 22 44

MPI task timing breakdown:
Section |  min time  |  avg time  |  max time  |%varavg| %total
---------------------------------------------------------------
Pair    | 0.000866   | 0.000866   | 0.000866   |   0.0 | 76.43
Neigh   | 0          | 0          | 0          |   0.0 |  0.00
Comm    | 6.6e-05    | 6.6e-05    | 6.6e-05    |   0.0 |  5.83
Output  | 0.000148   | 0.000148   | 0.000148   |   0.0 | 13.06
Modify  | 0          | 0          | 0          |   0.0 |  0.00
Other   |            | 5.3e-05    |            |       |  4.68

Nlocal:             48 ave          48 max          48 min
Histogram: 1 0 0 0 0 0 0 0 0 0
Nghost:            498 ave         498 max         498 min
Histogram: 1 0 0 0 0 0 0 0 0 0
Neighs:           1200 ave        1200 max        1200 min
Histogram: 1 0 0 0 0 0 0 0 0 0

Total # of neighbors = 1200
Ave neighs/atom = 25
Neighbor list builds = 0
Dangerous builds = 0
OMP_NUM_THREADS environment is not set. Defaulting to 1 thread. (src/comm.cpp:98)
  using 1 OpenMP thread(s) per MPI task
Loaded 1 plugins from F:\Lammps\LAMMPS 64-bit 2Aug2023\plugins

The 'box' command has been removed and will be ignored

Reading restart file ...
  restart file = 2 Aug 2023, LAMMPS = 2 Aug 2023
  restoring atom style atomic from restart
  triclinic box = (0.0048023897 0.0072035845 0.0096047793) to (6.3351976 9.5027964 12.670395) with tilt (0 0 0)
  1 by 1 by 1 MPI processor grid
  pair style eam/alloy stores no restart info
  48 atoms
  read_restart CPU = 0.000 seconds
Changing box ...
  triclinic box = (0.0048023897 0.0072035845 0.0096047793) to (6.3351976 9.5027964 12.670395) with tilt (0 -0.01266079 0)
Neighbor list info ...
  update: every = 1 steps, delay = 0 steps, check = yes
  max neighbors/atom: 2000, page size: 100000
  master list distance cutoff = 5.403
  ghost atom cutoff = 5.403
  1 neighbor lists, perpetual/occasional/extra = 1 0 0
  (1) pair eam/alloy, perpetual
      attributes: half, newton on
      pair build: half/nsq/newton
      stencil: none
      bin: none
Setting up cg style minimization ...
  Unit style    : metal
  Current step  : 19
Per MPI rank memory allocation (min/avg/max) = 4.428 | 4.428 | 4.428 Mbytes
   Step          Temp          PotEng         Press           Pxx            Pyy            Pzz            Pxy            Pxz            Pyz             Lx             Ly             Lz           Volume    
        19   0             -427.19972      3.8384483      2.2587276      5.4710839      3.7855333      6.4498996e-05  1606.3207     -2.0527285e-05  6.3303952      9.4955928      12.66079       761.05094    
        20   0             -427.19972      3.8443696      2.2662789      5.4791696      3.7876605      1.4750273e-06  1606.3207      3.5617585e-06  6.3303952      9.4955928      12.66079       761.05094    
        21   0             -427.19972      3.8436389      2.2657849      5.4785006      3.7866312     -7.2444521e-07  1606.3207      5.2577017e-07  6.3303952      9.4955928      12.66079       761.05094    
        22   0             -427.19972      3.8435629      2.265741       5.4783896      3.7865581     -4.381574e-07   1606.3207      5.3885508e-08  6.3303952      9.4955928      12.66079       761.05094    
        23   0             -427.19972      3.8435556      2.2657384      5.478381       3.7865473     -2.7290763e-07  1606.3207     -1.4154441e-08  6.3303952      9.4955928      12.66079       761.05094    
        24   0             -427.19972      3.8435535      2.2657346      5.47838        3.786546      -9.0941707e-08  1606.3207     -1.8805587e-09  6.3303952      9.4955928      12.66079       761.05094    
        25   0             -427.19972      3.8435525      2.2657337      5.478379       3.7865447     -2.6875188e-08  1606.3207      4.7595944e-09  6.3303952      9.4955928      12.66079       761.05094    
        26   0             -427.19972      3.8435522      2.2657334      5.4783787      3.7865444     -1.0245057e-08  1606.3207      9.7136488e-10  6.3303952      9.4955928      12.66079       761.05094    
        27   0             -427.19972      3.8435521      2.2657333      5.4783786      3.7865442     -1.4395537e-09  1606.3207     -1.145257e-10   6.3303952      9.4955928      12.66079       761.05094    
        28   0             -427.19972      3.843552       2.2657333      5.4783785      3.7865442     -6.9440333e-11  1606.3207      4.9082441e-11  6.3303952      9.4955928      12.66079       761.05094    
        29   0             -427.19972      3.843552       2.2657333      5.4783785      3.7865442      2.4960512e-11  1606.3207     -5.14197e-12    6.3303952      9.4955928      12.66079       761.05094    
        30   0             -427.19972      3.843552       2.2657333      5.4783785      3.7865442     -4.5809365e-12  1606.3207      6.5443255e-11  6.3303952      9.4955928      12.66079       761.05094    
        31   0             -427.19972      3.843552       2.2657333      5.4783785      3.7865442      2.9033825e-11  1606.3207     -2.3372591e-11  6.3303952      9.4955928      12.66079       761.05094    
        32   0             -427.19972      3.843552       2.2657333      5.4783785      3.7865442      5.4116678e-11  1606.3207      3.599379e-11   6.3303952      9.4955928      12.66079       761.05094    
        33   0             -427.19972      3.843552       2.2657333      5.4783785      3.7865442      1.8085683e-11  1606.3207     -3.8331049e-11  6.3303952      9.4955928      12.66079       761.05094    
        34   0             -427.19972      3.843552       2.2657333      5.4783785      3.7865442      3.1541357e-11  1606.3207     -3.4591435e-11  6.3303952      9.4955928      12.66079       761.05094    
        35   0             -427.19972      3.843552       2.2657333      5.4783785      3.7865442      3.6554139e-11  1606.3207      2.6644754e-11  6.3303952      9.4955928      12.66079       761.05094    
        36   0             -427.19972      3.843552       2.2657333      5.4783785      3.7865442      2.422738e-11   1606.3207     -1.8230621e-11  6.3303952      9.4955928      12.66079       761.05094    
        37   0             -427.19972      3.843552       2.2657333      5.4783785      3.7865442      2.1990093e-11  1606.3207      9.8164882e-12  6.3303952      9.4955928      12.66079       761.05094    
        38   0             -427.19972      3.843552       2.2657333      5.4783785      3.7865442     -1.1210855e-11  1606.3207      4.0668308e-11  6.3303952      9.4955928      12.66079       761.05094    
        39   0             -427.19972      3.843552       2.2657333      5.4783785      3.7865442      1.7709531e-11  1606.3207     -4.0200856e-11  6.3303952      9.4955928      12.66079       761.05094    
        40   0             -427.19972      3.843552       2.2657333      5.4783785      3.7865442     -1.6155619e-11  1606.3207     -1.028394e-11   6.3303952      9.4955928      12.66079       761.05094    
        41   0             -427.19972      3.843552       2.2657333      5.4783785      3.7865442      8.9881535e-11  1606.3207      1.4958458e-11  6.3303952      9.4955928      12.66079       761.05094    
Loop time of 0.00111 on 1 procs for 22 steps with 48 atoms

0.0% CPU use with 1 MPI tasks x 1 OpenMP threads

Minimization stats:
  Stopping criterion = force tolerance
  Energy initial, next-to-last, final = 
      -427.19971877136  -427.199718810479  -427.199718810479
  Force two-norm initial, final = 0.001322171 5.5880484e-11
  Force max component initial, final = 0.00030750775 1.0532297e-11
  Final line search alpha, max atom move = 1 1.0532297e-11
  Iterations, force evaluations = 22 44

MPI task timing breakdown:
Section |  min time  |  avg time  |  max time  |%varavg| %total
---------------------------------------------------------------
Pair    | 0.000848   | 0.000848   | 0.000848   |   0.0 | 76.40
Neigh   | 0          | 0          | 0          |   0.0 |  0.00
Comm    | 5.5e-05    | 5.5e-05    | 5.5e-05    |   0.0 |  4.95
Output  | 0.000147   | 0.000147   | 0.000147   |   0.0 | 13.24
Modify  | 0          | 0          | 0          |   0.0 |  0.00
Other   |            | 6e-05      |            |       |  5.41

Nlocal:             48 ave          48 max          48 min
Histogram: 1 0 0 0 0 0 0 0 0 0
Nghost:            498 ave         498 max         498 min
Histogram: 1 0 0 0 0 0 0 0 0 0
Neighs:           1200 ave        1200 max        1200 min
Histogram: 1 0 0 0 0 0 0 0 0 0

Total # of neighbors = 1200
Ave neighs/atom = 25
Neighbor list builds = 0
Dangerous builds = 0
OMP_NUM_THREADS environment is not set. Defaulting to 1 thread. (src/comm.cpp:98)
  using 1 OpenMP thread(s) per MPI task
Loaded 1 plugins from F:\Lammps\LAMMPS 64-bit 2Aug2023\plugins

The 'box' command has been removed and will be ignored

Reading restart file ...
  restart file = 2 Aug 2023, LAMMPS = 2 Aug 2023
  restoring atom style atomic from restart
  triclinic box = (0.0048023897 0.0072035845 0.0096047793) to (6.3351976 9.5027964 12.670395) with tilt (0 0 0)
  1 by 1 by 1 MPI processor grid
  pair style eam/alloy stores no restart info
  48 atoms
  read_restart CPU = 0.000 seconds
Changing box ...
  triclinic box = (0.0048023897 0.0072035845 0.0096047793) to (6.3351976 9.5027964 12.670395) with tilt (0 0.01266079 0)
Neighbor list info ...
  update: every = 1 steps, delay = 0 steps, check = yes
  max neighbors/atom: 2000, page size: 100000
  master list distance cutoff = 5.403
  ghost atom cutoff = 5.403
  1 neighbor lists, perpetual/occasional/extra = 1 0 0
  (1) pair eam/alloy, perpetual
      attributes: half, newton on
      pair build: half/nsq/newton
      stencil: none
      bin: none
Setting up cg style minimization ...
  Unit style    : metal
  Current step  : 19
Per MPI rank memory allocation (min/avg/max) = 4.428 | 4.428 | 4.428 Mbytes
   Step          Temp          PotEng         Press           Pxx            Pyy            Pzz            Pxy            Pxz            Pyz             Lx             Ly             Lz           Volume    
        19   0             -427.19972      3.8384425      2.2587177      5.4710817      3.785528       6.702895e-05  -1606.3207     -2.6417558e-05  6.3303952      9.4955928      12.66079       761.05094    
        20   0             -427.19972      3.844375       2.2662826      5.4791753      3.7876669      1.2665502e-06 -1606.3207      3.5166068e-06  6.3303952      9.4955928      12.66079       761.05094    
        21   0             -427.19972      3.8436394      2.2657858      5.4784998      3.7866327     -7.4277421e-07 -1606.3207      5.9800644e-07  6.3303952      9.4955928      12.66079       761.05094    
        22   0             -427.19972      3.8435629      2.265741       5.4783895      3.7865583     -4.4346224e-07 -1606.3207      9.8288757e-08  6.3303952      9.4955928      12.66079       761.05094    
        23   0             -427.19972      3.8435556      2.2657385      5.4783811      3.7865472     -2.7251121e-07 -1606.3207      7.0468362e-09  6.3303952      9.4955928      12.66079       761.05094    
        24   0             -427.19972      3.8435535      2.2657346      5.47838        3.786546      -9.0842193e-08 -1606.3207      6.1035184e-09  6.3303952      9.4955928      12.66079       761.05094    
        25   0             -427.19972      3.8435525      2.2657336      5.4783791      3.7865447     -2.6800967e-08 -1606.3207      7.2828993e-09  6.3303952      9.4955928      12.66079       761.05094    
        26   0             -427.19972      3.8435522      2.2657334      5.4783787      3.7865444     -9.8549564e-09 -1606.3207      1.6603889e-09  6.3303952      9.4955928      12.66079       761.05094    
        27   0             -427.19972      3.8435521      2.2657333      5.4783786      3.7865442     -1.4120537e-09 -1606.3207      1.8698073e-11  6.3303952      9.4955928      12.66079       761.05094    
        28   0             -427.19972      3.843552       2.2657333      5.4783785      3.7865442     -4.9807356e-11 -1606.3207      1.2013512e-10  6.3303952      9.4955928      12.66079       761.05094    
        29   0             -427.19972      3.843552       2.2657333      5.4783785      3.7865442      2.657879e-11  -1606.3207      2.4774946e-11  6.3303952      9.4955928      12.66079       761.05094    
        30   0             -427.19972      3.843552       2.2657333      5.4783785      3.7865442     -3.8268509e-11 -1606.3207      0              6.3303952      9.4955928      12.66079       761.05094    
        31   0             -427.19972      3.843552       2.2657333      5.4783785      3.7865442     -5.7249153e-12 -1606.3207      3.7396145e-12  6.3303952      9.4955928      12.66079       761.05094    
        32   0             -427.19972      3.843552       2.2657333      5.4783785      3.7865442     -1.9407467e-11 -1606.3207      1.7763169e-11  6.3303952      9.4955928      12.66079       761.05094    
        33   0             -427.19972      3.843552       2.2657333      5.4783785      3.7865442      1.953734e-11  -1606.3207     -3.085182e-11   6.3303952      9.4955928      12.66079       761.05094    
        34   0             -427.19972      3.843552       2.2657333      5.4783785      3.7865442      5.4990868e-11 -1606.3207      1.3088651e-11  6.3303952      9.4955928      12.66079       761.05094    
        35   0             -427.19972      3.843552       2.2657333      5.4783785      3.7865442      3.100292e-11  -1606.3207     -2.1035332e-11  6.3303952      9.4955928      12.66079       761.05094    
        36   0             -427.19972      3.843552       2.2657333      5.4783785      3.7865442     -9.500593e-12  -1606.3207     -2.8047109e-12  6.3303952      9.4955928      12.66079       761.05094    
        37   0             -427.19972      3.843552       2.2657333      5.4783785      3.7865442      8.2267412e-12 -1606.3207      4.6745182e-13  6.3303952      9.4955928      12.66079       761.05094    
        38   0             -427.19972      3.843552       2.2657333      5.4783785      3.7865442     -3.0294439e-11 -1606.3207     -5.6094218e-12  6.3303952      9.4955928      12.66079       761.05094    
        39   0             -427.19972      3.843552       2.2657333      5.4783785      3.7865442     -4.7020449e-11 -1606.3207     -7.5259743e-11  6.3303952      9.4955928      12.66079       761.05094    
        40   0             -427.19972      3.843552       2.2657333      5.4783785      3.7865442     -1.8074271e-11 -1606.3207     -9.8164882e-12  6.3303952      9.4955928      12.66079       761.05094    
        41   0             -427.19972      3.843552       2.2657333      5.4783785      3.7865442     -2.4785446e-12 -1606.3207     -5.0484796e-11  6.3303952      9.4955928      12.66079       761.05094    
Loop time of 0.001105 on 1 procs for 22 steps with 48 atoms

0.0% CPU use with 1 MPI tasks x 1 OpenMP threads

Minimization stats:
  Stopping criterion = force tolerance
  Energy initial, next-to-last, final = 
     -427.199718771385  -427.199718810479  -427.199718810479
  Force two-norm initial, final = 0.0013211386 5.5684603e-11
  Force max component initial, final = 0.00030738134 1.2639279e-11
  Final line search alpha, max atom move = 1 1.2639279e-11
  Iterations, force evaluations = 22 44

MPI task timing breakdown:
Section |  min time  |  avg time  |  max time  |%varavg| %total
---------------------------------------------------------------
Pair    | 0.000845   | 0.000845   | 0.000845   |   0.0 | 76.47
Neigh   | 0          | 0          | 0          |   0.0 |  0.00
Comm    | 6e-05      | 6e-05      | 6e-05      |   0.0 |  5.43
Output  | 0.000144   | 0.000144   | 0.000144   |   0.0 | 13.03
Modify  | 0          | 0          | 0          |   0.0 |  0.00
Other   |            | 5.6e-05    |            |       |  5.07

Nlocal:             48 ave          48 max          48 min
Histogram: 1 0 0 0 0 0 0 0 0 0
Nghost:            498 ave         498 max         498 min
Histogram: 1 0 0 0 0 0 0 0 0 0
Neighs:           1200 ave        1200 max        1200 min
Histogram: 1 0 0 0 0 0 0 0 0 0

Total # of neighbors = 1200
Ave neighs/atom = 25
Neighbor list builds = 0
Dangerous builds = 0
OMP_NUM_THREADS environment is not set. Defaulting to 1 thread. (src/comm.cpp:98)
  using 1 OpenMP thread(s) per MPI task
Loaded 1 plugins from F:\Lammps\LAMMPS 64-bit 2Aug2023\plugins

The 'box' command has been removed and will be ignored

Reading restart file ...
  restart file = 2 Aug 2023, LAMMPS = 2 Aug 2023
  restoring atom style atomic from restart
  triclinic box = (0.0048023897 0.0072035845 0.0096047793) to (6.3351976 9.5027964 12.670395) with tilt (0 0 0)
  1 by 1 by 1 MPI processor grid
  pair style eam/alloy stores no restart info
  48 atoms
  read_restart CPU = 0.000 seconds
Changing box ...
  triclinic box = (0.0048023897 0.0072035845 0.0096047793) to (6.3351976 9.5027964 12.670395) with tilt (-0.0094955928 0 0)
Neighbor list info ...
  update: every = 1 steps, delay = 0 steps, check = yes
  max neighbors/atom: 2000, page size: 100000
  master list distance cutoff = 5.403
  ghost atom cutoff = 5.403
  1 neighbor lists, perpetual/occasional/extra = 1 0 0
  (1) pair eam/alloy, perpetual
      attributes: half, newton on
      pair build: half/nsq/newton
      stencil: none
      bin: none
Setting up cg style minimization ...
  Unit style    : metal
  Current step  : 19
Per MPI rank memory allocation (min/avg/max) = 4.428 | 4.428 | 4.428 Mbytes
   Step          Temp          PotEng         Press           Pxx            Pyy            Pzz            Pxy            Pxz            Pyz             Lx             Ly             Lz           Volume    
        19   0             -427.19972      3.8386188      2.2587312      3.7834791      5.4736459      1606.3208      2.484579e-05  -2.2398863e-05  6.3303952      9.4955928      12.66079       761.05094    
        20   0             -427.19972      3.8444004      2.2662778      3.7875418      5.4793816      1606.3207     -1.2116301e-05  2.9890318e-06  6.3303952      9.4955928      12.66079       761.05094    
        21   0             -427.19972      3.8436394      2.2657865      3.7866652      5.4784664      1606.3207      5.0943521e-07  6.0434649e-07  6.3303952      9.4955928      12.66079       761.05094    
        22   0             -427.19972      3.8435629      2.2657412      3.7865552      5.4783924      1606.3207      1.4100742e-07  8.5925123e-08  6.3303952      9.4955928      12.66079       761.05094    
        23   0             -427.19972      3.8435556      2.2657383      3.7865468      5.4783815      1606.3207      3.1067681e-08 -3.788697e-09   6.3303952      9.4955928      12.66079       761.05094    
        24   0             -427.19972      3.8435535      2.2657346      3.7865457      5.4783803      1606.3207     -1.1747696e-08  2.7888175e-09  6.3303952      9.4955928      12.66079       761.05094    
        25   0             -427.19972      3.8435525      2.2657336      3.7865447      5.478379       1606.3207     -1.0211805e-09  5.8618458e-09  6.3303952      9.4955928      12.66079       761.05094    
        26   0             -427.19972      3.8435522      2.2657334      3.7865444      5.4783787      1606.3207      2.8593763e-11  1.3869295e-09  6.3303952      9.4955928      12.66079       761.05094    
        27   0             -427.19972      3.8435521      2.2657333      3.7865443      5.4783786      1606.3207      4.4697296e-10 -4.6745182e-13  6.3303952      9.4955928      12.66079       761.05094    
        28   0             -427.19972      3.843552       2.2657333      3.7865442      5.4783785      1606.3207      2.566945e-11   5.1887152e-11  6.3303952      9.4955928      12.66079       761.05094    
        29   0             -427.19972      3.843552       2.2657333      3.7865442      5.4783785      1606.3207     -1.1097187e-11  6.5910706e-11  6.3303952      9.4955928      12.66079       761.05094    
        30   0             -427.19972      3.843552       2.2657333      3.7865442      5.4783785      1606.3207     -6.5093807e-11  2.8514561e-11  6.3303952      9.4955928      12.66079       761.05094    
        31   0             -427.19972      3.843552       2.2657333      3.7865442      5.4783785      1606.3207     -4.1148542e-12  3.9265953e-11  6.3303952      9.4955928      12.66079       761.05094    
        32   0             -427.19972      3.843552       2.2657333      3.7865442      5.4783785      1606.3207      3.7021819e-11  2.3840043e-11  6.3303952      9.4955928      12.66079       761.05094    
        33   0             -427.19972      3.843552       2.2657333      3.7865442      5.4783785      1606.3207     -4.763649e-11   1.2621199e-11  6.3303952      9.4955928      12.66079       761.05094    
        34   0             -427.19972      3.843552       2.2657333      3.7865442      5.4783785      1606.3207     -2.5736327e-11  1.2621199e-11  6.3303952      9.4955928      12.66079       761.05094    
        35   0             -427.19972      3.843552       2.2657333      3.7865442      5.4783785      1606.3207     -1.0838354e-11  4.2070664e-12  6.3303952      9.4955928      12.66079       761.05094    
        36   0             -427.19972      3.843552       2.2657333      3.7865442      5.4783785      1606.3207     -1.2575093e-11  1.9165525e-11  6.3303952      9.4955928      12.66079       761.05094    
        37   0             -427.19972      3.843552       2.2657333      3.7865442      5.4783785      1606.3207      1.5439605e-11 -1.8698073e-11  6.3303952      9.4955928      12.66079       761.05094    
        38   0             -427.19972      3.843552       2.2657333      3.7865442      5.4783785      1606.3207      3.161919e-11  -1.7295717e-11  6.3303952      9.4955928      12.66079       761.05094    
        39   0             -427.19972      3.843552       2.2657333      3.7865442      5.4783785      1606.3207     -5.3515929e-11 -4.2538115e-11  6.3303952      9.4955928      12.66079       761.05094    
        40   0             -427.19972      3.843552       2.2657333      3.7865442      5.4783785      1606.3207     -9.9029942e-12  5.2822055e-11  6.3303952      9.4955928      12.66079       761.05094    
        41   0             -427.19972      3.843552       2.2657333      3.7865442      5.4783785      1606.3207     -2.3829087e-11 -3.599379e-11   6.3303952      9.4955928      12.66079       761.05094    
Loop time of 0.001093 on 1 procs for 22 steps with 48 atoms

0.0% CPU use with 1 MPI tasks x 1 OpenMP threads

Minimization stats:
  Stopping criterion = force tolerance
  Energy initial, next-to-last, final = 
     -427.199718771341  -427.199718810479  -427.199718810479
  Force two-norm initial, final = 0.00132281 3.7472021e-11
  Force max component initial, final = 0.00030726238 1.0395129e-11
  Final line search alpha, max atom move = 1 1.0395129e-11
  Iterations, force evaluations = 22 44

MPI task timing breakdown:
Section |  min time  |  avg time  |  max time  |%varavg| %total
---------------------------------------------------------------
Pair    | 0.000826   | 0.000826   | 0.000826   |   0.0 | 75.57
Neigh   | 0          | 0          | 0          |   0.0 |  0.00
Comm    | 6e-05      | 6e-05      | 6e-05      |   0.0 |  5.49
Output  | 0.000154   | 0.000154   | 0.000154   |   0.0 | 14.09
Modify  | 0          | 0          | 0          |   0.0 |  0.00
Other   |            | 5.3e-05    |            |       |  4.85

Nlocal:             48 ave          48 max          48 min
Histogram: 1 0 0 0 0 0 0 0 0 0
Nghost:            498 ave         498 max         498 min
Histogram: 1 0 0 0 0 0 0 0 0 0
Neighs:           1200 ave        1200 max        1200 min
Histogram: 1 0 0 0 0 0 0 0 0 0

Total # of neighbors = 1200
Ave neighs/atom = 25
Neighbor list builds = 0
Dangerous builds = 0
OMP_NUM_THREADS environment is not set. Defaulting to 1 thread. (src/comm.cpp:98)
  using 1 OpenMP thread(s) per MPI task
Loaded 1 plugins from F:\Lammps\LAMMPS 64-bit 2Aug2023\plugins

The 'box' command has been removed and will be ignored

Reading restart file ...
  restart file = 2 Aug 2023, LAMMPS = 2 Aug 2023
  restoring atom style atomic from restart
  triclinic box = (0.0048023897 0.0072035845 0.0096047793) to (6.3351976 9.5027964 12.670395) with tilt (0 0 0)
  1 by 1 by 1 MPI processor grid
  pair style eam/alloy stores no restart info
  48 atoms
  read_restart CPU = 0.000 seconds
Changing box ...
  triclinic box = (0.0048023897 0.0072035845 0.0096047793) to (6.3351976 9.5027964 12.670395) with tilt (0.0094955928 0 0)
Neighbor list info ...
  update: every = 1 steps, delay = 0 steps, check = yes
  max neighbors/atom: 2000, page size: 100000
  master list distance cutoff = 5.403
  ghost atom cutoff = 5.403
  1 neighbor lists, perpetual/occasional/extra = 1 0 0
  (1) pair eam/alloy, perpetual
      attributes: half, newton on
      pair build: half/nsq/newton
      stencil: none
      bin: none
Setting up cg style minimization ...
  Unit style    : metal
  Current step  : 19
Per MPI rank memory allocation (min/avg/max) = 4.428 | 4.428 | 4.428 Mbytes
   Step          Temp          PotEng         Press           Pxx            Pyy            Pzz            Pxy            Pxz            Pyz             Lx             Ly             Lz           Volume    
        19   0             -427.19972      3.8386091      2.2587141      3.7834731      5.47364       -1606.3207      2.7375741e-05 -2.4541492e-05  6.3303952      9.4955928      12.66079       761.05094    
        20   0             -427.19972      3.8443965      2.2662837      3.7875304      5.4793755     -1606.3207     -1.22834e-05    4.0893723e-06  6.3303952      9.4955928      12.66079       761.05094    
        21   0             -427.19972      3.843639       2.2657842      3.7866667      5.4784662     -1606.3207      4.9662413e-07  5.1751544e-07  6.3303952      9.4955928      12.66079       761.05094    
        22   0             -427.19972      3.8435629      2.2657409      3.7865552      5.4783926     -1606.3207      1.3659857e-07  6.6029439e-08  6.3303952      9.4955928      12.66079       761.05094    
        23   0             -427.19972      3.8435556      2.2657386      3.7865467      5.4783816     -1606.3207      2.885508e-08  -2.706546e-09   6.3303952      9.4955928      12.66079       761.05094    
        24   0             -427.19972      3.8435535      2.2657346      3.7865457      5.4783803     -1606.3207     -1.1481774e-08  1.2265936e-09  6.3303952      9.4955928      12.66079       761.05094    
        25   0             -427.19972      3.8435525      2.2657337      3.7865447      5.478379      -1606.3207     -1.4649328e-09  6.1170745e-09  6.3303952      9.4955928      12.66079       761.05094    
        26   0             -427.19972      3.8435522      2.2657334      3.7865444      5.4783787     -1606.3207     -2.568666e-10   1.3831899e-09  6.3303952      9.4955928      12.66079       761.05094    
        27   0             -427.19972      3.8435521      2.2657333      3.7865443      5.4783786     -1606.3207      3.9301468e-10 -5.9833833e-11  6.3303952      9.4955928      12.66079       761.05094    
        28   0             -427.19972      3.843552       2.2657333      3.7865442      5.4783785     -1606.3207      5.7728474e-12  4.3005567e-11  6.3303952      9.4955928      12.66079       761.05094    
        29   0             -427.19972      3.843552       2.2657333      3.7865442      5.4783785     -1606.3207      2.9225782e-11  6.3105996e-11  6.3303952      9.4955928      12.66079       761.05094    
        30   0             -427.19972      3.843552       2.2657333      3.7865442      5.4783785     -1606.3207     -2.3727745e-11 -2.1502784e-11  6.3303952      9.4955928      12.66079       761.05094    
        31   0             -427.19972      3.843552       2.2657333      3.7865442      5.4783785     -1606.3207      7.4034508e-12  1.028394e-11   6.3303952      9.4955928      12.66079       761.05094    
        32   0             -427.19972      3.843552       2.2657333      3.7865442      5.4783785     -1606.3207      1.3278553e-11 -1.3556103e-11  6.3303952      9.4955928      12.66079       761.05094    
        33   0             -427.19972      3.843552       2.2657333      3.7865442      5.4783785     -1606.3207     -6.1307402e-12 -5.6094218e-11  6.3303952      9.4955928      12.66079       761.05094    
        34   0             -427.19972      3.843552       2.2657333      3.7865442      5.4783785     -1606.3207      7.4080157e-12 -6.5443255e-12  6.3303952      9.4955928      12.66079       761.05094    
        35   0             -427.19972      3.843552       2.2657333      3.7865442      5.4783785     -1606.3207      1.3249337e-11 -2.8982013e-11  6.3303952      9.4955928      12.66079       761.05094    
        36   0             -427.19972      3.843552       2.2657333      3.7865442      5.4783785     -1606.3207     -3.7963113e-11 -3.2721627e-12  6.3303952      9.4955928      12.66079       761.05094    
        37   0             -427.19972      3.843552       2.2657333      3.7865442      5.4783785     -1606.3207      8.6971602e-12 -9.8164882e-12  6.3303952      9.4955928      12.66079       761.05094    
        38   0             -427.19972      3.843552       2.2657333      3.7865442      5.4783785     -1606.3207     -1.9080616e-11  2.1970235e-11  6.3303952      9.4955928      12.66079       761.05094    
        39   0             -427.19972      3.843552       2.2657333      3.7865442      5.4783785     -1606.3207     -2.1747465e-11 -1.3556103e-11  6.3303952      9.4955928      12.66079       761.05094    
        40   0             -427.19972      3.843552       2.2657333      3.7865442      5.4783785     -1606.3207     -1.8998447e-11 -9.3490364e-13  6.3303952      9.4955928      12.66079       761.05094    
        41   0             -427.19972      3.843552       2.2657333      3.7865442      5.4783785     -1606.3207      4.322012e-11   3.7863597e-11  6.3303952      9.4955928      12.66079       761.05094    
Loop time of 0.001191 on 1 procs for 22 steps with 48 atoms

0.0% CPU use with 1 MPI tasks x 1 OpenMP threads

Minimization stats:
  Stopping criterion = force tolerance
  Energy initial, next-to-last, final = 
     -427.199718771403  -427.199718810479  -427.199718810479
  Force two-norm initial, final = 0.0013205341 3.6790232e-11
  Force max component initial, final = 0.00030762677 1.0670576e-11
  Final line search alpha, max atom move = 1 1.0670576e-11
  Iterations, force evaluations = 22 44

MPI task timing breakdown:
Section |  min time  |  avg time  |  max time  |%varavg| %total
---------------------------------------------------------------
Pair    | 0.000883   | 0.000883   | 0.000883   |   0.0 | 74.14
Neigh   | 0          | 0          | 0          |   0.0 |  0.00
Comm    | 8e-05      | 8e-05      | 8e-05      |   0.0 |  6.72
Output  | 0.000168   | 0.000168   | 0.000168   |   0.0 | 14.11
Modify  | 0          | 0          | 0          |   0.0 |  0.00
Other   |            | 6e-05      |            |       |  5.04

Nlocal:             48 ave          48 max          48 min
Histogram: 1 0 0 0 0 0 0 0 0 0
Nghost:            498 ave         498 max         498 min
Histogram: 1 0 0 0 0 0 0 0 0 0
Neighs:           1200 ave        1200 max        1200 min
Histogram: 1 0 0 0 0 0 0 0 0 0

Total # of neighbors = 1200
Ave neighs/atom = 25
Neighbor list builds = 0
Dangerous builds = 0
=========================================
Components of the Elastic Constant Tensor
=========================================
Elastic Constant C11all = 522.309139468895 GPa
Elastic Constant C22all = 522.309139468889 GPa
Elastic Constant C33all = 522.30913946889 GPa
Elastic Constant C12all = 204.436405967423 GPa
Elastic Constant C13all = 204.436405967425 GPa
Elastic Constant C23all = 204.436405967422 GPa
Elastic Constant C44all = 160.632071015621 GPa
Elastic Constant C55all = 160.632071015617 GPa
Elastic Constant C66all = 160.632071015618 GPa
Elastic Constant C14all = -1.75778039360971e-12 GPa
Elastic Constant C15all = -3.10166853808972e-12 GPa
Elastic Constant C16all = 3.7937881496728e-12 GPa
Elastic Constant C24all = -8.78346202200545e-13 GPa
Elastic Constant C25all = 7.91633988074977e-13 GPa
Elastic Constant C26all = -7.43841577509485e-13 GPa
Elastic Constant C34all = -4.95569888302847e-12 GPa
Elastic Constant C35all = -1.86986207438361e-12 GPa
Elastic Constant C36all = 4.02986933958942e-12 GPa
Elastic Constant C45all = 1.33416067185523e-12 GPa
Elastic Constant C46all = -1.20779118976128e-12 GPa
Elastic Constant C56all = 6.3277181470076e-13 GPa
=========================================
Average properties for a cubic crystal
=========================================
Bulk Modulus = 310.393983801246 GPa
Shear Modulus 1 = 160.632071015619 GPa
Shear Modulus 2 = 158.936366750734 GPa
Poisson Ratio = 0.281303968426372
Total wall time: 0:00:00
