LAMMPS (2 Aug 2023 - Update 3)
OMP_NUM_THREADS environment is not set. Defaulting to 1 thread. (src/comm.cpp:98)
  using 1 OpenMP thread(s) per MPI task
Loaded 1 plugins from F:\Lammps\LAMMPS 64-bit 2Aug2023\plugins
Lattice spacing in x,y,z = 3.17 3.17 3.17
Created triclinic box = (0 0 0) to (6.34 9.51 12.68) with tilt (0 0 0)
  1 by 1 by 1 MPI processor grid
Created 48 atoms
  using lattice units in triclinic box = (0 0 0) to (6.34 9.51 12.68) with tilt (0 0 0)
  create_atoms CPU = 0.000 seconds
Neighbor list info ...
  update: every = 1 steps, delay = 0 steps, check = yes
  max neighbors/atom: 2000, page size: 100000
  master list distance cutoff = 5.403
  ghost atom cutoff = 5.403
  1 neighbor lists, perpetual/occasional/extra = 1 0 0
  (1) pair eam/alloy, perpetual
      attributes: half, newton on
      pair build: half/nsq/newton
      stencil: none
      bin: none
Setting up cg style minimization ...
  Unit style    : metal
  Current step  : 0
WARNING: Energy due to 3 extra global DOFs will be included in minimizer energies
 (src/min.cpp:228)
Per MPI rank memory allocation (min/avg/max) = 4.428 | 4.428 | 4.428 Mbytes
   Step          Temp          PotEng         Press           Pxx            Pyy            Pzz            Pxy            Pxz            Pyz             Lx             Ly             Lz           Volume    
         0   0             -427.18485     -14061.267     -14061.267     -14061.267     -14061.267      1.2563925e-11  9.7719413e-12 -1.1167933e-11  6.34           9.51           12.68          764.52031    
         1   0             -427.1868      -13140.267     -13140.267     -13140.267     -13140.267     -9.7749194e-12 -1.1171284e-11  2.9790091e-11  6.339366       9.509049       12.678732      764.29098    
         2   0             -427.18861     -12216.068     -12216.068     -12216.068     -12216.068      3.6317477e-11  8.8465871e-12  2.6074151e-11  6.338732       9.508098       12.677464      764.06169    
         3   0             -427.19029     -11288.515     -11288.515     -11288.515     -11288.515      5.588995e-12   8.8958171e-11 -2.235598e-11   6.338098       9.507147       12.676196      763.83245    
         4   0             -427.19184     -10360.866     -10360.866     -10360.866     -10360.866     -1.3510792e-11 -4.4259491e-11 -9.4109655e-11  6.337464       9.506196       12.674928      763.60325    
         5   0             -427.19326     -9433.9647     -9433.9647     -9433.9647     -9433.9647      3.4952192e-11  3.2622046e-11 -4.9399099e-11  6.33683        9.505245       12.67366       763.3741     
         6   0             -427.19454     -8505.9502     -8505.9502     -8505.9502     -8505.9502     -4.6616914e-13  2.5173134e-11 -9.3233828e-12  6.336196       9.504294       12.672392      763.145      
         7   0             -427.19569     -7577.4287     -7577.4287     -7577.4287     -7577.4287      3.7304728e-12 -2.7978546e-12  1.6787128e-11  6.335562       9.503343       12.671124      762.91594    
         8   0             -427.1967      -6648.3976     -6648.3976     -6648.3976     -6648.3976      2.9386295e-11 -2.4255354e-11  9.5155621e-11  6.334928       9.502392       12.669856      762.68693    
         9   0             -427.19759     -5718.8365     -5718.8365     -5718.8365     -5718.8365      3.8726903e-11 -2.332946e-12  -5.225799e-11   6.334294       9.501441       12.668588      762.45796    
        10   0             -427.19834     -4788.7687     -4788.7687     -4788.7687     -4788.7687      0             -2.2403008e-11  1.1201504e-11  6.33366        9.50049        12.66732       762.22904    
        11   0             -427.19896     -3858.211      -3858.211      -3858.211      -3858.211       5.9759298e-11  1.6340433e-11  2.9879649e-11  6.333026       9.499539       12.666052      762.00017    
        12   0             -427.19944     -2927.0361     -2927.0361     -2927.0361     -2927.0361     -6.5381366e-12 -4.1096859e-11  7.0051463e-11  6.332392       9.498588       12.664784      761.77134    
        13   0             -427.19979     -1993.6933     -1993.6933     -1993.6933     -1993.6933     -1.1211601e-11  4.0174905e-11 -2.8029003e-11  6.331758       9.497637       12.663516      761.54256    
        14   0             -427.20001     -1074.988      -1074.988      -1074.988      -1074.988       2.289723e-11  -3.2710329e-12 -4.9532784e-11  6.331124       9.496686       12.662248      761.31382    
        15   0             -427.2001      -142.13918     -142.13918     -142.13918     -142.13918      3.1317157e-11  3.9264189e-11 -2.4306403e-11  6.33049        9.495735       12.66098       761.08513    
        16   0             -427.2001       0.95789324     0.95789324     0.95789324     0.95789324    -3.7864317e-11  5.9833851e-11 -5.4224427e-11  6.3303946      9.4955919      12.660789      761.05071    
        17   0             -427.2001      -0.015746567   -0.015746567   -0.015746566   -0.015746567   -4.9083149e-11  1.6360814e-11  6.5443254e-12  6.3303952      9.4955928      12.66079       761.05095    
        18   0             -427.2001       3.994392e-05   3.9944049e-05  3.9943684e-05  3.9944027e-05 -5.3290215e-11 -4.6745182e-13  2.8982013e-11  6.3303952      9.4955928      12.66079       761.05094    
        19   0             -427.2001       5.0227698e-10  3.0664839e-10  4.7913811e-10  7.2104443e-10 -9.3631975e-13  6.0768736e-12 -3.2721627e-11  6.3303952      9.4955928      12.66079       761.05094    
Loop time of 0.001376 on 1 procs for 19 steps with 48 atoms

0.0% CPU use with 1 MPI tasks x 1 OpenMP threads

Minimization stats:
  Stopping criterion = force tolerance
  Energy initial, next-to-last, final = 
     -427.184848841919  -427.200100306399  -427.200100306395
  Force two-norm initial, final = 11.621542 7.650787e-13
  Force max component initial, final = 6.7097004 3.4302347e-13
  Final line search alpha, max atom move = 1 3.4302347e-13
  Iterations, force evaluations = 19 23

MPI task timing breakdown:
Section |  min time  |  avg time  |  max time  |%varavg| %total
---------------------------------------------------------------
Pair    | 0.000471   | 0.000471   | 0.000471   |   0.0 | 34.23
Neigh   | 0          | 0          | 0          |   0.0 |  0.00
Comm    | 3.8e-05    | 3.8e-05    | 3.8e-05    |   0.0 |  2.76
Output  | 0.000165   | 0.000165   | 0.000165   |   0.0 | 11.99
Modify  | 0          | 0          | 0          |   0.0 |  0.00
Other   |            | 0.000702   |            |       | 51.02

Nlocal:             48 ave          48 max          48 min
Histogram: 1 0 0 0 0 0 0 0 0 0
Nghost:            498 ave         498 max         498 min
Histogram: 1 0 0 0 0 0 0 0 0 0
Neighs:           1200 ave        1200 max        1200 min
Histogram: 1 0 0 0 0 0 0 0 0 0

Total # of neighbors = 1200
Ave neighs/atom = 25
Neighbor list builds = 0
Dangerous builds = 0
Displacing atoms ...
System init for write_restart ...
OMP_NUM_THREADS environment is not set. Defaulting to 1 thread. (src/comm.cpp:98)
  using 1 OpenMP thread(s) per MPI task
Loaded 1 plugins from F:\Lammps\LAMMPS 64-bit 2Aug2023\plugins

The 'box' command has been removed and will be ignored

Reading restart file ...
  restart file = 2 Aug 2023, LAMMPS = 2 Aug 2023
  restoring atom style atomic from restart
  triclinic box = (0.0048023897 0.0072035845 0.0096047793) to (6.3351976 9.5027964 12.670395) with tilt (0 0 0)
  1 by 1 by 1 MPI processor grid
  pair style eam/alloy stores no restart info
  48 atoms
  read_restart CPU = 0.000 seconds
Changing box ...
  triclinic box = (0.0048023897 0.0072035845 0.0096047793) to (6.3345646 9.5027964 12.670395) with tilt (0 0 0)
  triclinic box = (0.0048023897 0.0072035845 0.0096047793) to (6.3345646 9.5027964 12.670395) with tilt (0 0 0)
  triclinic box = (0.0048023897 0.0072035845 0.0096047793) to (6.3345646 9.5027964 12.670395) with tilt (0 0 0)
Neighbor list info ...
  update: every = 1 steps, delay = 0 steps, check = yes
  max neighbors/atom: 2000, page size: 100000
  master list distance cutoff = 5.403
  ghost atom cutoff = 5.403
  1 neighbor lists, perpetual/occasional/extra = 1 0 0
  (1) pair eam/alloy, perpetual
      attributes: half, newton on
      pair build: half/nsq/newton
      stencil: none
      bin: none
Setting up cg style minimization ...
  Unit style    : metal
  Current step  : 19
Per MPI rank memory allocation (min/avg/max) = 4.428 | 4.428 | 4.428 Mbytes
   Step          Temp          PotEng         Press           Pxx            Pyy            Pzz            Pxy            Pxz            Pyz             Lx             Ly             Lz           Volume    
        19   0             -427.20009      313.42521      531.2969       204.48809      204.49065      6.9118978e-05  2.7459984e-05 -2.4762393e-05  6.3297622      9.4955928      12.66079       760.97484    
        20   0             -427.20009      313.43174      531.30269      204.49616      204.49637      1.3824847e-06 -1.251514e-05   3.5105748e-06  6.3297622      9.4955928      12.66079       760.97484    
        21   0             -427.20009      313.43143      531.30334      204.49549      204.49546     -7.7305481e-07  5.8002812e-07  5.1633955e-07  6.3297622      9.4955928      12.66079       760.97484    
        22   0             -427.20009      313.43138      531.30337      204.49539      204.49539     -4.5835281e-07  1.4495849e-07  7.2773632e-08  6.3297622      9.4955928      12.66079       760.97484    
        23   0             -427.20009      313.43137      531.30337      204.49538      204.49538     -2.7901369e-07  2.317036e-08  -7.829666e-09   6.3297622      9.4955928      12.66079       760.97484    
        24   0             -427.20009      313.43137      531.30337      204.49538      204.49538     -8.8591968e-08 -1.1494804e-08  2.8311713e-09  6.3297622      9.4955928      12.66079       760.97484    
        25   0             -427.20009      313.43137      531.30337      204.49537      204.49537     -2.6725832e-08 -1.9315957e-09  6.1415287e-09  6.3297622      9.4955928      12.66079       760.97484    
        26   0             -427.20009      313.43137      531.30337      204.49537      204.49537     -9.5836583e-09 -1.7243415e-10  1.143034e-09   6.3297622      9.4955928      12.66079       760.97484    
        27   0             -427.20009      313.43137      531.30337      204.49537      204.49537     -1.1689557e-09  3.5496952e-10 -1.5427453e-11  6.3297622      9.4955928      12.66079       760.97484    
        28   0             -427.20009      313.43137      531.30337      204.49537      204.49537     -9.2974691e-11 -1.1873505e-11  8.0409754e-11  6.3297622      9.4955928      12.66079       760.97484    
        29   0             -427.20009      313.43137      531.30337      204.49537      204.49537      4.4978019e-11  1.8021522e-11  9.0227224e-11  6.3297622      9.4955928      12.66079       760.97484    
        30   0             -427.20009      313.43137      531.30337      204.49537      204.49537      4.1890428e-11 -2.2601547e-11  5.6099828e-12  6.3297622      9.4955928      12.66079       760.97484    
        31   0             -427.20009      313.43137      531.30337      204.49537      204.49537     -2.9497836e-11  2.5096547e-11 -4.4412364e-11  6.3297622      9.4955928      12.66079       760.97484    
        32   0             -427.20009      313.43137      531.30337      204.49537      204.49537      2.7076111e-11 -2.6193388e-11 -2.3842427e-11  6.3297622      9.4955928      12.66079       760.97484    
        33   0             -427.20009      313.43137      531.30337      204.49537      204.49537      3.0916995e-11  2.4475194e-11 -5.7034825e-11  6.3297622      9.4955928      12.66079       760.97484    
        34   0             -427.20009      313.43137      531.30337      204.49537      204.49537      2.4587046e-11 -3.5147994e-11  5.6099828e-12  6.3297622      9.4955928      12.66079       760.97484    
        35   0             -427.20009      313.43137      531.30337      204.49537      204.49537      2.0942931e-11 -2.2559773e-11  3.9737378e-11  6.3297622      9.4955928      12.66079       760.97484    
        36   0             -427.20009      313.43137      531.30337      204.49537      204.49537     -1.1682899e-11  2.528487e-11  -7.9474757e-12  6.3297622      9.4955928      12.66079       760.97484    
        37   0             -427.20009      313.43137      531.30337      204.49537      204.49537      8.9520954e-12  7.0506226e-11  2.5712421e-11  6.3297622      9.4955928      12.66079       760.97484    
        38   0             -427.20009      313.43137      531.30337      204.49537      204.49537      3.9483085e-11  6.6203093e-12  7.9474757e-11  6.3297622      9.4955928      12.66079       760.97484    
        39   0             -427.20009      313.43137      531.30337      204.49537      204.49537      2.6164169e-11  2.4397582e-11  1.1219966e-11  6.3297622      9.4955928      12.66079       760.97484    
        40   0             -427.20009      313.43137      531.30337      204.49537      204.49537      3.8370949e-11 -1.0682799e-10 -2.9919908e-11  6.3297622      9.4955928      12.66079       760.97484    
Loop time of 0.001191 on 1 procs for 21 steps with 48 atoms

0.0% CPU use with 1 MPI tasks x 1 OpenMP threads

Minimization stats:
  Stopping criterion = force tolerance
  Energy initial, next-to-last, final = 
     -427.200087574109  -427.200087612873  -427.200087612873
  Force two-norm initial, final = 0.0013093289 7.6109051e-11
  Force max component initial, final = 0.00030071155 1.9939437e-11
  Final line search alpha, max atom move = 1 1.9939437e-11
  Iterations, force evaluations = 21 42

MPI task timing breakdown:
Section |  min time  |  avg time  |  max time  |%varavg| %total
---------------------------------------------------------------
Pair    | 0.000899   | 0.000899   | 0.000899   |   0.0 | 75.48
Neigh   | 0          | 0          | 0          |   0.0 |  0.00
Comm    | 6.6e-05    | 6.6e-05    | 6.6e-05    |   0.0 |  5.54
Output  | 0.000173   | 0.000173   | 0.000173   |   0.0 | 14.53
Modify  | 0          | 0          | 0          |   0.0 |  0.00
Other   |            | 5.3e-05    |            |       |  4.45

Nlocal:             48 ave          48 max          48 min
Histogram: 1 0 0 0 0 0 0 0 0 0
Nghost:            498 ave         498 max         498 min
Histogram: 1 0 0 0 0 0 0 0 0 0
Neighs:           1200 ave        1200 max        1200 min
Histogram: 1 0 0 0 0 0 0 0 0 0

Total # of neighbors = 1200
Ave neighs/atom = 25
Neighbor list builds = 0
Dangerous builds = 0
OMP_NUM_THREADS environment is not set. Defaulting to 1 thread. (src/comm.cpp:98)
  using 1 OpenMP thread(s) per MPI task
Loaded 1 plugins from F:\Lammps\LAMMPS 64-bit 2Aug2023\plugins

The 'box' command has been removed and will be ignored

Reading restart file ...
  restart file = 2 Aug 2023, LAMMPS = 2 Aug 2023
  restoring atom style atomic from restart
  triclinic box = (0.0048023897 0.0072035845 0.0096047793) to (6.3351976 9.5027964 12.670395) with tilt (0 0 0)
  1 by 1 by 1 MPI processor grid
  pair style eam/alloy stores no restart info
  48 atoms
  read_restart CPU = 0.000 seconds
Changing box ...
  triclinic box = (0.0048023897 0.0072035845 0.0096047793) to (6.3358306 9.5027964 12.670395) with tilt (0 0 0)
  triclinic box = (0.0048023897 0.0072035845 0.0096047793) to (6.3358306 9.5027964 12.670395) with tilt (0 0 0)
  triclinic box = (0.0048023897 0.0072035845 0.0096047793) to (6.3358306 9.5027964 12.670395) with tilt (0 0 0)
Neighbor list info ...
  update: every = 1 steps, delay = 0 steps, check = yes
  max neighbors/atom: 2000, page size: 100000
  master list distance cutoff = 5.403
  ghost atom cutoff = 5.403
  1 neighbor lists, perpetual/occasional/extra = 1 0 0
  (1) pair eam/alloy, perpetual
      attributes: half, newton on
      pair build: half/nsq/newton
      stencil: none
      bin: none
Setting up cg style minimization ...
  Unit style    : metal
  Current step  : 19
Per MPI rank memory allocation (min/avg/max) = 4.428 | 4.428 | 4.428 Mbytes
   Step          Temp          PotEng         Press           Pxx            Pyy            Pzz            Pxy            Pxz            Pyz             Lx             Ly             Lz           Volume    
        19   0             -427.20009     -312.20207     -527.90913     -204.34982     -204.34726      6.3192428e-05  2.5376779e-05 -2.2178038e-05  6.3310283      9.4955928      12.66079       761.12705    
        20   0             -427.20009     -312.20071     -527.91887     -204.34174     -204.34153      1.213886e-06  -1.1493615e-05  3.3341547e-06  6.3310283      9.4955928      12.66079       761.12705    
        21   0             -427.20009     -312.20162     -527.92003     -204.3424      -204.34243     -6.9799753e-07  5.1060593e-07  4.7082461e-07  6.3310283      9.4955928      12.66079       761.12705    
        22   0             -427.20009     -312.20169     -527.92008     -204.3425      -204.3425      -4.1868206e-07  1.2935316e-07  6.6049012e-08  6.3310283      9.4955928      12.66079       761.12705    
        23   0             -427.20009     -312.2017      -527.92008     -204.34251     -204.34251     -2.5506045e-07  2.0054713e-08 -8.5675351e-09  6.3310283      9.4955928      12.66079       761.12705    
        24   0             -427.20009     -312.2017      -527.92009     -204.34251     -204.34251     -7.9580282e-08 -1.0164413e-08  2.4987475e-09  6.3310283      9.4955928      12.66079       761.12705    
        25   0             -427.20009     -312.2017      -527.92009     -204.34251     -204.34251     -2.4047844e-08 -2.0088196e-09  5.6476556e-09  6.3310283      9.4955928      12.66079       761.12705    
        26   0             -427.20009     -312.2017      -527.92009     -204.34251     -204.34251     -8.5951754e-09 -1.7082902e-10  9.8108326e-10  6.3310283      9.4955928      12.66079       761.12705    
        27   0             -427.20009     -312.2017      -527.92009     -204.34251     -204.34251     -1.0376123e-09  3.0485697e-10  3.5522786e-11  6.3310283      9.4955928      12.66079       761.12705    
        28   0             -427.20009     -312.2017      -527.92009     -204.34251     -204.34251     -4.0855266e-11 -7.8347407e-12  1.2105792e-10  6.3310283      9.4955928      12.66079       761.12705    
        29   0             -427.20009     -312.2017      -527.92009     -204.34251     -204.34251      8.5668641e-11  1.7942375e-11  1.2292754e-10  6.3310283      9.4955928      12.66079       761.12705    
        30   0             -427.20009     -312.2017      -527.92009     -204.34251     -204.34251     -5.4937442e-11 -2.2914488e-11  1.3087342e-11  6.3310283      9.4955928      12.66079       761.12705    
        31   0             -427.20009     -312.2017      -527.92009     -204.34251     -204.34251     -2.0831249e-11 -4.5706648e-12 -7.4784812e-12  6.3310283      9.4955928      12.66079       761.12705    
        32   0             -427.20009     -312.2017      -527.92009     -204.34251     -204.34251     -1.1034457e-11 -8.2202129e-12 -5.0012343e-11  6.3310283      9.4955928      12.66079       761.12705    
        33   0             -427.20009     -312.2017      -527.92009     -204.34251     -204.34251      4.703469e-11  -1.5125849e-11  3.8794621e-11  6.3310283      9.4955928      12.66079       761.12705    
        34   0             -427.20009     -312.2017      -527.92009     -204.34251     -204.34251      5.518712e-12  -2.6391726e-11 -2.944652e-11   6.3310283      9.4955928      12.66079       761.12705    
        35   0             -427.20009     -312.2017      -527.92009     -204.34251     -204.34251     -7.5419278e-12  3.2978532e-11 -1.6359178e-11  6.3310283      9.4955928      12.66079       761.12705    
        36   0             -427.20009     -312.2017      -527.92009     -204.34251     -204.34251     -2.2665038e-12  1.7599125e-11  2.0565823e-11  6.3310283      9.4955928      12.66079       761.12705    
        37   0             -427.20009     -312.2017      -527.92009     -204.34251     -204.34251      1.2991259e-11 -1.3221995e-11  4.2066457e-12  6.3310283      9.4955928      12.66079       761.12705    
        38   0             -427.20009     -312.2017      -527.92009     -204.34251     -204.34251      2.2769337e-11 -4.3127704e-11  1.1217722e-11  6.3310283      9.4955928      12.66079       761.12705    
        39   0             -427.20009     -312.2017      -527.92009     -204.34251     -204.34251      4.9111311e-11 -5.5353724e-12 -3.5990191e-11  6.3310283      9.4955928      12.66079       761.12705    
        40   0             -427.20009     -312.2017      -527.92009     -204.34251     -204.34251     -4.6098054e-11 -3.6444359e-11  3.9729432e-11  6.3310283      9.4955928      12.66079       761.12705    
Loop time of 0.001139 on 1 procs for 21 steps with 48 atoms

0.0% CPU use with 1 MPI tasks x 1 OpenMP threads

Minimization stats:
  Stopping criterion = force tolerance
  Energy initial, next-to-last, final = 
     -427.200087611166  -427.200087649755  -427.200087649756
  Force two-norm initial, final = 0.0013029775 6.99419e-11
  Force max component initial, final = 0.00029749982 1.9646951e-11
  Final line search alpha, max atom move = 1 1.9646951e-11
  Iterations, force evaluations = 21 42

MPI task timing breakdown:
Section |  min time  |  avg time  |  max time  |%varavg| %total
---------------------------------------------------------------
Pair    | 0.000872   | 0.000872   | 0.000872   |   0.0 | 76.56
Neigh   | 0          | 0          | 0          |   0.0 |  0.00
Comm    | 6.7e-05    | 6.7e-05    | 6.7e-05    |   0.0 |  5.88
Output  | 0.000157   | 0.000157   | 0.000157   |   0.0 | 13.78
Modify  | 0          | 0          | 0          |   0.0 |  0.00
Other   |            | 4.3e-05    |            |       |  3.78

Nlocal:             48 ave          48 max          48 min
Histogram: 1 0 0 0 0 0 0 0 0 0
Nghost:            498 ave         498 max         498 min
Histogram: 1 0 0 0 0 0 0 0 0 0
Neighs:           1200 ave        1200 max        1200 min
Histogram: 1 0 0 0 0 0 0 0 0 0

Total # of neighbors = 1200
Ave neighs/atom = 25
Neighbor list builds = 0
Dangerous builds = 0
OMP_NUM_THREADS environment is not set. Defaulting to 1 thread. (src/comm.cpp:98)
  using 1 OpenMP thread(s) per MPI task
Loaded 1 plugins from F:\Lammps\LAMMPS 64-bit 2Aug2023\plugins

The 'box' command has been removed and will be ignored

Reading restart file ...
  restart file = 2 Aug 2023, LAMMPS = 2 Aug 2023
  restoring atom style atomic from restart
  triclinic box = (0.0048023897 0.0072035845 0.0096047793) to (6.3351976 9.5027964 12.670395) with tilt (0 0 0)
  1 by 1 by 1 MPI processor grid
  pair style eam/alloy stores no restart info
  48 atoms
  read_restart CPU = 0.000 seconds
Changing box ...
  triclinic box = (0.0048023897 0.0072035845 0.0096047793) to (6.3351976 9.5018469 12.670395) with tilt (0 0 0)
  triclinic box = (0.0048023897 0.0072035845 0.0096047793) to (6.3351976 9.5018469 12.670395) with tilt (0 0 0)
Neighbor list info ...
  update: every = 1 steps, delay = 0 steps, check = yes
  max neighbors/atom: 2000, page size: 100000
  master list distance cutoff = 5.403
  ghost atom cutoff = 5.403
  1 neighbor lists, perpetual/occasional/extra = 1 0 0
  (1) pair eam/alloy, perpetual
      attributes: half, newton on
      pair build: half/nsq/newton
      stencil: none
      bin: none
Setting up cg style minimization ...
  Unit style    : metal
  Current step  : 19
Per MPI rank memory allocation (min/avg/max) = 4.428 | 4.428 | 4.428 Mbytes
   Step          Temp          PotEng         Press           Pxx            Pyy            Pzz            Pxy            Pxz            Pyz             Lx             Ly             Lz           Volume    
        19   0             -427.20009      313.42587      204.48838      531.29857      204.49065      6.8977257e-05  2.7206917e-05 -2.4986791e-05  6.3303952      9.4946433      12.66079       760.97484    
        20   0             -427.20009      313.43169      204.49591      531.30279      204.49637      1.3616704e-06 -1.2267147e-05  3.3611352e-06  6.3303952      9.4946433      12.66079       760.97484    
        21   0             -427.20009      313.4314       204.49543      531.3033       204.49546     -8.1485345e-07  5.4736574e-07  5.2893676e-07  6.3303952      9.4946433      12.66079       760.97484    
        22   0             -427.20009      313.43138      204.49538      531.30336      204.49539     -4.6446191e-07  1.4284723e-07  7.7515938e-08  6.3303952      9.4946433      12.66079       760.97484    
        23   0             -427.20009      313.43138      204.49538      531.30337      204.49538     -2.7764071e-07  2.5500814e-08 -2.4702624e-09  6.3303952      9.4946433      12.66079       760.97484    
        24   0             -427.20009      313.43137      204.49538      531.30337      204.49538     -9.2234597e-08 -1.0919063e-08  1.9162766e-09  6.3303952      9.4946433      12.66079       760.97484    
        25   0             -427.20009      313.43137      204.49537      531.30337      204.49537     -2.777211e-08  -7.7687145e-10  6.3159057e-09  6.3303952      9.4946433      12.66079       760.97484    
        26   0             -427.20009      313.43137      204.49537      531.30337      204.49537     -1.0633025e-08 -1.1382015e-10  1.4081057e-09  6.3303952      9.4946433      12.66079       760.97484    
        27   0             -427.20009      313.43137      204.49537      531.30337      204.49537     -1.3605742e-09  4.2607724e-10 -1.304321e-10   6.3303952      9.4946433      12.66079       760.97484    
        28   0             -427.20009      313.43137      204.49537      531.30337      204.49537     -1.2552907e-10 -2.1369341e-11  1.1500465e-10  6.3303952      9.4946433      12.66079       760.97484    
        29   0             -427.20009      313.43137      204.49537      531.30337      204.49537      5.0090143e-11  3.5904255e-11  4.908735e-11   6.3303952      9.4946433      12.66079       760.97484    
        30   0             -427.20009      313.43137      204.49537      531.30337      204.49537     -1.184908e-11   3.1743335e-11  2.1504934e-11  6.3303952      9.4946433      12.66079       760.97484    
        31   0             -427.20009      313.43137      204.49537      531.30337      204.49537      4.8922995e-12  2.0467443e-11  5.4229834e-11  6.3303952      9.4946433      12.66079       760.97484    
        32   0             -427.20009      313.43137      204.49537      531.30337      204.49537      2.3515543e-11 -4.8207594e-11  4.0204877e-11  6.3303952      9.4946433      12.66079       760.97484    
        33   0             -427.20009      313.43137      204.49537      531.30337      204.49537     -3.796554e-11  -3.67274e-11    1.4024957e-12  6.3303952      9.4946433      12.66079       760.97484    
        34   0             -427.20009      313.43137      204.49537      531.30337      204.49537      4.9765314e-12  1.1968237e-11 -4.9554848e-11  6.3303952      9.4946433      12.66079       760.97484    
        35   0             -427.20009      313.43137      204.49537      531.30337      204.49537      3.5869558e-11  2.4898179e-11  3.8802381e-11  6.3303952      9.4946433      12.66079       760.97484    
        36   0             -427.20009      313.43137      204.49537      531.30337      204.49537      2.4379776e-11 -9.3910601e-13  2.2439931e-11  6.3303952      9.4946433      12.66079       760.97484    
        37   0             -427.20009      313.43137      204.49537      531.30337      204.49537      3.0013043e-11 -5.3266988e-12 -6.4514802e-11  6.3303952      9.4946433      12.66079       760.97484    
        38   0             -427.20009      313.43137      204.49537      531.30337      204.49537     -3.4668854e-11 -2.74644e-11   -2.3374928e-11  6.3303952      9.4946433      12.66079       760.97484    
        39   0             -427.20009      313.43137      204.49537      531.30337      204.49537      1.5549349e-11 -3.7519728e-11 -6.2644808e-11  6.3303952      9.4946433      12.66079       760.97484    
        40   0             -427.20009      313.43137      204.49537      531.30337      204.49537      8.5250007e-12 -3.3774032e-11 -1.7297447e-11  6.3303952      9.4946433      12.66079       760.97484    
Loop time of 0.001163 on 1 procs for 21 steps with 48 atoms

0.0% CPU use with 1 MPI tasks x 1 OpenMP threads

Minimization stats:
  Stopping criterion = force tolerance
  Energy initial, next-to-last, final = 
     -427.200087574022  -427.200087612873  -427.200087612873
  Force two-norm initial, final = 0.0013128608 6.9618306e-11
  Force max component initial, final = 0.00030753132 1.7741586e-11
  Final line search alpha, max atom move = 1 1.7741586e-11
  Iterations, force evaluations = 21 42

MPI task timing breakdown:
Section |  min time  |  avg time  |  max time  |%varavg| %total
---------------------------------------------------------------
Pair    | 0.000876   | 0.000876   | 0.000876   |   0.0 | 75.32
Neigh   | 0          | 0          | 0          |   0.0 |  0.00
Comm    | 6.8e-05    | 6.8e-05    | 6.8e-05    |   0.0 |  5.85
Output  | 0.000175   | 0.000175   | 0.000175   |   0.0 | 15.05
Modify  | 0          | 0          | 0          |   0.0 |  0.00
Other   |            | 4.4e-05    |            |       |  3.78

Nlocal:             48 ave          48 max          48 min
Histogram: 1 0 0 0 0 0 0 0 0 0
Nghost:            498 ave         498 max         498 min
Histogram: 1 0 0 0 0 0 0 0 0 0
Neighs:           1200 ave        1200 max        1200 min
Histogram: 1 0 0 0 0 0 0 0 0 0

Total # of neighbors = 1200
Ave neighs/atom = 25
Neighbor list builds = 0
Dangerous builds = 0
OMP_NUM_THREADS environment is not set. Defaulting to 1 thread. (src/comm.cpp:98)
  using 1 OpenMP thread(s) per MPI task
Loaded 1 plugins from F:\Lammps\LAMMPS 64-bit 2Aug2023\plugins

The 'box' command has been removed and will be ignored

Reading restart file ...
  restart file = 2 Aug 2023, LAMMPS = 2 Aug 2023
  restoring atom style atomic from restart
  triclinic box = (0.0048023897 0.0072035845 0.0096047793) to (6.3351976 9.5027964 12.670395) with tilt (0 0 0)
  1 by 1 by 1 MPI processor grid
  pair style eam/alloy stores no restart info
  48 atoms
  read_restart CPU = 0.000 seconds
Changing box ...
  triclinic box = (0.0048023897 0.0072035845 0.0096047793) to (6.3351976 9.503746 12.670395) with tilt (0 0 0)
  triclinic box = (0.0048023897 0.0072035845 0.0096047793) to (6.3351976 9.503746 12.670395) with tilt (0 0 0)
Neighbor list info ...
  update: every = 1 steps, delay = 0 steps, check = yes
  max neighbors/atom: 2000, page size: 100000
  master list distance cutoff = 5.403
  ghost atom cutoff = 5.403
  1 neighbor lists, perpetual/occasional/extra = 1 0 0
  (1) pair eam/alloy, perpetual
      attributes: half, newton on
      pair build: half/nsq/newton
      stencil: none
      bin: none
Setting up cg style minimization ...
  Unit style    : metal
  Current step  : 19
Per MPI rank memory allocation (min/avg/max) = 4.428 | 4.428 | 4.428 Mbytes
   Step          Temp          PotEng         Press           Pxx            Pyy            Pzz            Pxy            Pxz            Pyz             Lx             Ly             Lz           Volume    
        19   0             -427.20009     -312.20287     -204.34954     -527.91183     -204.34726      6.2951614e-05  2.5012742e-05 -2.2551075e-05  6.3303952      9.4965424      12.66079       761.12705    
        20   0             -427.20009     -312.20085     -204.34199     -527.91904     -204.34152      1.1753907e-06 -1.1148839e-05  3.1363886e-06  6.3303952      9.4965424      12.66079       761.12705    
        21   0             -427.20009     -312.20162     -204.34246     -527.91996     -204.34243     -7.5138725e-07  4.688963e-07   4.8688933e-07  6.3303952      9.4965424      12.66079       761.12705    
        22   0             -427.20009     -312.20169     -204.34251     -527.92008     -204.3425      -4.2607239e-07  1.2688787e-07  7.2193986e-08  6.3303952      9.4965424      12.66079       761.12705    
        23   0             -427.20009     -312.2017      -204.34251     -527.92009     -204.34251     -2.5273258e-07  2.2443503e-08 -1.765389e-09   6.3303952      9.4965424      12.66079       761.12705    
        24   0             -427.20009     -312.2017      -204.34251     -527.92009     -204.34251     -8.4151624e-08 -9.2127542e-09  1.4368032e-09  6.3303952      9.4965424      12.66079       761.12705    
        25   0             -427.20009     -312.2017      -204.34251     -527.92009     -204.34251     -2.5426284e-08 -5.9030888e-10  5.7897467e-09  6.3303952      9.4965424      12.66079       761.12705    
        26   0             -427.20009     -312.2017      -204.34251     -527.92009     -204.34251     -9.7300114e-09 -3.2057073e-10  1.3381807e-09  6.3303952      9.4965424      12.66079       761.12705    
        27   0             -427.20009     -312.2017      -204.34251     -527.92009     -204.34251     -1.2121639e-09  2.9687252e-10 -1.1685127e-10  6.3303952      9.4965424      12.66079       761.12705    
        28   0             -427.20009     -312.2017      -204.34251     -527.92009     -204.34251     -6.9729626e-11 -6.4479306e-11  3.6457596e-11  6.3303952      9.4965424      12.66079       761.12705    
        29   0             -427.20009     -312.2017      -204.34251     -527.92009     -204.34251      3.0562541e-11 -2.0802493e-11  7.0110762e-11  6.3303952      9.4965424      12.66079       761.12705    
        30   0             -427.20009     -312.2017      -204.34251     -527.92009     -204.34251     -4.660129e-12  -1.688227e-11   3.9262027e-11  6.3303952      9.4965424      12.66079       761.12705    
        31   0             -427.20009     -312.2017      -204.34251     -527.92009     -204.34251      2.6155513e-11  2.4781142e-11 -3.8327216e-11  6.3303952      9.4965424      12.66079       761.12705    
        32   0             -427.20009     -312.2017      -204.34251     -527.92009     -204.34251      4.2134925e-12 -3.4392159e-11 -1.7293988e-11  6.3303952      9.4965424      12.66079       761.12705    
        33   0             -427.20009     -312.2017      -204.34251     -527.92009     -204.34251      3.8360081e-12 -1.4293512e-11  3.7392406e-12  6.3303952      9.4965424      12.66079       761.12705    
        34   0             -427.20009     -312.2017      -204.34251     -527.92009     -204.34251      4.1794869e-12  3.4462908e-11 -3.5990191e-11  6.3303952      9.4965424      12.66079       761.12705    
        35   0             -427.20009     -312.2017      -204.34251     -527.92009     -204.34251     -6.8850959e-11 -3.2154183e-11  6.6838926e-11  6.3303952      9.4965424      12.66079       761.12705    
        36   0             -427.20009     -312.2017      -204.34251     -527.92009     -204.34251      1.574936e-11  -2.7207403e-11  6.076266e-12   6.3303952      9.4965424      12.66079       761.12705    
        37   0             -427.20009     -312.2017      -204.34251     -527.92009     -204.34251      1.8854363e-11 -8.2275161e-12 -1.7293988e-11  6.3303952      9.4965424      12.66079       761.12705    
        38   0             -427.20009     -312.2017      -204.34251     -527.92009     -204.34251     -1.5159855e-11 -1.7584747e-12  3.0848735e-11  6.3303952      9.4965424      12.66079       761.12705    
        39   0             -427.20009     -312.2017      -204.34251     -527.92009     -204.34251     -3.6242152e-13 -5.4409785e-11 -1.2619937e-11  6.3303952      9.4965424      12.66079       761.12705    
        40   0             -427.20009     -312.2017      -204.34251     -527.92009     -204.34251     -4.9785031e-12 -6.6164749e-12  3.2718355e-12  6.3303952      9.4965424      12.66079       761.12705    
Loop time of 0.001145 on 1 procs for 21 steps with 48 atoms

0.0% CPU use with 1 MPI tasks x 1 OpenMP threads

Minimization stats:
  Stopping criterion = force tolerance
  Energy initial, next-to-last, final = 
     -427.200087611039  -427.200087649756  -427.200087649755
  Force two-norm initial, final = 0.0013081687 5.329795e-11
  Force max component initial, final = 0.00030728287 1.6751711e-11
  Final line search alpha, max atom move = 1 1.6751711e-11
  Iterations, force evaluations = 21 42

MPI task timing breakdown:
Section |  min time  |  avg time  |  max time  |%varavg| %total
---------------------------------------------------------------
Pair    | 0.000859   | 0.000859   | 0.000859   |   0.0 | 75.02
Neigh   | 0          | 0          | 0          |   0.0 |  0.00
Comm    | 5.6e-05    | 5.6e-05    | 5.6e-05    |   0.0 |  4.89
Output  | 0.000173   | 0.000173   | 0.000173   |   0.0 | 15.11
Modify  | 0          | 0          | 0          |   0.0 |  0.00
Other   |            | 5.7e-05    |            |       |  4.98

Nlocal:             48 ave          48 max          48 min
Histogram: 1 0 0 0 0 0 0 0 0 0
Nghost:            498 ave         498 max         498 min
Histogram: 1 0 0 0 0 0 0 0 0 0
Neighs:           1200 ave        1200 max        1200 min
Histogram: 1 0 0 0 0 0 0 0 0 0

Total # of neighbors = 1200
Ave neighs/atom = 25
Neighbor list builds = 0
Dangerous builds = 0
OMP_NUM_THREADS environment is not set. Defaulting to 1 thread. (src/comm.cpp:98)
  using 1 OpenMP thread(s) per MPI task
Loaded 1 plugins from F:\Lammps\LAMMPS 64-bit 2Aug2023\plugins

The 'box' command has been removed and will be ignored

Reading restart file ...
  restart file = 2 Aug 2023, LAMMPS = 2 Aug 2023
  restoring atom style atomic from restart
  triclinic box = (0.0048023897 0.0072035845 0.0096047793) to (6.3351976 9.5027964 12.670395) with tilt (0 0 0)
  1 by 1 by 1 MPI processor grid
  pair style eam/alloy stores no restart info
  48 atoms
  read_restart CPU = 0.000 seconds
Changing box ...
  triclinic box = (0.0048023897 0.0072035845 0.0096047793) to (6.3351976 9.5027964 12.669129) with tilt (0 0 0)
Neighbor list info ...
  update: every = 1 steps, delay = 0 steps, check = yes
  max neighbors/atom: 2000, page size: 100000
  master list distance cutoff = 5.403
  ghost atom cutoff = 5.403
  1 neighbor lists, perpetual/occasional/extra = 1 0 0
  (1) pair eam/alloy, perpetual
      attributes: half, newton on
      pair build: half/nsq/newton
      stencil: none
      bin: none
Setting up cg style minimization ...
  Unit style    : metal
  Current step  : 19
Per MPI rank memory allocation (min/avg/max) = 4.428 | 4.428 | 4.428 Mbytes
   Step          Temp          PotEng         Press           Pxx            Pyy            Pzz            Pxy            Pxz            Pyz             Lx             Ly             Lz           Volume    
        19   0             -427.20009      313.42517      204.48838      204.48809      531.29906      6.8827136e-05  2.7259365e-05 -2.4967904e-05  6.3303952      9.4955928      12.659524      760.97484    
        20   0             -427.20009      313.43159      204.49592      204.49617      531.30268      1.7303139e-06 -1.2891407e-05  3.5357599e-06  6.3303952      9.4955928      12.659524      760.97484    
        21   0             -427.20009      313.43142      204.49543      204.4955       531.30332     -7.3790812e-07  6.0951102e-07  5.3989212e-07  6.3303952      9.4955928      12.659524      760.97484    
        22   0             -427.20009      313.43138      204.49538      204.49539      531.30336     -4.5586426e-07  1.6162792e-07  7.6392071e-08  6.3303952      9.4955928      12.659524      760.97484    
        23   0             -427.20009      313.43137      204.49538      204.49538      531.30337     -2.8025366e-07  3.437e-08     -2.772734e-09   6.3303952      9.4955928      12.659524      760.97484    
        24   0             -427.20009      313.43137      204.49538      204.49538      531.30337     -9.2963497e-08 -1.2121333e-08  2.7040117e-09  6.3303952      9.4955928      12.659524      760.97484    
        25   0             -427.20009      313.43137      204.49537      204.49537      531.30337     -2.7240773e-08 -2.0460609e-09  6.2696233e-09  6.3303952      9.4955928      12.659524      760.97484    
        26   0             -427.20009      313.43137      204.49537      204.49537      531.30337     -9.8036924e-09 -1.8092058e-11  1.2781411e-09  6.3303952      9.4955928      12.659524      760.97484    
        27   0             -427.20009      313.43137      204.49537      204.49537      531.30337     -1.1826168e-09  4.5107129e-10 -6.4982301e-11  6.3303952      9.4955928      12.659524      760.97484    
        28   0             -427.20009      313.43137      204.49537      204.49537      531.30337     -1.292718e-10   9.7397894e-11  1.5988451e-10  6.3303952      9.4955928      12.659524      760.97484    
        29   0             -427.20009      313.43137      204.49537      204.49537      531.30337      1.2288273e-11  3.5725519e-11  1.4024957e-12  6.3303952      9.4955928      12.659524      760.97484    
        30   0             -427.20009      313.43137      204.49537      204.49537      531.30337      8.385299e-12  -2.7245716e-11  3.926988e-11   6.3303952      9.4955928      12.659524      760.97484    
        31   0             -427.20009      313.43137      204.49537      204.49537      531.30337      5.9537586e-12  5.253013e-11   7.526727e-11   6.3303952      9.4955928      12.659524      760.97484    
        32   0             -427.20009      313.43137      204.49537      204.49537      531.30337      3.7212475e-11  7.9913037e-12 -1.9167441e-11  6.3303952      9.4955928      12.659524      760.97484    
        33   0             -427.20009      313.43137      204.49537      204.49537      531.30337     -1.9977803e-11 -9.0424906e-12  5.1424843e-12  6.3303952      9.4955928      12.659524      760.97484    
        34   0             -427.20009      313.43137      204.49537      204.49537      531.30337     -8.8909188e-12  5.2320577e-11  7.6202267e-11  6.3303952      9.4955928      12.659524      760.97484    
        35   0             -427.20009      313.43137      204.49537      204.49537      531.30337      2.3648169e-11 -9.9350294e-12 -1.636245e-11   6.3303952      9.4955928      12.659524      760.97484    
        36   0             -427.20009      313.43137      204.49537      204.49537      531.30337     -5.4556718e-14  1.1415137e-11 -1.963494e-11   6.3303952      9.4955928      12.659524      760.97484    
        37   0             -427.20009      313.43137      204.49537      204.49537      531.30337      5.6255509e-11 -8.129864e-12  -8.8824728e-12  6.3303952      9.4955928      12.659524      760.97484    
        38   0             -427.20009      313.43137      204.49537      204.49537      531.30337     -9.8804727e-12  6.9891949e-12  3.4594894e-11  6.3303952      9.4955928      12.659524      760.97484    
        39   0             -427.20009      313.43137      204.49537      204.49537      531.30337     -3.5308469e-11 -1.4145484e-11  7.7604762e-11  6.3303952      9.4955928      12.659524      760.97484    
        40   0             -427.20009      313.43137      204.49537      204.49537      531.30337     -4.6942517e-11 -3.9115112e-11  8.0877252e-11  6.3303952      9.4955928      12.659524      760.97484    
Loop time of 0.001073 on 1 procs for 21 steps with 48 atoms

0.0% CPU use with 1 MPI tasks x 1 OpenMP threads

Minimization stats:
  Stopping criterion = force tolerance
  Energy initial, next-to-last, final = 
     -427.200087573998  -427.200087612873  -427.200087612873
  Force two-norm initial, final = 0.0013151558 7.5553028e-11
  Force max component initial, final = 0.00030753811 1.9609092e-11
  Final line search alpha, max atom move = 1 1.9609092e-11
  Iterations, force evaluations = 21 42

MPI task timing breakdown:
Section |  min time  |  avg time  |  max time  |%varavg| %total
---------------------------------------------------------------
Pair    | 0.000805   | 0.000805   | 0.000805   |   0.0 | 75.02
Neigh   | 0          | 0          | 0          |   0.0 |  0.00
Comm    | 6.5e-05    | 6.5e-05    | 6.5e-05    |   0.0 |  6.06
Output  | 0.000157   | 0.000157   | 0.000157   |   0.0 | 14.63
Modify  | 0          | 0          | 0          |   0.0 |  0.00
Other   |            | 4.6e-05    |            |       |  4.29

Nlocal:             48 ave          48 max          48 min
Histogram: 1 0 0 0 0 0 0 0 0 0
Nghost:            498 ave         498 max         498 min
Histogram: 1 0 0 0 0 0 0 0 0 0
Neighs:           1200 ave        1200 max        1200 min
Histogram: 1 0 0 0 0 0 0 0 0 0

Total # of neighbors = 1200
Ave neighs/atom = 25
Neighbor list builds = 0
Dangerous builds = 0
OMP_NUM_THREADS environment is not set. Defaulting to 1 thread. (src/comm.cpp:98)
  using 1 OpenMP thread(s) per MPI task
Loaded 1 plugins from F:\Lammps\LAMMPS 64-bit 2Aug2023\plugins

The 'box' command has been removed and will be ignored

Reading restart file ...
  restart file = 2 Aug 2023, LAMMPS = 2 Aug 2023
  restoring atom style atomic from restart
  triclinic box = (0.0048023897 0.0072035845 0.0096047793) to (6.3351976 9.5027964 12.670395) with tilt (0 0 0)
  1 by 1 by 1 MPI processor grid
  pair style eam/alloy stores no restart info
  48 atoms
  read_restart CPU = 0.000 seconds
Changing box ...
  triclinic box = (0.0048023897 0.0072035845 0.0096047793) to (6.3351976 9.5027964 12.671661) with tilt (0 0 0)
Neighbor list info ...
  update: every = 1 steps, delay = 0 steps, check = yes
  max neighbors/atom: 2000, page size: 100000
  master list distance cutoff = 5.403
  ghost atom cutoff = 5.403
  1 neighbor lists, perpetual/occasional/extra = 1 0 0
  (1) pair eam/alloy, perpetual
      attributes: half, newton on
      pair build: half/nsq/newton
      stencil: none
      bin: none
Setting up cg style minimization ...
  Unit style    : metal
  Current step  : 19
Per MPI rank memory allocation (min/avg/max) = 4.428 | 4.428 | 4.428 Mbytes
   Step          Temp          PotEng         Press           Pxx            Pyy            Pzz            Pxy            Pxz            Pyz             Lx             Ly             Lz           Volume    
        19   0             -427.20009     -312.20396     -204.34954     -204.34982     -527.91253      6.2708219e-05  2.5103544e-05 -2.2507959e-05  6.3303952      9.4955928      12.662057      761.12705    
        20   0             -427.20009     -312.20085     -204.34197     -204.34172     -527.91886      1.6806614e-06 -1.1942477e-05  3.3496337e-06  6.3303952      9.4955928      12.662057      761.12705    
        21   0             -427.20009     -312.20161     -204.34246     -204.34239     -527.91999     -6.507457e-07   5.5626963e-07  4.937728e-07   6.3303952      9.4955928      12.662057      761.12705    
        22   0             -427.20009     -312.20169     -204.3425      -204.3425      -527.92007     -4.1417878e-07  1.5135615e-07  7.0484218e-08  6.3303952      9.4955928      12.662057      761.12705    
        23   0             -427.20009     -312.2017      -204.34251     -204.34251     -527.92008     -2.5530194e-07  3.3224998e-08 -2.1748358e-09  6.3303952      9.4955928      12.662057      761.12705    
        24   0             -427.20009     -312.2017      -204.34251     -204.34251     -527.92009     -8.4925698e-08 -1.0932443e-08  2.4749099e-09  6.3303952      9.4955928      12.662057      761.12705    
        25   0             -427.20009     -312.2017      -204.34251     -204.34251     -527.92009     -2.4639225e-08 -2.1950504e-09  5.7953556e-09  6.3303952      9.4955928      12.662057      761.12705    
        26   0             -427.20009     -312.2017      -204.34251     -204.34251     -527.92009     -8.7876724e-09  8.8329974e-12  1.2928424e-09  6.3303952      9.4955928      12.662057      761.12705    
        27   0             -427.20009     -312.2017      -204.34251     -204.34251     -527.92009     -1.1340936e-09  2.9924058e-10 -1.1357943e-10  6.3303952      9.4955928      12.662057      761.12705    
        28   0             -427.20009     -312.2017      -204.34251     -204.34251     -527.92009     -1.6205559e-10  4.1835721e-11  1.5424368e-10  6.3303952      9.4955928      12.662057      761.12705    
        29   0             -427.20009     -312.2017      -204.34251     -204.34251     -527.92009      2.9409319e-11  1.3744402e-11  1.3087342e-11  6.3303952      9.4955928      12.662057      761.12705    
        30   0             -427.20009     -312.2017      -204.34251     -204.34251     -527.92009      2.2546361e-11 -3.2166051e-12 -1.5424368e-11  6.3303952      9.4955928      12.662057      761.12705    
        31   0             -427.20009     -312.2017      -204.34251     -204.34251     -527.92009     -5.1640501e-12 -9.9284781e-12 -3.4120571e-11  6.3303952      9.4955928      12.662057      761.12705    
        32   0             -427.20009     -312.2017      -204.34251     -204.34251     -527.92009      6.5512025e-12 -3.7383277e-12 -5.1414559e-11  6.3303952      9.4955928      12.662057      761.12705    
        33   0             -427.20009     -312.2017      -204.34251     -204.34251     -527.92009      1.5563128e-11  2.8738794e-11  1.0750317e-11  6.3303952      9.4955928      12.662057      761.12705    
        34   0             -427.20009     -312.2017      -204.34251     -204.34251     -527.92009      4.6898668e-11 -6.9804255e-11 -4.6740508e-12  6.3303952      9.4955928      12.662057      761.12705    
        35   0             -427.20009     -312.2017      -204.34251     -204.34251     -527.92009     -4.9228162e-13 -1.5389449e-11  5.889304e-11   6.3303952      9.4955928      12.662057      761.12705    
        36   0             -427.20009     -312.2017      -204.34251     -204.34251     -527.92009     -4.2365432e-12  1.7888286e-12 -2.6174684e-11  6.3303952      9.4955928      12.662057      761.12705    
        37   0             -427.20009     -312.2017      -204.34251     -204.34251     -527.92009      4.3435123e-11  3.5465958e-11 -6.7773736e-11  6.3303952      9.4955928      12.662057      761.12705    
        38   0             -427.20009     -312.2017      -204.34251     -204.34251     -527.92009      2.969209e-12   1.6567319e-11 -1.1685127e-11  6.3303952      9.4955928      12.662057      761.12705    
        39   0             -427.20009     -312.2017      -204.34251     -204.34251     -527.92009     -4.0953631e-11  1.9984306e-11  7.4784812e-12  6.3303952      9.4955928      12.662057      761.12705    
        40   0             -427.20009     -312.2017      -204.34251     -204.34251     -527.92009      5.7658798e-12 -2.7115428e-12 -7.5252218e-11  6.3303952      9.4955928      12.662057      761.12705    
Loop time of 0.001079 on 1 procs for 21 steps with 48 atoms

0.0% CPU use with 1 MPI tasks x 1 OpenMP threads

Minimization stats:
  Stopping criterion = force tolerance
  Energy initial, next-to-last, final = 
     -427.200087611008  -427.200087649756  -427.200087649756
  Force two-norm initial, final = 0.0013112555 6.2798795e-11
  Force max component initial, final = 0.00030727613 1.6386337e-11
  Final line search alpha, max atom move = 1 1.6386337e-11
  Iterations, force evaluations = 21 42

MPI task timing breakdown:
Section |  min time  |  avg time  |  max time  |%varavg| %total
---------------------------------------------------------------
Pair    | 0.000805   | 0.000805   | 0.000805   |   0.0 | 74.61
Neigh   | 0          | 0          | 0          |   0.0 |  0.00
Comm    | 6.4e-05    | 6.4e-05    | 6.4e-05    |   0.0 |  5.93
Output  | 0.00016    | 0.00016    | 0.00016    |   0.0 | 14.83
Modify  | 0          | 0          | 0          |   0.0 |  0.00
Other   |            | 5e-05      |            |       |  4.63

Nlocal:             48 ave          48 max          48 min
Histogram: 1 0 0 0 0 0 0 0 0 0
Nghost:            498 ave         498 max         498 min
Histogram: 1 0 0 0 0 0 0 0 0 0
Neighs:           1200 ave        1200 max        1200 min
Histogram: 1 0 0 0 0 0 0 0 0 0

Total # of neighbors = 1200
Ave neighs/atom = 25
Neighbor list builds = 0
Dangerous builds = 0
OMP_NUM_THREADS environment is not set. Defaulting to 1 thread. (src/comm.cpp:98)
  using 1 OpenMP thread(s) per MPI task
Loaded 1 plugins from F:\Lammps\LAMMPS 64-bit 2Aug2023\plugins

The 'box' command has been removed and will be ignored

Reading restart file ...
  restart file = 2 Aug 2023, LAMMPS = 2 Aug 2023
  restoring atom style atomic from restart
  triclinic box = (0.0048023897 0.0072035845 0.0096047793) to (6.3351976 9.5027964 12.670395) with tilt (0 0 0)
  1 by 1 by 1 MPI processor grid
  pair style eam/alloy stores no restart info
  48 atoms
  read_restart CPU = 0.000 seconds
Changing box ...
  triclinic box = (0.0048023897 0.0072035845 0.0096047793) to (6.3351976 9.5027964 12.670395) with tilt (0 0 -0.001266079)
Neighbor list info ...
  update: every = 1 steps, delay = 0 steps, check = yes
  max neighbors/atom: 2000, page size: 100000
  master list distance cutoff = 5.403
  ghost atom cutoff = 5.403
  1 neighbor lists, perpetual/occasional/extra = 1 0 0
  (1) pair eam/alloy, perpetual
      attributes: half, newton on
      pair build: half/nsq/newton
      stencil: none
      bin: none
Setting up cg style minimization ...
  Unit style    : metal
  Current step  : 19
Per MPI rank memory allocation (min/avg/max) = 4.428 | 4.428 | 4.428 Mbytes
   Step          Temp          PotEng         Press           Pxx            Pyy            Pzz            Pxy            Pxz            Pyz             Lx             Ly             Lz           Volume    
        19   0             -427.2001       0.032103375    0.047771956    0.01536386     0.033174308    6.6858873e-05  2.9162504e-05  160.61573      6.3303952      9.4955928      12.66079       761.05094    
        20   0             -427.2001       0.039216922    0.055330338    0.023455095    0.038865333    8.6907306e-07 -1.2128717e-05  160.61574      6.3303952      9.4955928      12.66079       761.05094    
        21   0             -427.2001       0.038522576    0.054835855    0.022782356    0.037949517   -7.007399e-07   4.6854901e-07  160.61574      6.3303952      9.4955928      12.66079       761.05094    
        22   0             -427.2001       0.038446393    0.054791576    0.022671766    0.037875837   -4.3330595e-07  1.1866418e-07  160.61574      6.3303952      9.4955928      12.66079       761.05094    
        23   0             -427.2001       0.038439056    0.05478903     0.022663258    0.03786488    -2.7155531e-07  1.7645121e-08  160.61574      6.3303952      9.4955928      12.66079       761.05094    
        24   0             -427.2001       0.038437012    0.05478515     0.022662244    0.03786364    -9.1663018e-08 -1.5362223e-08  160.61574      6.3303952      9.4955928      12.66079       761.05094    
        25   0             -427.2001       0.038435935    0.054784223    0.022661268    0.037862314   -2.6879308e-08 -2.503994e-09   160.61574      6.3303952      9.4955928      12.66079       761.05094    
        26   0             -427.2001       0.038435642    0.054783979    0.022660915    0.037862033   -1.0004664e-08 -5.5807539e-10  160.61574      6.3303952      9.4955928      12.66079       761.05094    
        27   0             -427.2001       0.038435539    0.054783909    0.022660815    0.037861892   -1.4220937e-09  4.1465487e-10  160.61574      6.3303952      9.4955928      12.66079       761.05094    
        28   0             -427.2001       0.038435497    0.054783889    0.022660753    0.037861848   -5.8593533e-11 -2.666347e-11   160.61574      6.3303952      9.4955928      12.66079       761.05094    
        29   0             -427.2001       0.038435484    0.054783879    0.022660733    0.037861839    2.1648178e-11  3.8627543e-11  160.61574      6.3303952      9.4955928      12.66079       761.05094    
        30   0             -427.2001       0.03843548     0.054783877    0.02266073     0.037861834    6.9990182e-11 -4.5113209e-12  160.61574      6.3303952      9.4955928      12.66079       761.05094    
        31   0             -427.2001       0.03843548     0.054783877    0.022660729    0.037861833   -9.6201949e-12 -5.5470873e-11  160.61574      6.3303952      9.4955928      12.66079       761.05094    
        32   0             -427.2001       0.03843548     0.054783877    0.022660729    0.037861833   -4.1513739e-12  1.7198027e-11  160.61574      6.3303952      9.4955928      12.66079       761.05094    
        33   0             -427.2001       0.03843548     0.054783877    0.022660729    0.037861833   -1.1587236e-11 -3.3161005e-11  160.61574      6.3303952      9.4955928      12.66079       761.05094    
        34   0             -427.2001       0.03843548     0.054783877    0.022660729    0.037861833   -1.4867159e-11  2.4969642e-11  160.61574      6.3303952      9.4955928      12.66079       761.05094    
        35   0             -427.2001       0.03843548     0.054783877    0.022660729    0.037861833   -5.0179629e-11  2.51301e-11    160.61574      6.3303952      9.4955928      12.66079       761.05094    
        36   0             -427.2001       0.03843548     0.054783877    0.022660729    0.037861833   -3.2980689e-11  6.7321735e-11  160.61574      6.3303952      9.4955928      12.66079       761.05094    
        37   0             -427.2001       0.03843548     0.054783877    0.022660729    0.037861833    5.3825434e-12 -5.4169403e-11  160.61574      6.3303952      9.4955928      12.66079       761.05094    
        38   0             -427.2001       0.03843548     0.054783877    0.022660729    0.037861833    3.6209941e-11  1.5470647e-11  160.61574      6.3303952      9.4955928      12.66079       761.05094    
        39   0             -427.2001       0.03843548     0.054783877    0.022660729    0.037861833   -5.3444031e-11 -4.1874142e-11  160.61574      6.3303952      9.4955928      12.66079       761.05094    
        40   0             -427.2001       0.03843548     0.054783877    0.022660729    0.037861833    1.3748059e-11 -4.2463478e-11  160.61574      6.3303952      9.4955928      12.66079       761.05094    
        41   0             -427.2001       0.03843548     0.054783877    0.022660729    0.037861833   -4.6175475e-11  1.2200766e-11  160.61574      6.3303952      9.4955928      12.66079       761.05094    
Loop time of 0.001103 on 1 procs for 22 steps with 48 atoms

0.0% CPU use with 1 MPI tasks x 1 OpenMP threads

Minimization stats:
  Stopping criterion = force tolerance
  Energy initial, next-to-last, final = 
     -427.200096452604  -427.200096491703  -427.200096491703
  Force two-norm initial, final = 0.0013214026 3.3726149e-11
  Force max component initial, final = 0.00030742157 9.5743968e-12
  Final line search alpha, max atom move = 1 9.5743968e-12
  Iterations, force evaluations = 22 44

MPI task timing breakdown:
Section |  min time  |  avg time  |  max time  |%varavg| %total
---------------------------------------------------------------
Pair    | 0.000821   | 0.000821   | 0.000821   |   0.0 | 74.43
Neigh   | 0          | 0          | 0          |   0.0 |  0.00
Comm    | 6e-05      | 6e-05      | 6e-05      |   0.0 |  5.44
Output  | 0.000165   | 0.000165   | 0.000165   |   0.0 | 14.96
Modify  | 0          | 0          | 0          |   0.0 |  0.00
Other   |            | 5.7e-05    |            |       |  5.17

Nlocal:             48 ave          48 max          48 min
Histogram: 1 0 0 0 0 0 0 0 0 0
Nghost:            498 ave         498 max         498 min
Histogram: 1 0 0 0 0 0 0 0 0 0
Neighs:           1200 ave        1200 max        1200 min
Histogram: 1 0 0 0 0 0 0 0 0 0

Total # of neighbors = 1200
Ave neighs/atom = 25
Neighbor list builds = 0
Dangerous builds = 0
OMP_NUM_THREADS environment is not set. Defaulting to 1 thread. (src/comm.cpp:98)
  using 1 OpenMP thread(s) per MPI task
Loaded 1 plugins from F:\Lammps\LAMMPS 64-bit 2Aug2023\plugins

The 'box' command has been removed and will be ignored

Reading restart file ...
  restart file = 2 Aug 2023, LAMMPS = 2 Aug 2023
  restoring atom style atomic from restart
  triclinic box = (0.0048023897 0.0072035845 0.0096047793) to (6.3351976 9.5027964 12.670395) with tilt (0 0 0)
  1 by 1 by 1 MPI processor grid
  pair style eam/alloy stores no restart info
  48 atoms
  read_restart CPU = 0.000 seconds
Changing box ...
  triclinic box = (0.0048023897 0.0072035845 0.0096047793) to (6.3351976 9.5027964 12.670395) with tilt (0 0 0.001266079)
Neighbor list info ...
  update: every = 1 steps, delay = 0 steps, check = yes
  max neighbors/atom: 2000, page size: 100000
  master list distance cutoff = 5.403
  ghost atom cutoff = 5.403
  1 neighbor lists, perpetual/occasional/extra = 1 0 0
  (1) pair eam/alloy, perpetual
      attributes: half, newton on
      pair build: half/nsq/newton
      stencil: none
      bin: none
Setting up cg style minimization ...
  Unit style    : metal
  Current step  : 19
Per MPI rank memory allocation (min/avg/max) = 4.428 | 4.428 | 4.428 Mbytes
   Step          Temp          PotEng         Press           Pxx            Pyy            Pzz            Pxy            Pxz            Pyz             Lx             Ly             Lz           Volume    
        19   0             -427.2001       0.032105551    0.047774535    0.01536622     0.033175897    6.4675043e-05  2.3056639e-05 -160.61578      6.3303952      9.4955928      12.66079       761.05094    
        20   0             -427.2001       0.039216899    0.05533207     0.02345412     0.038864506    1.8780652e-06 -1.2258108e-05 -160.61574      6.3303952      9.4955928      12.66079       761.05094    
        21   0             -427.2001       0.038522584    0.054835856    0.022782357    0.037949539   -7.6671868e-07  5.4064482e-07 -160.61574      6.3303952      9.4955928      12.66079       761.05094    
        22   0             -427.2001       0.038446389    0.054791575    0.022671764    0.037875829   -4.480703e-07   1.5831887e-07 -160.61574      6.3303952      9.4955928      12.66079       761.05094    
        23   0             -427.2001       0.038439058    0.054789025    0.022663261    0.037864889   -2.7400824e-07  4.1843948e-08 -160.61574      6.3303952      9.4955928      12.66079       761.05094    
        24   0             -427.2001       0.03843701     0.054785148    0.02266224     0.037863641   -9.0247938e-08 -7.602627e-09  -160.61574      6.3303952      9.4955928      12.66079       761.05094    
        25   0             -427.2001       0.038435934    0.054784222    0.022661266    0.037862313   -2.6733108e-08 -1.9596e-11    -160.61574      6.3303952      9.4955928      12.66079       761.05094    
        26   0             -427.2001       0.038435642    0.054783978    0.022660915    0.037862033   -1.0051049e-08  3.5736372e-10 -160.61574      6.3303952      9.4955928      12.66079       761.05094    
        27   0             -427.2001       0.038435539    0.054783909    0.022660815    0.037861892   -1.4252583e-09  4.8048615e-10 -160.61574      6.3303952      9.4955928      12.66079       761.05094    
        28   0             -427.2001       0.038435496    0.054783889    0.022660753    0.037861848   -1.0119213e-10  4.9568609e-11 -160.61574      6.3303952      9.4955928      12.66079       761.05094    
        29   0             -427.2001       0.038435484    0.054783879    0.022660733    0.037861839    8.9577737e-11  6.0922576e-11 -160.61574      6.3303952      9.4955928      12.66079       761.05094    
        30   0             -427.2001       0.03843548     0.054783877    0.02266073     0.037861834    2.6410571e-12  3.0805486e-11 -160.61574      6.3303952      9.4955928      12.66079       761.05094    
        31   0             -427.2001       0.03843548     0.054783877    0.022660729    0.037861833    4.9144068e-12  1.2581256e-11 -160.61574      6.3303952      9.4955928      12.66079       761.05094    
        32   0             -427.2001       0.03843548     0.054783877    0.022660729    0.037861833   -6.0120512e-13 -3.5334838e-11 -160.61574      6.3303952      9.4955928      12.66079       761.05094    
        33   0             -427.2001       0.03843548     0.054783877    0.022660729    0.037861833    4.9998628e-11  3.7240937e-12 -160.61574      6.3303952      9.4955928      12.66079       761.05094    
        34   0             -427.2001       0.03843548     0.054783877    0.022660729    0.037861833    1.8043914e-11  2.8764949e-11 -160.61574      6.3303952      9.4955928      12.66079       761.05094    
        35   0             -427.2001       0.03843548     0.054783877    0.022660729    0.037861833   -2.6220669e-11 -2.3509311e-11 -160.61574      6.3303952      9.4955928      12.66079       761.05094    
        36   0             -427.2001       0.03843548     0.054783877    0.022660729    0.037861833   -1.3142517e-12 -7.6323835e-12 -160.61574      6.3303952      9.4955928      12.66079       761.05094    
        37   0             -427.2001       0.03843548     0.054783877    0.022660729    0.037861833   -1.2051492e-13  4.7587645e-11 -160.61574      6.3303952      9.4955928      12.66079       761.05094    
        38   0             -427.2001       0.03843548     0.054783877    0.022660729    0.037861833   -2.1433168e-11 -5.8798957e-12 -160.61574      6.3303952      9.4955928      12.66079       761.05094    
        39   0             -427.2001       0.03843548     0.054783877    0.022660729    0.037861833   -3.0925772e-11 -3.2031405e-11 -160.61574      6.3303952      9.4955928      12.66079       761.05094    
        40   0             -427.2001       0.03843548     0.054783877    0.022660729    0.037861833   -1.8081803e-12  5.2576689e-11 -160.61574      6.3303952      9.4955928      12.66079       761.05094    
        41   0             -427.2001       0.03843548     0.054783877    0.022660729    0.037861833   -4.5918924e-12 -8.6734224e-13 -160.61574      6.3303952      9.4955928      12.66079       761.05094    
Loop time of 0.001142 on 1 procs for 22 steps with 48 atoms

0.0% CPU use with 1 MPI tasks x 1 OpenMP threads

Minimization stats:
  Stopping criterion = force tolerance
  Energy initial, next-to-last, final = 
     -427.200096452602  -427.200096491704  -427.200096491704
  Force two-norm initial, final = 0.0013214736 3.3762853e-11
  Force max component initial, final = 0.00030739271 9.8648867e-12
  Final line search alpha, max atom move = 1 9.8648867e-12
  Iterations, force evaluations = 22 44

MPI task timing breakdown:
Section |  min time  |  avg time  |  max time  |%varavg| %total
---------------------------------------------------------------
Pair    | 0.000866   | 0.000866   | 0.000866   |   0.0 | 75.83
Neigh   | 0          | 0          | 0          |   0.0 |  0.00
Comm    | 6.3e-05    | 6.3e-05    | 6.3e-05    |   0.0 |  5.52
Output  | 0.00016    | 0.00016    | 0.00016    |   0.0 | 14.01
Modify  | 0          | 0          | 0          |   0.0 |  0.00
Other   |            | 5.3e-05    |            |       |  4.64

Nlocal:             48 ave          48 max          48 min
Histogram: 1 0 0 0 0 0 0 0 0 0
Nghost:            498 ave         498 max         498 min
Histogram: 1 0 0 0 0 0 0 0 0 0
Neighs:           1200 ave        1200 max        1200 min
Histogram: 1 0 0 0 0 0 0 0 0 0

Total # of neighbors = 1200
Ave neighs/atom = 25
Neighbor list builds = 0
Dangerous builds = 0
OMP_NUM_THREADS environment is not set. Defaulting to 1 thread. (src/comm.cpp:98)
  using 1 OpenMP thread(s) per MPI task
Loaded 1 plugins from F:\Lammps\LAMMPS 64-bit 2Aug2023\plugins

The 'box' command has been removed and will be ignored

Reading restart file ...
  restart file = 2 Aug 2023, LAMMPS = 2 Aug 2023
  restoring atom style atomic from restart
  triclinic box = (0.0048023897 0.0072035845 0.0096047793) to (6.3351976 9.5027964 12.670395) with tilt (0 0 0)
  1 by 1 by 1 MPI processor grid
  pair style eam/alloy stores no restart info
  48 atoms
  read_restart CPU = 0.000 seconds
Changing box ...
  triclinic box = (0.0048023897 0.0072035845 0.0096047793) to (6.3351976 9.5027964 12.670395) with tilt (0 -0.001266079 0)
Neighbor list info ...
  update: every = 1 steps, delay = 0 steps, check = yes
  max neighbors/atom: 2000, page size: 100000
  master list distance cutoff = 5.403
  ghost atom cutoff = 5.403
  1 neighbor lists, perpetual/occasional/extra = 1 0 0
  (1) pair eam/alloy, perpetual
      attributes: half, newton on
      pair build: half/nsq/newton
      stencil: none
      bin: none
Setting up cg style minimization ...
  Unit style    : metal
  Current step  : 19
Per MPI rank memory allocation (min/avg/max) = 4.428 | 4.428 | 4.428 Mbytes
   Step          Temp          PotEng         Press           Pxx            Pyy            Pzz            Pxy            Pxz            Pyz             Lx             Ly             Lz           Volume    
        19   0             -427.2001       0.032105908    0.015651578    0.047489286    0.033176861    6.4479228e-05  160.61578     -2.0417031e-05  6.3303952      9.4955928      12.66079       761.05094    
        20   0             -427.2001       0.039216349    0.023207411    0.055577013    0.038864623    1.4616171e-06  160.61573      3.6004266e-06  6.3303952      9.4955928      12.66079       761.05094    
        21   0             -427.2001       0.038522582    0.022712693    0.054905573    0.037949481   -7.1494641e-07  160.61574      5.2403733e-07  6.3303952      9.4955928      12.66079       761.05094    
        22   0             -427.2001       0.038446395    0.022668434    0.054794926    0.037875826   -4.3809526e-07  160.61574      5.5962397e-08  6.3303952      9.4955928      12.66079       761.05094    
        23   0             -427.2001       0.038439058    0.022665878    0.054786408    0.037864888   -2.7302368e-07  160.61574     -1.5366544e-08  6.3303952      9.4955928      12.66079       761.05094    
        24   0             -427.2001       0.03843701     0.022662       0.054785388    0.037863641   -9.0811362e-08  160.61574     -1.8221272e-09  6.3303952      9.4955928      12.66079       761.05094    
        25   0             -427.2001       0.038435935    0.022661076    0.054784414    0.037862313   -2.6581392e-08  160.61574      4.7422987e-09  6.3303952      9.4955928      12.66079       761.05094    
        26   0             -427.2001       0.038435642    0.022660831    0.054784063    0.037862033   -9.9941244e-09  160.61574      9.0545417e-10  6.3303952      9.4955928      12.66079       761.05094    
        27   0             -427.2001       0.038435539    0.022660761    0.054783963    0.037861892   -1.4208472e-09  160.61574     -1.6033597e-10  6.3303952      9.4955928      12.66079       761.05094    
        28   0             -427.2001       0.038435496    0.022660741    0.054783901    0.037861848   -5.3270334e-11  160.61574      7.3857387e-11  6.3303952      9.4955928      12.66079       761.05094    
        29   0             -427.2001       0.038435484    0.022660731    0.054783881    0.037861839    6.3240205e-11  160.61574      1.2060257e-10  6.3303952      9.4955928      12.66079       761.05094    
        30   0             -427.2001       0.03843548     0.022660729    0.054783878    0.037861834    2.6529717e-11  160.61574      1.8698073e-11  6.3303952      9.4955928      12.66079       761.05094    
        31   0             -427.2001       0.03843548     0.022660729    0.054783877    0.037861833   -3.9643247e-11  160.61574      3.8331049e-11  6.3303952      9.4955928      12.66079       761.05094    
        32   0             -427.2001       0.03843548     0.022660729    0.054783877    0.037861833   -3.03515e-11    160.61574      4.6745182e-12  6.3303952      9.4955928      12.66079       761.05094    
        33   0             -427.2001       0.03843548     0.022660729    0.054783877    0.037861833   -2.8651966e-12  160.61574     -8.8815846e-12  6.3303952      9.4955928      12.66079       761.05094    
        34   0             -427.2001       0.03843548     0.022660729    0.054783877    0.037861833    2.3569569e-11  160.61574      1.9632976e-11  6.3303952      9.4955928      12.66079       761.05094    
        35   0             -427.2001       0.03843548     0.022660729    0.054783877    0.037861833    9.864192e-12   160.61574      4.6745182e-13  6.3303952      9.4955928      12.66079       761.05094    
        36   0             -427.2001       0.03843548     0.022660729    0.054783877    0.037861833    5.6006571e-11  160.61574     -3.6461242e-11  6.3303952      9.4955928      12.66079       761.05094    
        37   0             -427.2001       0.03843548     0.022660729    0.054783877    0.037861833    1.0622888e-11  160.61574      2.9916916e-11  6.3303952      9.4955928      12.66079       761.05094    
        38   0             -427.2001       0.03843548     0.022660729    0.054783877    0.037861833    1.0600063e-11  160.61574      6.7313062e-11  6.3303952      9.4955928      12.66079       761.05094    
        39   0             -427.2001       0.03843548     0.022660729    0.054783877    0.037861833   -5.1114761e-11  160.61574     -7.0117773e-12  6.3303952      9.4955928      12.66079       761.05094    
        40   0             -427.2001       0.03843548     0.022660729    0.054783877    0.037861833    5.1510999e-12  160.61574     -3.0384368e-11  6.3303952      9.4955928      12.66079       761.05094    
        41   0             -427.2001       0.03843548     0.022660729    0.054783877    0.037861833   -1.5703916e-11  160.61574      6.0301285e-11  6.3303952      9.4955928      12.66079       761.05094    
Loop time of 0.001326 on 1 procs for 22 steps with 48 atoms

0.0% CPU use with 1 MPI tasks x 1 OpenMP threads

Minimization stats:
  Stopping criterion = force tolerance
  Energy initial, next-to-last, final = 
     -427.200096452602  -427.200096491703  -427.200096491703
  Force two-norm initial, final = 0.0013214896 3.4250747e-11
  Force max component initial, final = 0.00030741337 9.8021036e-12
  Final line search alpha, max atom move = 1 9.8021036e-12
  Iterations, force evaluations = 22 44

MPI task timing breakdown:
Section |  min time  |  avg time  |  max time  |%varavg| %total
---------------------------------------------------------------
Pair    | 0.000991   | 0.000991   | 0.000991   |   0.0 | 74.74
Neigh   | 0          | 0          | 0          |   0.0 |  0.00
Comm    | 9.2e-05    | 9.2e-05    | 9.2e-05    |   0.0 |  6.94
Output  | 0.000191   | 0.000191   | 0.000191   |   0.0 | 14.40
Modify  | 0          | 0          | 0          |   0.0 |  0.00
Other   |            | 5.2e-05    |            |       |  3.92

Nlocal:             48 ave          48 max          48 min
Histogram: 1 0 0 0 0 0 0 0 0 0
Nghost:            498 ave         498 max         498 min
Histogram: 1 0 0 0 0 0 0 0 0 0
Neighs:           1200 ave        1200 max        1200 min
Histogram: 1 0 0 0 0 0 0 0 0 0

Total # of neighbors = 1200
Ave neighs/atom = 25
Neighbor list builds = 0
Dangerous builds = 0
OMP_NUM_THREADS environment is not set. Defaulting to 1 thread. (src/comm.cpp:98)
  using 1 OpenMP thread(s) per MPI task
Loaded 1 plugins from F:\Lammps\LAMMPS 64-bit 2Aug2023\plugins

The 'box' command has been removed and will be ignored

Reading restart file ...
  restart file = 2 Aug 2023, LAMMPS = 2 Aug 2023
  restoring atom style atomic from restart
  triclinic box = (0.0048023897 0.0072035845 0.0096047793) to (6.3351976 9.5027964 12.670395) with tilt (0 0 0)
  1 by 1 by 1 MPI processor grid
  pair style eam/alloy stores no restart info
  48 atoms
  read_restart CPU = 0.000 seconds
Changing box ...
  triclinic box = (0.0048023897 0.0072035845 0.0096047793) to (6.3351976 9.5027964 12.670395) with tilt (0 0.001266079 0)
Neighbor list info ...
  update: every = 1 steps, delay = 0 steps, check = yes
  max neighbors/atom: 2000, page size: 100000
  master list distance cutoff = 5.403
  ghost atom cutoff = 5.403
  1 neighbor lists, perpetual/occasional/extra = 1 0 0
  (1) pair eam/alloy, perpetual
      attributes: half, newton on
      pair build: half/nsq/newton
      stencil: none
      bin: none
Setting up cg style minimization ...
  Unit style    : metal
  Current step  : 19
Per MPI rank memory allocation (min/avg/max) = 4.428 | 4.428 | 4.428 Mbytes
   Step          Temp          PotEng         Press           Pxx            Pyy            Pzz            Pxy            Pxz            Pyz             Lx             Ly             Lz           Volume    
        19   0             -427.2001       0.032103018    0.015648612    0.047487097    0.033173345    6.7054201e-05 -160.61573     -2.6522916e-05  6.3303952      9.4955928      12.66079       761.05094    
        20   0             -427.2001       0.039217471    0.023208701    0.055578497    0.038865215    1.2855642e-06 -160.61575      3.4759605e-06  6.3303952      9.4955928      12.66079       761.05094    
        21   0             -427.2001       0.038522578    0.022712722    0.054905436    0.037949575   -7.5258122e-07 -160.61574      5.9839676e-07  6.3303952      9.4955928      12.66079       761.05094    
        22   0             -427.2001       0.038446386    0.022668421    0.054794899    0.03787584    -4.4332549e-07 -160.61574      9.6377346e-08  6.3303952      9.4955928      12.66079       761.05094    
        23   0             -427.2001       0.038439056    0.022665881    0.054786407    0.037864881   -2.7250287e-07 -160.61574      8.3262518e-09  6.3303952      9.4955928      12.66079       761.05094    
        24   0             -427.2001       0.038437011    0.022662003    0.054785392    0.03786364    -9.1008883e-08 -160.61574      6.0661222e-09  6.3303952      9.4955928      12.66079       761.05094    
        25   0             -427.2001       0.038435934    0.022661072    0.054784415    0.037862314   -2.7018174e-08 -160.61574      7.1777227e-09  6.3303952      9.4955928      12.66079       761.05094    
        26   0             -427.2001       0.038435642    0.022660831    0.054784062    0.037862032   -1.0123644e-08 -160.61574      1.7665004e-09  6.3303952      9.4955928      12.66079       761.05094    
        27   0             -427.2001       0.038435539    0.022660762    0.054783963    0.037861892   -1.4008312e-09 -160.61574     -3.1786724e-11  6.3303952      9.4955928      12.66079       761.05094    
        28   0             -427.2001       0.038435496    0.022660741    0.0547839      0.037861848   -8.5512413e-11 -160.61574      7.3389936e-11  6.3303952      9.4955928      12.66079       761.05094    
        29   0             -427.2001       0.038435484    0.022660731    0.054783881    0.037861839    1.5644115e-12 -160.61574      4.7680085e-11  6.3303952      9.4955928      12.66079       761.05094    
        30   0             -427.2001       0.03843548     0.022660729    0.054783878    0.037861834    1.527344e-11  -160.61574      2.8982013e-11  6.3303952      9.4955928      12.66079       761.05094    
        31   0             -427.2001       0.03843548     0.022660729    0.054783877    0.037861833    2.2232264e-11 -160.61574      1.4023555e-12  6.3303952      9.4955928      12.66079       761.05094    
        32   0             -427.2001       0.03843548     0.022660729    0.054783877    0.037861833   -6.4231258e-12 -160.61574      6.4040899e-11  6.3303952      9.4955928      12.66079       761.05094    
        33   0             -427.2001       0.03843548     0.022660729    0.054783877    0.037861833    5.6414907e-11 -160.61574      2.2905139e-11  6.3303952      9.4955928      12.66079       761.05094    
        34   0             -427.2001       0.03843548     0.022660729    0.054783877    0.037861833    2.2357801e-11 -160.61574      4.6745182e-13  6.3303952      9.4955928      12.66079       761.05094    
        35   0             -427.2001       0.03843548     0.022660729    0.054783877    0.037861833    4.717269e-11  -160.61574     -4.6745182e-11  6.3303952      9.4955928      12.66079       761.05094    
        36   0             -427.2001       0.03843548     0.022660729    0.054783877    0.037861833    3.7370125e-11 -160.61574     -2.0100428e-11  6.3303952      9.4955928      12.66079       761.05094    
        37   0             -427.2001       0.03843548     0.022660729    0.054783877    0.037861833    6.9282385e-11 -160.61574     -1.8698073e-11  6.3303952      9.4955928      12.66079       761.05094    
        38   0             -427.2001       0.03843548     0.022660729    0.054783877    0.037861833    3.3110334e-11 -160.61574      2.8047109e-11  6.3303952      9.4955928      12.66079       761.05094    
        39   0             -427.2001       0.03843548     0.022660729    0.054783877    0.037861833    3.2552039e-11 -160.61574      7.9466809e-12  6.3303952      9.4955928      12.66079       761.05094    
        40   0             -427.2001       0.03843548     0.022660729    0.054783877    0.037861833    5.190039e-11  -160.61574      9.3490364e-12  6.3303952      9.4955928      12.66079       761.05094    
        41   0             -427.2001       0.03843548     0.022660729    0.054783877    0.037861833    3.1498218e-13 -160.61574      3.1319272e-11  6.3303952      9.4955928      12.66079       761.05094    
Loop time of 0.001495 on 1 procs for 22 steps with 48 atoms

0.0% CPU use with 1 MPI tasks x 1 OpenMP threads

Minimization stats:
  Stopping criterion = force tolerance
  Energy initial, next-to-last, final = 
     -427.200096452604  -427.200096491703  -427.200096491704
  Force two-norm initial, final = 0.0013213866 3.4282966e-11
  Force max component initial, final = 0.00030740088 9.2658103e-12
  Final line search alpha, max atom move = 1 9.2658103e-12
  Iterations, force evaluations = 22 44

MPI task timing breakdown:
Section |  min time  |  avg time  |  max time  |%varavg| %total
---------------------------------------------------------------
Pair    | 0.00114    | 0.00114    | 0.00114    |   0.0 | 76.25
Neigh   | 0          | 0          | 0          |   0.0 |  0.00
Comm    | 8.3e-05    | 8.3e-05    | 8.3e-05    |   0.0 |  5.55
Output  | 0.000218   | 0.000218   | 0.000218   |   0.0 | 14.58
Modify  | 0          | 0          | 0          |   0.0 |  0.00
Other   |            | 5.4e-05    |            |       |  3.61

Nlocal:             48 ave          48 max          48 min
Histogram: 1 0 0 0 0 0 0 0 0 0
Nghost:            498 ave         498 max         498 min
Histogram: 1 0 0 0 0 0 0 0 0 0
Neighs:           1200 ave        1200 max        1200 min
Histogram: 1 0 0 0 0 0 0 0 0 0

Total # of neighbors = 1200
Ave neighs/atom = 25
Neighbor list builds = 0
Dangerous builds = 0
OMP_NUM_THREADS environment is not set. Defaulting to 1 thread. (src/comm.cpp:98)
  using 1 OpenMP thread(s) per MPI task
Loaded 1 plugins from F:\Lammps\LAMMPS 64-bit 2Aug2023\plugins

The 'box' command has been removed and will be ignored

Reading restart file ...
  restart file = 2 Aug 2023, LAMMPS = 2 Aug 2023
  restoring atom style atomic from restart
  triclinic box = (0.0048023897 0.0072035845 0.0096047793) to (6.3351976 9.5027964 12.670395) with tilt (0 0 0)
  1 by 1 by 1 MPI processor grid
  pair style eam/alloy stores no restart info
  48 atoms
  read_restart CPU = 0.000 seconds
Changing box ...
  triclinic box = (0.0048023897 0.0072035845 0.0096047793) to (6.3351976 9.5027964 12.670395) with tilt (-0.00094955928 0 0)
Neighbor list info ...
  update: every = 1 steps, delay = 0 steps, check = yes
  max neighbors/atom: 2000, page size: 100000
  master list distance cutoff = 5.403
  ghost atom cutoff = 5.403
  1 neighbor lists, perpetual/occasional/extra = 1 0 0
  (1) pair eam/alloy, perpetual
      attributes: half, newton on
      pair build: half/nsq/newton
      stencil: none
      bin: none
Setting up cg style minimization ...
  Unit style    : metal
  Current step  : 19
Per MPI rank memory allocation (min/avg/max) = 4.428 | 4.428 | 4.428 Mbytes
   Step          Temp          PotEng         Press           Pxx            Pyy            Pzz            Pxy            Pxz            Pyz             Lx             Ly             Lz           Volume    
        19   0             -427.2001       0.032107381    0.015653711    0.030617078    0.050051355    160.61582      2.482223e-05  -2.2375267e-05  6.3303952      9.4955928      12.66079       761.05094    
        20   0             -427.2001       0.039217074    0.023207823    0.038659272    0.055784128    160.61574     -1.2108139e-05  3.0234718e-06  6.3303952      9.4955928      12.66079       761.05094    
        21   0             -427.2001       0.038522564    0.022712787    0.037983356    0.054871548    160.61574      5.2317586e-07  5.9546397e-07  6.3303952      9.4955928      12.66079       761.05094    
        22   0             -427.2001       0.038446372    0.022668422    0.037872849    0.054797846    160.61574      1.4107493e-07  8.3850572e-08  6.3303952      9.4955928      12.66079       761.05094    
        23   0             -427.2001       0.038439044    0.022665857    0.037864359    0.054786916    160.61574      2.9609094e-08 -2.4050396e-09  6.3303952      9.4955928      12.66079       761.05094    
        24   0             -427.2001       0.038437008    0.022662       0.037863342    0.054785683    160.61574     -1.1429204e-08  1.5636263e-09  6.3303952      9.4955928      12.66079       761.05094    
        25   0             -427.2001       0.038435933    0.022661073    0.03786237     0.054784356    160.61574     -1.0609577e-09  5.9249518e-09  6.3303952      9.4955928      12.66079       761.05094    
        26   0             -427.2001       0.038435642    0.022660831    0.037862018    0.054784077    160.61574     -6.0711674e-11  1.3579475e-09  6.3303952      9.4955928      12.66079       761.05094    
        27   0             -427.2001       0.038435539    0.022660761    0.037861919    0.054783936    160.61574      4.099064e-10  -2.6177302e-11  6.3303952      9.4955928      12.66079       761.05094    
        28   0             -427.2001       0.038435497    0.022660741    0.037861856    0.054783892    160.61574      2.0036747e-11  4.2070664e-11  6.3303952      9.4955928      12.66079       761.05094    
        29   0             -427.2001       0.038435484    0.022660731    0.037861836    0.054783883    160.61574      4.9181044e-11  9.3957816e-11  6.3303952      9.4955928      12.66079       761.05094    
        30   0             -427.2001       0.03843548     0.022660729    0.037861833    0.054783878    160.61574      7.7444532e-12  2.6177302e-11  6.3303952      9.4955928      12.66079       761.05094    
        31   0             -427.2001       0.03843548     0.022660729    0.037861833    0.054783878    160.61574     -1.3854651e-13 -1.8230621e-11  6.3303952      9.4955928      12.66079       761.05094    
        32   0             -427.2001       0.03843548     0.022660729    0.037861832    0.054783877    160.61574     -3.1605495e-12 -3.085182e-11   6.3303952      9.4955928      12.66079       761.05094    
        33   0             -427.2001       0.03843548     0.022660729    0.037861832    0.054783877    160.61574      3.2471011e-11 -1.3556103e-11  6.3303952      9.4955928      12.66079       761.05094    
        34   0             -427.2001       0.03843548     0.022660729    0.037861832    0.054783877    160.61574     -4.9825616e-11  3.9733405e-11  6.3303952      9.4955928      12.66079       761.05094    
        35   0             -427.2001       0.03843548     0.022660729    0.037861833    0.054783877    160.61574      2.6180041e-11  1.1218844e-11  6.3303952      9.4955928      12.66079       761.05094    
        36   0             -427.2001       0.03843548     0.022660729    0.037861833    0.054783877    160.61574     -4.3112159e-11 -3.3189079e-11  6.3303952      9.4955928      12.66079       761.05094    
        37   0             -427.2001       0.03843548     0.022660729    0.037861832    0.054783877    160.61574      2.5241942e-12 -6.5910706e-11  6.3303952      9.4955928      12.66079       761.05094    
        38   0             -427.2001       0.03843548     0.022660729    0.037861832    0.054783877    160.61574     -1.562266e-11  -1.5893362e-11  6.3303952      9.4955928      12.66079       761.05094    
        39   0             -427.2001       0.03843548     0.022660729    0.037861833    0.054783877    160.61574     -1.0287135e-12 -3.7863597e-11  6.3303952      9.4955928      12.66079       761.05094    
        40   0             -427.2001       0.03843548     0.022660729    0.037861832    0.054783877    160.61574     -1.5880808e-11 -3.5058886e-11  6.3303952      9.4955928      12.66079       761.05094    
        41   0             -427.2001       0.03843548     0.022660729    0.037861832    0.054783877    160.61574     -3.6847666e-11  5.3289507e-11  6.3303952      9.4955928      12.66079       761.05094    
Loop time of 0.001147 on 1 procs for 22 steps with 48 atoms

1362.2% CPU use with 1 MPI tasks x 1 OpenMP threads

Minimization stats:
  Stopping criterion = force tolerance
  Energy initial, next-to-last, final = 
     -427.200096452599  -427.200096491703  -427.200096491704
  Force two-norm initial, final = 0.0013215522 3.3921928e-11
  Force max component initial, final = 0.00030738911 9.7640229e-12
  Final line search alpha, max atom move = 1 9.7640229e-12
  Iterations, force evaluations = 22 44

MPI task timing breakdown:
Section |  min time  |  avg time  |  max time  |%varavg| %total
---------------------------------------------------------------
Pair    | 0.00085    | 0.00085    | 0.00085    |   0.0 | 74.11
Neigh   | 0          | 0          | 0          |   0.0 |  0.00
Comm    | 6.1e-05    | 6.1e-05    | 6.1e-05    |   0.0 |  5.32
Output  | 0.000171   | 0.000171   | 0.000171   |   0.0 | 14.91
Modify  | 0          | 0          | 0          |   0.0 |  0.00
Other   |            | 6.5e-05    |            |       |  5.67

Nlocal:             48 ave          48 max          48 min
Histogram: 1 0 0 0 0 0 0 0 0 0
Nghost:            498 ave         498 max         498 min
Histogram: 1 0 0 0 0 0 0 0 0 0
Neighs:           1200 ave        1200 max        1200 min
Histogram: 1 0 0 0 0 0 0 0 0 0

Total # of neighbors = 1200
Ave neighs/atom = 25
Neighbor list builds = 0
Dangerous builds = 0
OMP_NUM_THREADS environment is not set. Defaulting to 1 thread. (src/comm.cpp:98)
  using 1 OpenMP thread(s) per MPI task
Loaded 1 plugins from F:\Lammps\LAMMPS 64-bit 2Aug2023\plugins

The 'box' command has been removed and will be ignored

Reading restart file ...
  restart file = 2 Aug 2023, LAMMPS = 2 Aug 2023
  restoring atom style atomic from restart
  triclinic box = (0.0048023897 0.0072035845 0.0096047793) to (6.3351976 9.5027964 12.670395) with tilt (0 0 0)
  1 by 1 by 1 MPI processor grid
  pair style eam/alloy stores no restart info
  48 atoms
  read_restart CPU = 0.000 seconds
Changing box ...
  triclinic box = (0.0048023897 0.0072035845 0.0096047793) to (6.3351976 9.5027964 12.670395) with tilt (0.00094955928 0 0)
Neighbor list info ...
  update: every = 1 steps, delay = 0 steps, check = yes
  max neighbors/atom: 2000, page size: 100000
  master list distance cutoff = 5.403
  ghost atom cutoff = 5.403
  1 neighbor lists, perpetual/occasional/extra = 1 0 0
  (1) pair eam/alloy, perpetual
      attributes: half, newton on
      pair build: half/nsq/newton
      stencil: none
      bin: none
Setting up cg style minimization ...
  Unit style    : metal
  Current step  : 19
Per MPI rank memory allocation (min/avg/max) = 4.428 | 4.428 | 4.428 Mbytes
   Step          Temp          PotEng         Press           Pxx            Pyy            Pzz            Pxy            Pxz            Pyz             Lx             Ly             Lz           Volume    
        19   0             -427.2001       0.032100787    0.015646478    0.030610634    0.05004525    -160.61569      2.7397181e-05 -2.4564322e-05  6.3303952      9.4955928      12.66079       761.05094    
        20   0             -427.2001       0.039216787    0.023208291    0.038658669    0.055783402   -160.61574     -1.2280003e-05  4.0526278e-06  6.3303952      9.4955928      12.66079       761.05094    
        21   0             -427.2001       0.038522598    0.02271263     0.037983567    0.054871597   -160.61574      4.8604079e-07  5.2694581e-07  6.3303952      9.4955928      12.66079       761.05094    
        22   0             -427.2001       0.038446409    0.022668433    0.037872887    0.054797908   -160.61574      1.35968e-07    6.8434479e-08  6.3303952      9.4955928      12.66079       761.05094    
        23   0             -427.2001       0.03843907     0.022665901    0.037864367    0.054786942   -160.61574      2.9839059e-08 -4.6866719e-09  6.3303952      9.4955928      12.66079       761.05094    
        24   0             -427.2001       0.038437013    0.022662003    0.037863349    0.054785687   -160.61574     -1.1660692e-08  2.6527891e-09  6.3303952      9.4955928      12.66079       761.05094    
        25   0             -427.2001       0.038435935    0.022661076    0.037862371    0.054784359   -160.61574     -1.492428e-09   5.9455197e-09  6.3303952      9.4955928      12.66079       761.05094    
        26   0             -427.2001       0.038435642    0.022660831    0.037862018    0.054784077   -160.61574     -1.6034784e-10  1.3528056e-09  6.3303952      9.4955928      12.66079       761.05094    
        27   0             -427.2001       0.038435539    0.022660761    0.037861918    0.054783936   -160.61574      4.5741804e-10 -5.8431477e-11  6.3303952      9.4955928      12.66079       761.05094    
        28   0             -427.2001       0.038435496    0.022660741    0.037861856    0.054783892   -160.61574     -1.6967497e-11  1.5145439e-10  6.3303952      9.4955928      12.66079       761.05094    
        29   0             -427.2001       0.038435483    0.022660731    0.037861836    0.054783883   -160.61574     -3.6877566e-11  7.0117773e-11  6.3303952      9.4955928      12.66079       761.05094    
        30   0             -427.2001       0.03843548     0.022660729    0.037861833    0.054783878   -160.61574     -1.9028119e-11  4.4875375e-11  6.3303952      9.4955928      12.66079       761.05094    
        31   0             -427.2001       0.03843548     0.022660729    0.037861833    0.054783878   -160.61574     -3.1818222e-11 -2.1970235e-11  6.3303952      9.4955928      12.66079       761.05094    
        32   0             -427.2001       0.03843548     0.022660729    0.037861833    0.054783877   -160.61574      3.0909795e-11  1.9632976e-11  6.3303952      9.4955928      12.66079       761.05094    
        33   0             -427.2001       0.03843548     0.022660729    0.037861832    0.054783877   -160.61574      8.495389e-13   2.4774946e-11  6.3303952      9.4955928      12.66079       761.05094    
        34   0             -427.2001       0.03843548     0.022660729    0.037861833    0.054783877   -160.61574      3.2502509e-11 -8.4608779e-11  6.3303952      9.4955928      12.66079       761.05094    
        35   0             -427.2001       0.03843548     0.022660729    0.037861833    0.054783877   -160.61574     -1.3007851e-11  2.570985e-11   6.3303952      9.4955928      12.66079       761.05094    
        36   0             -427.2001       0.03843548     0.022660729    0.037861832    0.054783877   -160.61574     -4.8830912e-11 -3.599379e-11   6.3303952      9.4955928      12.66079       761.05094    
        37   0             -427.2001       0.03843548     0.022660729    0.037861832    0.054783877   -160.61574      6.6753398e-12  4.2070664e-12  6.3303952      9.4955928      12.66079       761.05094    
        38   0             -427.2001       0.03843548     0.022660729    0.037861832    0.054783877   -160.61574      1.804711e-11   8.4141327e-12  6.3303952      9.4955928      12.66079       761.05094    
        39   0             -427.2001       0.03843548     0.022660729    0.037861832    0.054783877   -160.61574      6.916324e-11   5.4224411e-11  6.3303952      9.4955928      12.66079       761.05094    
        40   0             -427.2001       0.03843548     0.022660729    0.037861833    0.054783877   -160.61574     -8.272619e-12  -1.6828265e-11  6.3303952      9.4955928      12.66079       761.05094    
        41   0             -427.2001       0.03843548     0.022660729    0.037861833    0.054783877   -160.61574     -2.2855838e-11  1.7295717e-11  6.3303952      9.4955928      12.66079       761.05094    
Loop time of 0.001751 on 1 procs for 22 steps with 48 atoms

0.0% CPU use with 1 MPI tasks x 1 OpenMP threads

Minimization stats:
  Stopping criterion = force tolerance
  Energy initial, next-to-last, final = 
     -427.200096452606  -427.200096491703  -427.200096491703
  Force two-norm initial, final = 0.0013213244 3.3786248e-11
  Force max component initial, final = 0.00030742514 9.7448716e-12
  Final line search alpha, max atom move = 1 9.7448716e-12
  Iterations, force evaluations = 22 44

MPI task timing breakdown:
Section |  min time  |  avg time  |  max time  |%varavg| %total
---------------------------------------------------------------
Pair    | 0.001318   | 0.001318   | 0.001318   |   0.0 | 75.27
Neigh   | 0          | 0          | 0          |   0.0 |  0.00
Comm    | 7.1e-05    | 7.1e-05    | 7.1e-05    |   0.0 |  4.05
Output  | 0.00025    | 0.00025    | 0.00025    |   0.0 | 14.28
Modify  | 0          | 0          | 0          |   0.0 |  0.00
Other   |            | 0.000112   |            |       |  6.40

Nlocal:             48 ave          48 max          48 min
Histogram: 1 0 0 0 0 0 0 0 0 0
Nghost:            498 ave         498 max         498 min
Histogram: 1 0 0 0 0 0 0 0 0 0
Neighs:           1200 ave        1200 max        1200 min
Histogram: 1 0 0 0 0 0 0 0 0 0

Total # of neighbors = 1200
Ave neighs/atom = 25
Neighbor list builds = 0
Dangerous builds = 0
=========================================
Components of the Elastic Constant Tensor
=========================================
Elastic Constant C11all = 529.611728542126 GPa
Elastic Constant C22all = 529.611728542153 GPa
Elastic Constant C33all = 529.611728542284 GPa
Elastic Constant C12all = 204.418943455459 GPa
Elastic Constant C13all = 204.41894345548 GPa
Elastic Constant C23all = 204.418943455489 GPa
Elastic Constant C44all = 160.615737573077 GPa
Elastic Constant C55all = 160.615737573077 GPa
Elastic Constant C66all = 160.615737573096 GPa
Elastic Constant C14all = -1.3549459704702e-11 GPa
Elastic Constant C15all = -5.40827824691864e-11 GPa
Elastic Constant C16all = -3.99733487337545e-11 GPa
Elastic Constant C24all = 1.13353536156709e-11 GPa
Elastic Constant C25all = -2.58231369139099e-12 GPa
Elastic Constant C26all = -2.67747751078407e-11 GPa
Elastic Constant C34all = 6.18880934653827e-11 GPa
Elastic Constant C35all = -1.68112177621863e-11 GPa
Elastic Constant C36all = -4.54400745802337e-11 GPa
Elastic Constant C45all = 1.05125303378351e-11 GPa
Elastic Constant C46all = -1.3974481244834e-12 GPa
Elastic Constant C56all = -7.50268157417129e-12 GPa
=========================================
Average properties for a cubic crystal
=========================================
Bulk Modulus = 312.81653848438 GPa
Shear Modulus 1 = 160.615737573083 GPa
Shear Modulus 2 = 162.596392543356 GPa
Poisson Ratio = 0.278488285644999
Total wall time: 0:00:00
