LAMMPS (2 Aug 2023 - Update 3)
OMP_NUM_THREADS environment is not set. Defaulting to 1 thread. (src/comm.cpp:98)
  using 1 OpenMP thread(s) per MPI task
Loaded 1 plugins from F:\Lammps\LAMMPS 64-bit 2Aug2023\plugins
Lattice spacing in x,y,z = 3.17 3.17 3.17
Created triclinic box = (0 0 0) to (6.34 9.51 12.68) with tilt (0 0 0)
  1 by 1 by 1 MPI processor grid
Created 48 atoms
  using lattice units in triclinic box = (0 0 0) to (6.34 9.51 12.68) with tilt (0 0 0)
  create_atoms CPU = 0.000 seconds
Neighbor list info ...
  update: every = 1 steps, delay = 0 steps, check = yes
  max neighbors/atom: 2000, page size: 100000
  master list distance cutoff = 5.403
  ghost atom cutoff = 5.403
  1 neighbor lists, perpetual/occasional/extra = 1 0 0
  (1) pair eam/alloy, perpetual
      attributes: half, newton on
      pair build: half/nsq/newton
      stencil: none
      bin: none
Setting up cg style minimization ...
  Unit style    : metal
  Current step  : 0
WARNING: Energy due to 3 extra global DOFs will be included in minimizer energies
 (src/min.cpp:228)
Per MPI rank memory allocation (min/avg/max) = 4.428 | 4.428 | 4.428 Mbytes
   Step          Temp          PotEng         Press           Pxx            Pyy            Pzz            Pxy            Pxz            Pyz             Lx             Ly             Lz           Volume    
         0   0             -427.18485     -14061.267     -14061.267     -14061.267     -14061.267      1.2563925e-11  9.7719413e-12 -1.1167933e-11  6.34           9.51           12.68          764.52031    
         1   0             -427.1868      -13140.267     -13140.267     -13140.267     -13140.267     -9.7749194e-12 -1.1171284e-11  2.9790091e-11  6.339366       9.509049       12.678732      764.29098    
         2   0             -427.18861     -12216.068     -12216.068     -12216.068     -12216.068      3.6317477e-11  8.8465871e-12  2.6074151e-11  6.338732       9.508098       12.677464      764.06169    
         3   0             -427.19029     -11288.515     -11288.515     -11288.515     -11288.515      5.588995e-12   8.8958171e-11 -2.235598e-11   6.338098       9.507147       12.676196      763.83245    
         4   0             -427.19184     -10360.866     -10360.866     -10360.866     -10360.866     -1.3510792e-11 -4.4259491e-11 -9.4109655e-11  6.337464       9.506196       12.674928      763.60325    
         5   0             -427.19326     -9433.9647     -9433.9647     -9433.9647     -9433.9647      3.4952192e-11  3.2622046e-11 -4.9399099e-11  6.33683        9.505245       12.67366       763.3741     
         6   0             -427.19454     -8505.9502     -8505.9502     -8505.9502     -8505.9502     -4.6616914e-13  2.5173134e-11 -9.3233828e-12  6.336196       9.504294       12.672392      763.145      
         7   0             -427.19569     -7577.4287     -7577.4287     -7577.4287     -7577.4287      3.7304728e-12 -2.7978546e-12  1.6787128e-11  6.335562       9.503343       12.671124      762.91594    
         8   0             -427.1967      -6648.3976     -6648.3976     -6648.3976     -6648.3976      2.9386295e-11 -2.4255354e-11  9.5155621e-11  6.334928       9.502392       12.669856      762.68693    
         9   0             -427.19759     -5718.8365     -5718.8365     -5718.8365     -5718.8365      3.8726903e-11 -2.332946e-12  -5.225799e-11   6.334294       9.501441       12.668588      762.45796    
        10   0             -427.19834     -4788.7687     -4788.7687     -4788.7687     -4788.7687      0             -2.2403008e-11  1.1201504e-11  6.33366        9.50049        12.66732       762.22904    
        11   0             -427.19896     -3858.211      -3858.211      -3858.211      -3858.211       5.9759298e-11  1.6340433e-11  2.9879649e-11  6.333026       9.499539       12.666052      762.00017    
        12   0             -427.19944     -2927.0361     -2927.0361     -2927.0361     -2927.0361     -6.5381366e-12 -4.1096859e-11  7.0051463e-11  6.332392       9.498588       12.664784      761.77134    
        13   0             -427.19979     -1993.6933     -1993.6933     -1993.6933     -1993.6933     -1.1211601e-11  4.0174905e-11 -2.8029003e-11  6.331758       9.497637       12.663516      761.54256    
        14   0             -427.20001     -1074.988      -1074.988      -1074.988      -1074.988       2.289723e-11  -3.2710329e-12 -4.9532784e-11  6.331124       9.496686       12.662248      761.31382    
        15   0             -427.2001      -142.13918     -142.13918     -142.13918     -142.13918      3.1317157e-11  3.9264189e-11 -2.4306403e-11  6.33049        9.495735       12.66098       761.08513    
        16   0             -427.2001       0.95789324     0.95789324     0.95789324     0.95789324    -3.7864317e-11  5.9833851e-11 -5.4224427e-11  6.3303946      9.4955919      12.660789      761.05071    
        17   0             -427.2001      -0.015746567   -0.015746567   -0.015746566   -0.015746567   -4.9083149e-11  1.6360814e-11  6.5443254e-12  6.3303952      9.4955928      12.66079       761.05095    
        18   0             -427.2001       3.994392e-05   3.9944049e-05  3.9943684e-05  3.9944027e-05 -5.3290215e-11 -4.6745182e-13  2.8982013e-11  6.3303952      9.4955928      12.66079       761.05094    
        19   0             -427.2001       5.0227698e-10  3.0664839e-10  4.7913811e-10  7.2104443e-10 -9.3631975e-13  6.0768736e-12 -3.2721627e-11  6.3303952      9.4955928      12.66079       761.05094    
Loop time of 0.001378 on 1 procs for 19 steps with 48 atoms

0.0% CPU use with 1 MPI tasks x 1 OpenMP threads

Minimization stats:
  Stopping criterion = force tolerance
  Energy initial, next-to-last, final = 
     -427.184848841919  -427.200100306399  -427.200100306395
  Force two-norm initial, final = 11.621542 7.650787e-13
  Force max component initial, final = 6.7097004 3.4302347e-13
  Final line search alpha, max atom move = 1 3.4302347e-13
  Iterations, force evaluations = 19 23

MPI task timing breakdown:
Section |  min time  |  avg time  |  max time  |%varavg| %total
---------------------------------------------------------------
Pair    | 0.000472   | 0.000472   | 0.000472   |   0.0 | 34.25
Neigh   | 0          | 0          | 0          |   0.0 |  0.00
Comm    | 3.9e-05    | 3.9e-05    | 3.9e-05    |   0.0 |  2.83
Output  | 0.000163   | 0.000163   | 0.000163   |   0.0 | 11.83
Modify  | 0          | 0          | 0          |   0.0 |  0.00
Other   |            | 0.000704   |            |       | 51.09

Nlocal:             48 ave          48 max          48 min
Histogram: 1 0 0 0 0 0 0 0 0 0
Nghost:            498 ave         498 max         498 min
Histogram: 1 0 0 0 0 0 0 0 0 0
Neighs:           1200 ave        1200 max        1200 min
Histogram: 1 0 0 0 0 0 0 0 0 0

Total # of neighbors = 1200
Ave neighs/atom = 25
Neighbor list builds = 0
Dangerous builds = 0
Displacing atoms ...
System init for write_restart ...
OMP_NUM_THREADS environment is not set. Defaulting to 1 thread. (src/comm.cpp:98)
  using 1 OpenMP thread(s) per MPI task
Loaded 1 plugins from F:\Lammps\LAMMPS 64-bit 2Aug2023\plugins

The 'box' command has been removed and will be ignored

Reading restart file ...
  restart file = 2 Aug 2023, LAMMPS = 2 Aug 2023
  restoring atom style atomic from restart
  triclinic box = (0.0048023897 0.0072035845 0.0096047793) to (6.3351976 9.5027964 12.670395) with tilt (0 0 0)
  1 by 1 by 1 MPI processor grid
  pair style eam/alloy stores no restart info
  48 atoms
  read_restart CPU = 0.000 seconds
Changing box ...
  triclinic box = (0.0048023897 0.0072035845 0.0096047793) to (6.3351343 9.5027964 12.670395) with tilt (0 0 0)
  triclinic box = (0.0048023897 0.0072035845 0.0096047793) to (6.3351343 9.5027964 12.670395) with tilt (0 0 0)
  triclinic box = (0.0048023897 0.0072035845 0.0096047793) to (6.3351343 9.5027964 12.670395) with tilt (0 0 0)
Neighbor list info ...
  update: every = 1 steps, delay = 0 steps, check = yes
  max neighbors/atom: 2000, page size: 100000
  master list distance cutoff = 5.403
  ghost atom cutoff = 5.403
  1 neighbor lists, perpetual/occasional/extra = 1 0 0
  (1) pair eam/alloy, perpetual
      attributes: half, newton on
      pair build: half/nsq/newton
      stencil: none
      bin: none
Setting up cg style minimization ...
  Unit style    : metal
  Current step  : 19
Per MPI rank memory allocation (min/avg/max) = 4.428 | 4.428 | 4.428 Mbytes
   Step          Temp          PotEng         Press           Pxx            Pyy            Pzz            Pxy            Pxz            Pyz             Lx             Ly             Lz           Volume    
        19   0             -427.2001       31.623862      53.998645      20.43519       20.43775       6.8591756e-05  2.7000943e-05 -2.4212187e-05  6.3303319      9.4955928      12.66079       761.04333    
        20   0             -427.2001       31.630401      54.00446       20.443269      20.443475      1.4454595e-06 -1.2668479e-05  3.5864964e-06  6.3303319      9.4955928      12.66079       761.04333    
        21   0             -427.2001       31.630082      54.005092      20.442594      20.44256      -7.737526e-07   5.5164997e-07  5.6826208e-07  6.3303319      9.4955928      12.66079       761.04333    
        22   0             -427.2001       31.630028      54.005114      20.442484      20.442487     -4.5952689e-07  1.4686375e-07  7.732899e-08   6.3303319      9.4955928      12.66079       761.04333    
        23   0             -427.2001       31.630022      54.005114      20.442476      20.442476     -2.8299813e-07  2.9077043e-08 -4.5801387e-09  6.3303319      9.4955928      12.66079       761.04333    
        24   0             -427.2001       31.630022      54.005115      20.442475      20.442475     -9.3565244e-08 -1.1923101e-08  2.5317444e-09  6.3303319      9.4955928      12.66079       761.04333    
        25   0             -427.2001       31.630021      54.005116      20.442474      20.442474     -2.7687416e-08 -1.4158967e-09  6.2498933e-09  6.3303319      9.4955928      12.66079       761.04333    
        26   0             -427.2001       31.630021      54.005116      20.442473      20.442473     -1.0266733e-08 -1.1740941e-10  1.3411327e-09  6.3303319      9.4955928      12.66079       761.04333    
        27   0             -427.2001       31.630021      54.005116      20.442473      20.442473     -1.3483824e-09  4.4549973e-10 -5.329004e-11   6.3303319      9.4955928      12.66079       761.04333    
        28   0             -427.2001       31.630021      54.005116      20.442473      20.442473     -1.1484639e-11 -6.3510629e-12  1.4444406e-10  6.3303319      9.4955928      12.66079       761.04333    
        29   0             -427.2001       31.630021      54.005116      20.442473      20.442473      4.600201e-11   4.7612544e-11  7.0118474e-11  6.3303319      9.4955928      12.66079       761.04333    
        30   0             -427.2001       31.630021      54.005116      20.442473      20.442473      2.3782077e-11  2.5640263e-11  2.4307738e-11  6.3303319      9.4955928      12.66079       761.04333    
        31   0             -427.2001       31.630021      54.005116      20.442473      20.442473     -2.1066356e-11 -3.1985391e-11 -8.8816734e-12  6.3303319      9.4955928      12.66079       761.04333    
        32   0             -427.2001       31.630021      54.005116      20.442473      20.442473      3.4306011e-12  1.7426449e-11 -3.2721955e-12  6.3303319      9.4955928      12.66079       761.04333    
        33   0             -427.2001       31.630021      54.005116      20.442473      20.442473      1.9170738e-11 -3.8902971e-12 -1.3088782e-11  6.3303319      9.4955928      12.66079       761.04333    
        34   0             -427.2001       31.630021      54.005116      20.442473      20.442473      1.8051399e-11 -1.2154554e-11 -5.1420214e-12  6.3303319      9.4955928      12.66079       761.04333    
        35   0             -427.2001       31.630021      54.005116      20.442473      20.442473      6.6319249e-11 -2.4463633e-11 -2.3372825e-11  6.3303319      9.4955928      12.66079       761.04333    
        36   0             -427.2001       31.630021      54.005116      20.442473      20.442473     -2.3861965e-11 -5.172995e-11   2.0568086e-11  6.3303319      9.4955928      12.66079       761.04333    
        37   0             -427.2001       31.630021      54.005116      20.442473      20.442473      5.7294234e-11 -1.8453804e-11  4.8148019e-11  6.3303319      9.4955928      12.66079       761.04333    
        38   0             -427.2001       31.630021      54.005116      20.442473      20.442473      1.8146579e-11  4.0748374e-11 -5.8899518e-11  6.3303319      9.4955928      12.66079       761.04333    
        39   0             -427.2001       31.630021      54.005116      20.442473      20.442473      5.2422461e-11  2.873876e-11   2.3372825e-11  6.3303319      9.4955928      12.66079       761.04333    
        40   0             -427.2001       31.630021      54.005116      20.442473      20.442473      4.9326018e-11  1.6509568e-11 -2.664502e-11   6.3303319      9.4955928      12.66079       761.04333    
Loop time of 0.001293 on 1 procs for 21 steps with 48 atoms

0.0% CPU use with 1 MPI tasks x 1 OpenMP threads

Minimization stats:
  Stopping criterion = force tolerance
  Energy initial, next-to-last, final = 
     -427.200100138939   -427.20010017798   -427.20010017798
  Force two-norm initial, final = 0.001319478 9.1156568e-11
  Force max component initial, final = 0.00030648091 2.2270806e-11
  Final line search alpha, max atom move = 1 2.2270806e-11
  Iterations, force evaluations = 21 42

MPI task timing breakdown:
Section |  min time  |  avg time  |  max time  |%varavg| %total
---------------------------------------------------------------
Pair    | 0.000934   | 0.000934   | 0.000934   |   0.0 | 72.24
Neigh   | 0          | 0          | 0          |   0.0 |  0.00
Comm    | 5.7e-05    | 5.7e-05    | 5.7e-05    |   0.0 |  4.41
Output  | 0.000246   | 0.000246   | 0.000246   |   0.0 | 19.03
Modify  | 0          | 0          | 0          |   0.0 |  0.00
Other   |            | 5.6e-05    |            |       |  4.33

Nlocal:             48 ave          48 max          48 min
Histogram: 1 0 0 0 0 0 0 0 0 0
Nghost:            498 ave         498 max         498 min
Histogram: 1 0 0 0 0 0 0 0 0 0
Neighs:           1200 ave        1200 max        1200 min
Histogram: 1 0 0 0 0 0 0 0 0 0

Total # of neighbors = 1200
Ave neighs/atom = 25
Neighbor list builds = 0
Dangerous builds = 0
OMP_NUM_THREADS environment is not set. Defaulting to 1 thread. (src/comm.cpp:98)
  using 1 OpenMP thread(s) per MPI task
Loaded 1 plugins from F:\Lammps\LAMMPS 64-bit 2Aug2023\plugins

The 'box' command has been removed and will be ignored

Reading restart file ...
  restart file = 2 Aug 2023, LAMMPS = 2 Aug 2023
  restoring atom style atomic from restart
  triclinic box = (0.0048023897 0.0072035845 0.0096047793) to (6.3351976 9.5027964 12.670395) with tilt (0 0 0)
  1 by 1 by 1 MPI processor grid
  pair style eam/alloy stores no restart info
  48 atoms
  read_restart CPU = 0.000 seconds
Changing box ...
  triclinic box = (0.0048023897 0.0072035845 0.0096047793) to (6.3352609 9.5027964 12.670395) with tilt (0 0 0)
  triclinic box = (0.0048023897 0.0072035845 0.0096047793) to (6.3352609 9.5027964 12.670395) with tilt (0 0 0)
  triclinic box = (0.0048023897 0.0072035845 0.0096047793) to (6.3352609 9.5027964 12.670395) with tilt (0 0 0)
Neighbor list info ...
  update: every = 1 steps, delay = 0 steps, check = yes
  max neighbors/atom: 2000, page size: 100000
  master list distance cutoff = 5.403
  ghost atom cutoff = 5.403
  1 neighbor lists, perpetual/occasional/extra = 1 0 0
  (1) pair eam/alloy, perpetual
      attributes: half, newton on
      pair build: half/nsq/newton
      stencil: none
      bin: none
Setting up cg style minimization ...
  Unit style    : metal
  Current step  : 19
Per MPI rank memory allocation (min/avg/max) = 4.428 | 4.428 | 4.428 Mbytes
   Step          Temp          PotEng         Press           Pxx            Pyy            Pzz            Pxy            Pxz            Pyz             Lx             Ly             Lz           Volume    
        19   0             -427.2001      -31.673147     -54.125493     -20.448253     -20.445693      6.3489028e-05  2.5020591e-05 -2.2290725e-05  6.3304585      9.4955928      12.66079       761.05855    
        20   0             -427.2001      -31.671801     -54.135301     -20.440154     -20.439948      1.3087098e-06 -1.1680817e-05  3.4329781e-06  6.3304585      9.4955928      12.66079       761.05855    
        21   0             -427.2001      -31.672694     -54.136398     -20.440824     -20.440858     -6.9810492e-07  4.7703933e-07  5.3699533e-07  6.3304585      9.4955928      12.66079       761.05855    
        22   0             -427.2001      -31.672769     -54.136443     -20.440934     -20.440931     -4.2024169e-07  1.3186141e-07  7.2674475e-08  6.3304585      9.4955928      12.66079       761.05855    
        23   0             -427.2001      -31.672777     -54.136445     -20.440942     -20.440942     -2.6002735e-07  2.7440819e-08 -3.8368062e-09  6.3304585      9.4955928      12.66079       761.05855    
        24   0             -427.2001      -31.672779     -54.136449     -20.440943     -20.440943     -8.6279527e-08 -1.075359e-08   2.1395056e-09  6.3304585      9.4955928      12.66079       761.05855    
        25   0             -427.2001      -31.67278      -54.13645      -20.440944     -20.440945     -2.5393027e-08 -1.2170358e-09  5.7556767e-09  6.3304585      9.4955928      12.66079       761.05855    
        26   0             -427.2001      -31.67278      -54.13645      -20.440945     -20.440945     -9.4906373e-09 -1.9825146e-10  1.2971658e-09  6.3304585      9.4955928      12.66079       761.05855    
        27   0             -427.2001      -31.67278      -54.13645      -20.440945     -20.440945     -1.2995747e-09  4.0602098e-10 -1.7295544e-11  6.3304585      9.4955928      12.66079       761.05855    
        28   0             -427.2001      -31.67278      -54.13645      -20.440945     -20.440945     -6.0772009e-11  1.7771208e-11  1.0844774e-10  6.3304585      9.4955928      12.66079       761.05855    
        29   0             -427.2001      -31.67278      -54.13645      -20.440945     -20.440945      2.513236e-11   1.5799622e-11  1.4350627e-10  6.3304585      9.4955928      12.66079       761.05855    
        30   0             -427.2001      -31.67278      -54.13645      -20.440945     -20.440945      9.5539075e-12 -3.8754062e-11  3.5058536e-11  6.3304585      9.4955928      12.66079       761.05855    
        31   0             -427.2001      -31.67278      -54.13645      -20.440945     -20.440945      1.5536911e-11 -9.462381e-12  -2.617704e-11   6.3304585      9.4955928      12.66079       761.05855    
        32   0             -427.2001      -31.67278      -54.13645      -20.440945     -20.440945     -2.8827429e-12  3.159194e-11   5.0951739e-11  6.3304585      9.4955928      12.66079       761.05855    
        33   0             -427.2001      -31.67278      -54.13645      -20.440945     -20.440945      2.1540001e-11  4.4415239e-11 -3.6460877e-11  6.3304585      9.4955928      12.66079       761.05855    
        34   0             -427.2001      -31.67278      -54.13645      -20.440945     -20.440945      1.9355233e-13  1.2192199e-11  5.6093657e-12  6.3304585      9.4955928      12.66079       761.05855    
        35   0             -427.2001      -31.67278      -54.13645      -20.440945     -20.440945     -7.6727066e-12 -3.6071034e-11  3.6928324e-11  6.3304585      9.4955928      12.66079       761.05855    
        36   0             -427.2001      -31.67278      -54.13645      -20.440945     -20.440945     -2.4279177e-11 -2.3537151e-11 -5.4223869e-11  6.3304585      9.4955928      12.66079       761.05855    
        37   0             -427.2001      -31.67278      -54.13645      -20.440945     -20.440945     -1.0804922e-11 -2.5268166e-11  1.963278e-11   6.3304585      9.4955928      12.66079       761.05855    
        38   0             -427.2001      -31.67278      -54.13645      -20.440945     -20.440945     -2.5075298e-11  1.8364419e-11 -8.8814957e-12  6.3304585      9.4955928      12.66079       761.05855    
        39   0             -427.2001      -31.67278      -54.13645      -20.440945     -20.440945     -5.2140442e-12 -1.9613151e-11 -3.599343e-11   6.3304585      9.4955928      12.66079       761.05855    
        40   0             -427.2001      -31.67278      -54.13645      -20.440945     -20.440945     -1.4344556e-11 -2.9543892e-11 -1.4023414e-11  6.3304585      9.4955928      12.66079       761.05855    
Loop time of 0.001134 on 1 procs for 21 steps with 48 atoms

0.0% CPU use with 1 MPI tasks x 1 OpenMP threads

Minimization stats:
  Stopping criterion = force tolerance
  Energy initial, next-to-last, final = 
     -427.200100138644  -427.200100177702  -427.200100177702
  Force two-norm initial, final = 0.0013201203 9.4275409e-11
  Force max component initial, final = 0.00030686539 2.2531282e-11
  Final line search alpha, max atom move = 1 2.2531282e-11
  Iterations, force evaluations = 21 42

MPI task timing breakdown:
Section |  min time  |  avg time  |  max time  |%varavg| %total
---------------------------------------------------------------
Pair    | 0.000853   | 0.000853   | 0.000853   |   0.0 | 75.22
Neigh   | 0          | 0          | 0          |   0.0 |  0.00
Comm    | 5.7e-05    | 5.7e-05    | 5.7e-05    |   0.0 |  5.03
Output  | 0.000158   | 0.000158   | 0.000158   |   0.0 | 13.93
Modify  | 0          | 0          | 0          |   0.0 |  0.00
Other   |            | 6.6e-05    |            |       |  5.82

Nlocal:             48 ave          48 max          48 min
Histogram: 1 0 0 0 0 0 0 0 0 0
Nghost:            498 ave         498 max         498 min
Histogram: 1 0 0 0 0 0 0 0 0 0
Neighs:           1200 ave        1200 max        1200 min
Histogram: 1 0 0 0 0 0 0 0 0 0

Total # of neighbors = 1200
Ave neighs/atom = 25
Neighbor list builds = 0
Dangerous builds = 0
OMP_NUM_THREADS environment is not set. Defaulting to 1 thread. (src/comm.cpp:98)
  using 1 OpenMP thread(s) per MPI task
Loaded 1 plugins from F:\Lammps\LAMMPS 64-bit 2Aug2023\plugins

The 'box' command has been removed and will be ignored

Reading restart file ...
  restart file = 2 Aug 2023, LAMMPS = 2 Aug 2023
  restoring atom style atomic from restart
  triclinic box = (0.0048023897 0.0072035845 0.0096047793) to (6.3351976 9.5027964 12.670395) with tilt (0 0 0)
  1 by 1 by 1 MPI processor grid
  pair style eam/alloy stores no restart info
  48 atoms
  read_restart CPU = 0.000 seconds
Changing box ...
  triclinic box = (0.0048023897 0.0072035845 0.0096047793) to (6.3351976 9.5027015 12.670395) with tilt (0 0 0)
  triclinic box = (0.0048023897 0.0072035845 0.0096047793) to (6.3351976 9.5027015 12.670395) with tilt (0 0 0)
Neighbor list info ...
  update: every = 1 steps, delay = 0 steps, check = yes
  max neighbors/atom: 2000, page size: 100000
  master list distance cutoff = 5.403
  ghost atom cutoff = 5.403
  1 neighbor lists, perpetual/occasional/extra = 1 0 0
  (1) pair eam/alloy, perpetual
      attributes: half, newton on
      pair build: half/nsq/newton
      stencil: none
      bin: none
Setting up cg style minimization ...
  Unit style    : metal
  Current step  : 19
Per MPI rank memory allocation (min/avg/max) = 4.428 | 4.428 | 4.428 Mbytes
   Step          Temp          PotEng         Press           Pxx            Pyy            Pzz            Pxy            Pxz            Pyz             Lx             Ly             Lz           Volume    
        19   0             -427.2001       31.624513      20.435475      54.000315      20.43775       6.857226e-05   2.696645e-05  -2.4249791e-05  6.3303952      9.4954979      12.66079       761.04333    
        20   0             -427.2001       31.630351      20.443023      54.004555      20.443475      1.4394226e-06 -1.2613102e-05  3.569085e-06   6.3303952      9.4954979      12.66079       761.04333    
        21   0             -427.2001       31.630045      20.442526      54.005048      20.442561     -7.8264696e-07  5.4542276e-07  5.6764598e-07  6.3303952      9.4954979      12.66079       761.04333    
        22   0             -427.2001       31.630027      20.442481      54.005112      20.442487     -4.6143107e-07  1.4581306e-07  7.8081128e-08  6.3303952      9.4954979      12.66079       761.04333    
        23   0             -427.2001       31.630023      20.442478      54.005115      20.442476     -2.8323368e-07  2.9462492e-08 -3.5007817e-09  6.3303952      9.4954979      12.66079       761.04333    
        24   0             -427.2001       31.630022      20.442475      54.005115      20.442475     -9.4021296e-08 -1.1930697e-08  2.212939e-09   6.3303952      9.4954979      12.66079       761.04333    
        25   0             -427.2001       31.630021      20.442474      54.005116      20.442474     -2.7831557e-08 -1.1551112e-09  6.2849525e-09  6.3303952      9.4954979      12.66079       761.04333    
        26   0             -427.2001       31.630021      20.442473      54.005116      20.442473     -1.0425712e-08 -1.1782369e-10  1.4140559e-09  6.3303952      9.4954979      12.66079       761.04333    
        27   0             -427.2001       31.630021      20.442473      54.005116      20.442473     -1.4468107e-09  4.4588479e-10 -5.9366975e-11  6.3303952      9.4954979      12.66079       761.04333    
        28   0             -427.2001       31.630021      20.442473      54.005116      20.442473     -1.4819626e-10 -2.1206958e-11  1.4444406e-10  6.3303952      9.4954979      12.66079       761.04333    
        29   0             -427.2001       31.630021      20.442473      54.005116      20.442473      6.3396048e-11  4.0568513e-11 -1.3556238e-11  6.3303952      9.4954979      12.66079       761.04333    
        30   0             -427.2001       31.630021      20.442473      54.005116      20.442473      7.2081426e-13  1.0539683e-11  5.6562236e-11  6.3303952      9.4954979      12.66079       761.04333    
        31   0             -427.2001       31.630021      20.442473      54.005116      20.442473      1.4432263e-12 -2.9749223e-11  2.3372825e-12  6.3303952      9.4954979      12.66079       761.04333    
        32   0             -427.2001       31.630021      20.442473      54.005116      20.442473      3.7245646e-11  3.8091541e-11  6.6846279e-11  6.3303952      9.4954979      12.66079       761.04333    
        33   0             -427.2001       31.630021      20.442473      54.005116      20.442473     -2.8392504e-11  4.5325933e-12  3.1787042e-11  6.3303952      9.4954979      12.66079       761.04333    
        34   0             -427.2001       31.630021      20.442473      54.005116      20.442473     -3.9437077e-12  3.3731962e-11  8.8816734e-12  6.3303952      9.4954979      12.66079       761.04333    
        35   0             -427.2001       31.630021      20.442473      54.005116      20.442473      2.1078453e-11 -4.9790736e-11 -2.3372825e-11  6.3303952      9.4954979      12.66079       761.04333    
        36   0             -427.2001       31.630021      20.442473      54.005116      20.442473     -3.5299356e-11 -3.5369657e-11 -2.3372825e-11  6.3303952      9.4954979      12.66079       761.04333    
        37   0             -427.2001       31.630021      20.442473      54.005116      20.442473     -3.040978e-12  -5.380931e-11  -1.6828434e-11  6.3303952      9.4954979      12.66079       761.04333    
        38   0             -427.2001       31.630021      20.442473      54.005116      20.442473      1.2226224e-11  2.421347e-11   1.1218956e-11  6.3303952      9.4954979      12.66079       761.04333    
        39   0             -427.2001       31.630021      20.442473      54.005116      20.442473      2.9848512e-11  2.4024479e-11  1.2153869e-11  6.3303952      9.4954979      12.66079       761.04333    
        40   0             -427.2001       31.630021      20.442473      54.005116      20.442473     -3.4514632e-11  1.4194882e-12  5.0017845e-11  6.3303952      9.4954979      12.66079       761.04333    
Loop time of 0.001134 on 1 procs for 21 steps with 48 atoms

0.0% CPU use with 1 MPI tasks x 1 OpenMP threads

Minimization stats:
  Stopping criterion = force tolerance
  Energy initial, next-to-last, final = 
     -427.200100138924   -427.20010017798   -427.20010017798
  Force two-norm initial, final = 0.0013200079 9.1964703e-11
  Force max component initial, final = 0.00030741531 1.8499258e-11
  Final line search alpha, max atom move = 1 1.8499258e-11
  Iterations, force evaluations = 21 42

MPI task timing breakdown:
Section |  min time  |  avg time  |  max time  |%varavg| %total
---------------------------------------------------------------
Pair    | 0.000855   | 0.000855   | 0.000855   |   0.0 | 75.40
Neigh   | 0          | 0          | 0          |   0.0 |  0.00
Comm    | 5.9e-05    | 5.9e-05    | 5.9e-05    |   0.0 |  5.20
Output  | 0.000168   | 0.000168   | 0.000168   |   0.0 | 14.81
Modify  | 0          | 0          | 0          |   0.0 |  0.00
Other   |            | 5.2e-05    |            |       |  4.59

Nlocal:             48 ave          48 max          48 min
Histogram: 1 0 0 0 0 0 0 0 0 0
Nghost:            498 ave         498 max         498 min
Histogram: 1 0 0 0 0 0 0 0 0 0
Neighs:           1200 ave        1200 max        1200 min
Histogram: 1 0 0 0 0 0 0 0 0 0

Total # of neighbors = 1200
Ave neighs/atom = 25
Neighbor list builds = 0
Dangerous builds = 0
OMP_NUM_THREADS environment is not set. Defaulting to 1 thread. (src/comm.cpp:98)
  using 1 OpenMP thread(s) per MPI task
Loaded 1 plugins from F:\Lammps\LAMMPS 64-bit 2Aug2023\plugins

The 'box' command has been removed and will be ignored

Reading restart file ...
  restart file = 2 Aug 2023, LAMMPS = 2 Aug 2023
  restoring atom style atomic from restart
  triclinic box = (0.0048023897 0.0072035845 0.0096047793) to (6.3351976 9.5027964 12.670395) with tilt (0 0 0)
  1 by 1 by 1 MPI processor grid
  pair style eam/alloy stores no restart info
  48 atoms
  read_restart CPU = 0.000 seconds
Changing box ...
  triclinic box = (0.0048023897 0.0072035845 0.0096047793) to (6.3351976 9.5028914 12.670395) with tilt (0 0 0)
  triclinic box = (0.0048023897 0.0072035845 0.0096047793) to (6.3351976 9.5028914 12.670395) with tilt (0 0 0)
Neighbor list info ...
  update: every = 1 steps, delay = 0 steps, check = yes
  max neighbors/atom: 2000, page size: 100000
  master list distance cutoff = 5.403
  ghost atom cutoff = 5.403
  1 neighbor lists, perpetual/occasional/extra = 1 0 0
  (1) pair eam/alloy, perpetual
      attributes: half, newton on
      pair build: half/nsq/newton
      stencil: none
      bin: none
Setting up cg style minimization ...
  Unit style    : metal
  Current step  : 19
Per MPI rank memory allocation (min/avg/max) = 4.428 | 4.428 | 4.428 Mbytes
   Step          Temp          PotEng         Press           Pxx            Pyy            Pzz            Pxy            Pxz            Pyz             Lx             Ly             Lz           Volume    
        19   0             -427.2001      -31.67395      -20.447968     -54.12819      -20.445693      6.3472952e-05  2.5001258e-05 -2.2323124e-05  6.3303952      9.4956878      12.66079       761.05855    
        20   0             -427.2001      -31.671936     -20.440401     -54.135459     -20.439948      1.3066485e-06 -1.1644771e-05  3.4276913e-06  6.3303952      9.4956878      12.66079       761.05855    
        21   0             -427.2001      -31.672693     -20.440893     -54.136329     -20.440858     -7.0438304e-07  4.7229889e-07  5.3491005e-07  6.3303952      9.4956878      12.66079       761.05855    
        22   0             -427.2001      -31.672769     -20.440937     -54.136439     -20.440931     -4.2168807e-07  1.3108662e-07  7.3184927e-08  6.3303952      9.4956878      12.66079       761.05855    
        23   0             -427.2001      -31.672777     -20.44094      -54.136448     -20.440942     -2.6025715e-07  2.7701149e-08 -3.0781394e-09  6.3303952      9.4956878      12.66079       761.05855    
        24   0             -427.2001      -31.672779     -20.440944     -54.136449     -20.440943     -8.6531255e-08 -1.0756284e-08  1.9702897e-09  6.3303952      9.4956878      12.66079       761.05855    
        25   0             -427.2001      -31.67278      -20.440945     -54.13645      -20.440945     -2.5515829e-08 -1.090042e-09   5.8243914e-09  6.3303952      9.4956878      12.66079       761.05855    
        26   0             -427.2001      -31.67278      -20.440945     -54.13645      -20.440945     -9.5541939e-09 -1.7042945e-10  1.3097869e-09  6.3303952      9.4956878      12.66079       761.05855    
        27   0             -427.2001      -31.67278      -20.440945     -54.13645      -20.440945     -1.3074558e-09  4.0584866e-10 -7.3856649e-11  6.3303952      9.4956878      12.66079       761.05855    
        28   0             -427.2001      -31.67278      -20.440945     -54.13645      -20.440945     -3.8824133e-11  3.0963124e-11  5.562621e-11   6.3303952      9.4956878      12.66079       761.05855    
        29   0             -427.2001      -31.67278      -20.440945     -54.13645      -20.440945      8.3169985e-11  2.045629e-11   4.8614503e-11  6.3303952      9.4956878      12.66079       761.05855    
        30   0             -427.2001      -31.67278      -20.440945     -54.13645      -20.440945      5.5470547e-12 -4.5066652e-11 -1.1686179e-11  6.3303952      9.4956878      12.66079       761.05855    
        31   0             -427.2001      -31.67278      -20.440945     -54.13645      -20.440945     -5.2099814e-11  2.2666393e-11  5.3756422e-11  6.3303952      9.4956878      12.66079       761.05855    
        32   0             -427.2001      -31.67278      -20.440945     -54.13645      -20.440945      4.7274244e-12 -6.3977263e-13 -5.889834e-11   6.3303952      9.4956878      12.66079       761.05855    
        33   0             -427.2001      -31.67278      -20.440945     -54.13645      -20.440945      1.0436534e-11  1.5828153e-11 -1.0283837e-11  6.3303952      9.4956878      12.66079       761.05855    
        34   0             -427.2001      -31.67278      -20.440945     -54.13645      -20.440945      1.6862334e-11 -3.6382817e-11 -1.0751284e-11  6.3303952      9.4956878      12.66079       761.05855    
        35   0             -427.2001      -31.67278      -20.440945     -54.13645      -20.440945      1.8784619e-13  8.967978e-11   7.198686e-11   6.3303952      9.4956878      12.66079       761.05855    
        36   0             -427.2001      -31.67278      -20.440945     -54.13645      -20.440945      4.3371243e-12 -6.0220796e-11  8.8814957e-12  6.3303952      9.4956878      12.66079       761.05855    
        37   0             -427.2001      -31.67278      -20.440945     -54.13645      -20.440945     -4.32311e-11   -1.6722191e-11 -4.1602796e-11  6.3303952      9.4956878      12.66079       761.05855    
        38   0             -427.2001      -31.67278      -20.440945     -54.13645      -20.440945     -6.7238894e-12 -2.4508108e-11 -4.580982e-11   6.3303952      9.4956878      12.66079       761.05855    
        39   0             -427.2001      -31.67278      -20.440945     -54.13645      -20.440945     -2.7038439e-11 -1.0945065e-11 -4.6744714e-12  6.3303952      9.4956878      12.66079       761.05855    
        40   0             -427.2001      -31.67278      -20.440945     -54.13645      -20.440945      6.9685687e-12 -4.3095979e-11  7.3389202e-11  6.3303952      9.4956878      12.66079       761.05855    
Loop time of 0.001143 on 1 procs for 21 steps with 48 atoms

0.0% CPU use with 1 MPI tasks x 1 OpenMP threads

Minimization stats:
  Stopping criterion = force tolerance
  Energy initial, next-to-last, final = 
     -427.200100138632  -427.200100177701  -427.200100177702
  Force two-norm initial, final = 0.0013205388 9.4356217e-11
  Force max component initial, final = 0.00030739038 1.9018869e-11
  Final line search alpha, max atom move = 1 1.9018869e-11
  Iterations, force evaluations = 21 42

MPI task timing breakdown:
Section |  min time  |  avg time  |  max time  |%varavg| %total
---------------------------------------------------------------
Pair    | 0.000843   | 0.000843   | 0.000843   |   0.0 | 73.75
Neigh   | 0          | 0          | 0          |   0.0 |  0.00
Comm    | 5.6e-05    | 5.6e-05    | 5.6e-05    |   0.0 |  4.90
Output  | 0.000165   | 0.000165   | 0.000165   |   0.0 | 14.44
Modify  | 0          | 0          | 0          |   0.0 |  0.00
Other   |            | 7.9e-05    |            |       |  6.91

Nlocal:             48 ave          48 max          48 min
Histogram: 1 0 0 0 0 0 0 0 0 0
Nghost:            498 ave         498 max         498 min
Histogram: 1 0 0 0 0 0 0 0 0 0
Neighs:           1200 ave        1200 max        1200 min
Histogram: 1 0 0 0 0 0 0 0 0 0

Total # of neighbors = 1200
Ave neighs/atom = 25
Neighbor list builds = 0
Dangerous builds = 0
OMP_NUM_THREADS environment is not set. Defaulting to 1 thread. (src/comm.cpp:98)
  using 1 OpenMP thread(s) per MPI task
Loaded 1 plugins from F:\Lammps\LAMMPS 64-bit 2Aug2023\plugins

The 'box' command has been removed and will be ignored

Reading restart file ...
  restart file = 2 Aug 2023, LAMMPS = 2 Aug 2023
  restoring atom style atomic from restart
  triclinic box = (0.0048023897 0.0072035845 0.0096047793) to (6.3351976 9.5027964 12.670395) with tilt (0 0 0)
  1 by 1 by 1 MPI processor grid
  pair style eam/alloy stores no restart info
  48 atoms
  read_restart CPU = 0.000 seconds
Changing box ...
  triclinic box = (0.0048023897 0.0072035845 0.0096047793) to (6.3351976 9.5027964 12.670269) with tilt (0 0 0)
Neighbor list info ...
  update: every = 1 steps, delay = 0 steps, check = yes
  max neighbors/atom: 2000, page size: 100000
  master list distance cutoff = 5.403
  ghost atom cutoff = 5.403
  1 neighbor lists, perpetual/occasional/extra = 1 0 0
  (1) pair eam/alloy, perpetual
      attributes: half, newton on
      pair build: half/nsq/newton
      stencil: none
      bin: none
Setting up cg style minimization ...
  Unit style    : metal
  Current step  : 19
Per MPI rank memory allocation (min/avg/max) = 4.428 | 4.428 | 4.428 Mbytes
   Step          Temp          PotEng         Press           Pxx            Pyy            Pzz            Pxy            Pxz            Pyz             Lx             Ly             Lz           Volume    
        19   0             -427.2001       31.623822      20.435475      20.43519       54.0008        6.8543448e-05  2.6980065e-05 -2.4246819e-05  6.3303952      9.4955928      12.660664      761.04333    
        20   0             -427.2001       31.630253      20.443024      20.44327       54.004466      1.4938433e-06 -1.27204e-05    3.6023006e-06  6.3303952      9.4955928      12.660664      761.04333    
        21   0             -427.2001       31.630063      20.442526      20.442595      54.005068     -7.6797176e-07  5.5491364e-07  5.7238645e-07  6.3303952      9.4955928      12.660664      761.04333    
        22   0             -427.2001       31.630025      20.442481      20.442484      54.005109     -4.5930484e-07  1.4917314e-07  7.7999323e-08  6.3303952      9.4955928      12.660664      761.04333    
        23   0             -427.2001       31.630023      20.442478      20.442476      54.005115     -2.8346883e-07  3.108624e-08  -3.6480305e-09  6.3303952      9.4955928      12.660664      761.04333    
        24   0             -427.2001       31.630022      20.442475      20.442475      54.005115     -9.4227412e-08 -1.2273901e-08  2.460691e-09   6.3303952      9.4955928      12.660664      761.04333    
        25   0             -427.2001       31.630021      20.442474      20.442474      54.005116     -2.770286e-08  -1.4290551e-09  6.2643845e-09  6.3303952      9.4955928      12.660664      761.04333    
        26   0             -427.2001       31.630021      20.442473      20.442473      54.005116     -1.0351755e-08 -3.3300569e-11  1.4191979e-09  6.3303952      9.4955928      12.660664      761.04333    
        27   0             -427.2001       31.630021      20.442473      20.442473      54.005116     -1.4351467e-09  5.4096836e-10 -7.6662865e-11  6.3303952      9.4955928      12.660664      761.04333    
        28   0             -427.2001       31.630021      20.442473      20.442473      54.005116     -7.3729165e-11  4.3875631e-11  9.6296038e-11  6.3303952      9.4955928      12.660664      761.04333    
        29   0             -427.2001       31.630021      20.442473      20.442473      54.005116      5.7797754e-11  4.1655669e-12  1.2153869e-10  6.3303952      9.4955928      12.660664      761.04333    
        30   0             -427.2001       31.630021      20.442473      20.442473      54.005116      2.4622266e-11  5.6802811e-11 -2.6177564e-11  6.3303952      9.4955928      12.660664      761.04333    
        31   0             -427.2001       31.630021      20.442473      20.442473      54.005116     -4.6418795e-11 -1.6274699e-11 -2.1502999e-11  6.3303952      9.4955928      12.660664      761.04333    
        32   0             -427.2001       31.630021      20.442473      20.442473      54.005116      3.6049615e-11  3.6239291e-12  4.9550388e-11  6.3303952      9.4955928      12.660664      761.04333    
        33   0             -427.2001       31.630021      20.442473      20.442473      54.005116      1.5699052e-12  3.9890153e-11  3.2721955e-12  6.3303952      9.4955928      12.660664      761.04333    
        34   0             -427.2001       31.630021      20.442473      20.442473      54.005116      1.0120387e-11  3.2659186e-11 -8.4609625e-11  6.3303952      9.4955928      12.660664      761.04333    
        35   0             -427.2001       31.630021      20.442473      20.442473      54.005116     -2.8092583e-11 -3.1612658e-12 -2.804739e-12   6.3303952      9.4955928      12.660664      761.04333    
        36   0             -427.2001       31.630021      20.442473      20.442473      54.005116      7.6703493e-12  1.5493398e-11  1.3088782e-11  6.3303952      9.4955928      12.660664      761.04333    
        37   0             -427.2001       31.630021      20.442473      20.442473      54.005116      2.0883984e-11 -4.390051e-11   2.804739e-11   6.3303952      9.4955928      12.660664      761.04333    
        38   0             -427.2001       31.630021      20.442473      20.442473      54.005116     -5.610117e-11  -5.7183533e-12 -4.3005997e-11  6.3303952      9.4955928      12.660664      761.04333    
        39   0             -427.2001       31.630021      20.442473      20.442473      54.005116     -5.0868077e-11 -4.4121228e-11 -4.3473454e-11  6.3303952      9.4955928      12.660664      761.04333    
        40   0             -427.2001       31.630021      20.442473      20.442473      54.005116      2.7113618e-11 -2.7185288e-11  2.2437912e-11  6.3303952      9.4955928      12.660664      761.04333    
Loop time of 0.001196 on 1 procs for 21 steps with 48 atoms

0.0% CPU use with 1 MPI tasks x 1 OpenMP threads

Minimization stats:
  Stopping criterion = force tolerance
  Energy initial, next-to-last, final = 
     -427.200100138921   -427.20010017798   -427.20010017798
  Force two-norm initial, final = 0.0013203787 9.4004819e-11
  Force max component initial, final = 0.00030741601 1.8428407e-11
  Final line search alpha, max atom move = 1 1.8428407e-11
  Iterations, force evaluations = 21 42

MPI task timing breakdown:
Section |  min time  |  avg time  |  max time  |%varavg| %total
---------------------------------------------------------------
Pair    | 0.000841   | 0.000841   | 0.000841   |   0.0 | 70.32
Neigh   | 0          | 0          | 0          |   0.0 |  0.00
Comm    | 5.7e-05    | 5.7e-05    | 5.7e-05    |   0.0 |  4.77
Output  | 0.000235   | 0.000235   | 0.000235   |   0.0 | 19.65
Modify  | 0          | 0          | 0          |   0.0 |  0.00
Other   |            | 6.3e-05    |            |       |  5.27

Nlocal:             48 ave          48 max          48 min
Histogram: 1 0 0 0 0 0 0 0 0 0
Nghost:            498 ave         498 max         498 min
Histogram: 1 0 0 0 0 0 0 0 0 0
Neighs:           1200 ave        1200 max        1200 min
Histogram: 1 0 0 0 0 0 0 0 0 0

Total # of neighbors = 1200
Ave neighs/atom = 25
Neighbor list builds = 0
Dangerous builds = 0
OMP_NUM_THREADS environment is not set. Defaulting to 1 thread. (src/comm.cpp:98)
  using 1 OpenMP thread(s) per MPI task
Loaded 1 plugins from F:\Lammps\LAMMPS 64-bit 2Aug2023\plugins

The 'box' command has been removed and will be ignored

Reading restart file ...
  restart file = 2 Aug 2023, LAMMPS = 2 Aug 2023
  restoring atom style atomic from restart
  triclinic box = (0.0048023897 0.0072035845 0.0096047793) to (6.3351976 9.5027964 12.670395) with tilt (0 0 0)
  1 by 1 by 1 MPI processor grid
  pair style eam/alloy stores no restart info
  48 atoms
  read_restart CPU = 0.000 seconds
Changing box ...
  triclinic box = (0.0048023897 0.0072035845 0.0096047793) to (6.3351976 9.5027964 12.670522) with tilt (0 0 0)
Neighbor list info ...
  update: every = 1 steps, delay = 0 steps, check = yes
  max neighbors/atom: 2000, page size: 100000
  master list distance cutoff = 5.403
  ghost atom cutoff = 5.403
  1 neighbor lists, perpetual/occasional/extra = 1 0 0
  (1) pair eam/alloy, perpetual
      attributes: half, newton on
      pair build: half/nsq/newton
      stencil: none
      bin: none
Setting up cg style minimization ...
  Unit style    : metal
  Current step  : 19
Per MPI rank memory allocation (min/avg/max) = 4.428 | 4.428 | 4.428 Mbytes
   Step          Temp          PotEng         Press           Pxx            Pyy            Pzz            Pxy            Pxz            Pyz             Lx             Ly             Lz           Volume    
        19   0             -427.2001      -31.675037     -20.447968     -20.448253     -54.128889      6.3453861e-05  2.5007834e-05 -2.2324195e-05  6.3303952      9.4955928      12.660917      761.05855    
        20   0             -427.2001      -31.671959     -20.4404       -20.440153     -54.135325      1.3354911e-06 -1.1701283e-05  3.4385477e-06  6.3303952      9.4955928      12.660917      761.05855    
        21   0             -427.2001      -31.672693     -20.440893     -20.440824     -54.136362     -6.9478019e-07  4.8007193e-07  5.3803073e-07  6.3303952      9.4955928      12.660917      761.05855    
        22   0             -427.2001      -31.672769     -20.440937     -20.440934     -54.136436     -4.201519e-07   1.3307611e-07  7.3023658e-08  6.3303952      9.4955928      12.660917      761.05855    
        23   0             -427.2001      -31.672777     -20.44094      -20.440942     -54.136447     -2.6015171e-07  2.8458022e-08 -3.4072222e-09  6.3303952      9.4955928      12.660917      761.05855    
        24   0             -427.2001      -31.672779     -20.440944     -20.440943     -54.136449     -8.6668628e-08 -1.0898936e-08  2.0726606e-09  6.3303952      9.4955928      12.660917      761.05855    
        25   0             -427.2001      -31.67278      -20.440945     -20.440944     -54.13645      -2.5348024e-08 -1.2812813e-09  5.7715699e-09  6.3303952      9.4955928      12.660917      761.05855    
        26   0             -427.2001      -31.67278      -20.440945     -20.440945     -54.13645      -9.4671415e-09 -1.3919129e-10  1.3055799e-09  6.3303952      9.4955928      12.660917      761.05855    
        27   0             -427.2001      -31.67278      -20.440945     -20.440945     -54.13645      -1.3153319e-09  4.3374256e-10 -3.599343e-11   6.3303952      9.4955928      12.660917      761.05855    
        28   0             -427.2001      -31.67278      -20.440945     -20.440945     -54.13645       1.859974e-11   5.5675968e-12  1.2574328e-10  6.3303952      9.4955928      12.660917      761.05855    
        29   0             -427.2001      -31.67278      -20.440945     -20.440945     -54.13645       4.8696215e-12  1.4085725e-11  5.4223869e-11  6.3303952      9.4955928      12.660917      761.05855    
        30   0             -427.2001      -31.67278      -20.440945     -20.440945     -54.13645      -3.8462135e-11  2.4349477e-11  1.0751284e-11  6.3303952      9.4955928      12.660917      761.05855    
        31   0             -427.2001      -31.67278      -20.440945     -20.440945     -54.13645      -2.754058e-11  -2.6291391e-11 -3.27213e-12    6.3303952      9.4955928      12.660917      761.05855    
        32   0             -427.2001      -31.67278      -20.440945     -20.440945     -54.13645       4.9947001e-12 -1.3797679e-11 -3.1786406e-11  6.3303952      9.4955928      12.660917      761.05855    
        33   0             -427.2001      -31.67278      -20.440945     -20.440945     -54.13645      -2.6661834e-11 -9.8465185e-13  2.6644487e-11  6.3303952      9.4955928      12.660917      761.05855    
        34   0             -427.2001      -31.67278      -20.440945     -20.440945     -54.13645       1.8995746e-11 -1.6676542e-11  3.6460877e-11  6.3303952      9.4955928      12.660917      761.05855    
        35   0             -427.2001      -31.67278      -20.440945     -20.440945     -54.13645       4.5982374e-12  3.6740935e-11  2.944917e-11   6.3303952      9.4955928      12.660917      761.05855    
        36   0             -427.2001      -31.67278      -20.440945     -20.440945     -54.13645      -2.4270276e-11  4.4316865e-11 -3.6460877e-11  6.3303952      9.4955928      12.660917      761.05855    
        37   0             -427.2001      -31.67278      -20.440945     -20.440945     -54.13645       1.5409322e-11  1.8401395e-11  1.8697886e-12  6.3303952      9.4955928      12.660917      761.05855    
        38   0             -427.2001      -31.67278      -20.440945     -20.440945     -54.13645      -1.3318592e-11  5.3854339e-11 -2.3839804e-11  6.3303952      9.4955928      12.660917      761.05855    
        39   0             -427.2001      -31.67278      -20.440945     -20.440945     -54.13645      -1.2948377e-12  3.1920614e-11  1.8697886e-12  6.3303952      9.4955928      12.660917      761.05855    
        40   0             -427.2001      -31.67278      -20.440945     -20.440945     -54.13645      -4.6387053e-11  2.7987485e-11  7.7128779e-11  6.3303952      9.4955928      12.660917      761.05855    
Loop time of 0.001155 on 1 procs for 21 steps with 48 atoms

0.0% CPU use with 1 MPI tasks x 1 OpenMP threads

Minimization stats:
  Stopping criterion = force tolerance
  Energy initial, next-to-last, final = 
     -427.200100138631  -427.200100177702  -427.200100177701
  Force two-norm initial, final = 0.0013206884 9.5816083e-11
  Force max component initial, final = 0.00030738968 1.9436254e-11
  Final line search alpha, max atom move = 1 1.9436254e-11
  Iterations, force evaluations = 21 42

MPI task timing breakdown:
Section |  min time  |  avg time  |  max time  |%varavg| %total
---------------------------------------------------------------
Pair    | 0.000882   | 0.000882   | 0.000882   |   0.0 | 76.36
Neigh   | 0          | 0          | 0          |   0.0 |  0.00
Comm    | 6.2e-05    | 6.2e-05    | 6.2e-05    |   0.0 |  5.37
Output  | 0.000157   | 0.000157   | 0.000157   |   0.0 | 13.59
Modify  | 0          | 0          | 0          |   0.0 |  0.00
Other   |            | 5.4e-05    |            |       |  4.68

Nlocal:             48 ave          48 max          48 min
Histogram: 1 0 0 0 0 0 0 0 0 0
Nghost:            498 ave         498 max         498 min
Histogram: 1 0 0 0 0 0 0 0 0 0
Neighs:           1200 ave        1200 max        1200 min
Histogram: 1 0 0 0 0 0 0 0 0 0

Total # of neighbors = 1200
Ave neighs/atom = 25
Neighbor list builds = 0
Dangerous builds = 0
OMP_NUM_THREADS environment is not set. Defaulting to 1 thread. (src/comm.cpp:98)
  using 1 OpenMP thread(s) per MPI task
Loaded 1 plugins from F:\Lammps\LAMMPS 64-bit 2Aug2023\plugins

The 'box' command has been removed and will be ignored

Reading restart file ...
  restart file = 2 Aug 2023, LAMMPS = 2 Aug 2023
  restoring atom style atomic from restart
  triclinic box = (0.0048023897 0.0072035845 0.0096047793) to (6.3351976 9.5027964 12.670395) with tilt (0 0 0)
  1 by 1 by 1 MPI processor grid
  pair style eam/alloy stores no restart info
  48 atoms
  read_restart CPU = 0.000 seconds
Changing box ...
  triclinic box = (0.0048023897 0.0072035845 0.0096047793) to (6.3351976 9.5027964 12.670395) with tilt (0 0 -0.0001266079)
Neighbor list info ...
  update: every = 1 steps, delay = 0 steps, check = yes
  max neighbors/atom: 2000, page size: 100000
  master list distance cutoff = 5.403
  ghost atom cutoff = 5.403
  1 neighbor lists, perpetual/occasional/extra = 1 0 0
  (1) pair eam/alloy, perpetual
      attributes: half, newton on
      pair build: half/nsq/newton
      stencil: none
      bin: none
Setting up cg style minimization ...
  Unit style    : metal
  Current step  : 19
Per MPI rank memory allocation (min/avg/max) = 4.428 | 4.428 | 4.428 Mbytes
   Step          Temp          PotEng         Press           Pxx            Pyy            Pzz            Pxy            Pxz            Pyz             Lx             Ly             Lz           Volume    
        19   0             -427.2001      -0.0059639951  -0.0064640295  -0.0070703006  -0.0043576551   6.6980708e-05  2.8528033e-05  16.061379      6.3303952      9.4955928      12.66079       761.05094    
        20   0             -427.2001       0.0011646616   0.00109503     0.0010204659   0.0013784888   8.674721e-07  -1.212747e-05   16.061395      6.3303952      9.4955928      12.66079       761.05094    
        21   0             -427.2001       0.00047129814  0.00059966565  0.00034807601  0.00046615274 -7.007926e-07   4.6785042e-07  16.06139       6.3303952      9.4955928      12.66079       761.05094    
        22   0             -427.2001       0.00039510016  0.00055537018  0.00023747956  0.00039245076 -4.3332343e-07  1.1868262e-07  16.06139       6.3303952      9.4955928      12.66079       761.05094    
        23   0             -427.2001       0.00038776392  0.00055281987  0.00022897189  0.00038150001 -2.7149938e-07  1.7738848e-08  16.06139       6.3303952      9.4955928      12.66079       761.05094    
        24   0             -427.2001       0.00038571801  0.00054894227  0.00022795499  0.00038025675 -9.1653776e-08 -1.5426152e-08  16.06139       6.3303952      9.4955928      12.66079       761.05094    
        25   0             -427.2001       0.00038464161  0.00054801491  0.00022697989  0.00037893002 -2.6848745e-08 -2.4988109e-09  16.06139       6.3303952      9.4955928      12.66079       761.05094    
        26   0             -427.2001       0.00038434927  0.00054777146  0.00022662727  0.00037864906 -1.0030027e-08 -5.7231669e-10  16.06139       6.3303952      9.4955928      12.66079       761.05094    
        27   0             -427.2001       0.00038424567  0.00054770175  0.00022652752  0.00037850773 -1.3594615e-09  3.9239293e-10  16.06139       6.3303952      9.4955928      12.66079       761.05094    
        28   0             -427.2001       0.00038420358  0.00054768143  0.00022646526  0.00037846405 -1.3045101e-10 -6.961791e-12   16.06139       6.3303952      9.4955928      12.66079       761.05094    
        29   0             -427.2001       0.00038419052  0.00054767133  0.00022644531  0.00037845491  4.1148998e-11  1.0173011e-12  16.06139       6.3303952      9.4955928      12.66079       761.05094    
        30   0             -427.2001       0.00038418746  0.00054766991  0.0002264427   0.00037844979 -1.8755363e-11  2.1647493e-11  16.06139       6.3303952      9.4955928      12.66079       761.05094    
        31   0             -427.2001       0.0003841868   0.00054766951  0.00022644177  0.00037844912 -3.7762027e-11 -1.0703003e-11  16.06139       6.3303952      9.4955928      12.66079       761.05094    
        32   0             -427.2001       0.0003841867   0.0005476694   0.0002264416   0.0003784491  -1.5998128e-11 -3.0051354e-11  16.06139       6.3303952      9.4955928      12.66079       761.05094    
        33   0             -427.2001       0.00038418675  0.00054766948  0.00022644165  0.00037844911 -3.5293982e-11  2.4416141e-11  16.06139       6.3303952      9.4955928      12.66079       761.05094    
        34   0             -427.2001       0.00038418678  0.00054766949  0.00022644171  0.00037844915 -4.8486714e-11 -1.0199032e-11  16.06139       6.3303952      9.4955928      12.66079       761.05094    
        35   0             -427.2001       0.00038418669  0.00054766944  0.00022644156  0.00037844907 -1.4129005e-11  3.5218432e-11  16.06139       6.3303952      9.4955928      12.66079       761.05094    
        36   0             -427.2001       0.00038418689  0.0005476696   0.00022644176  0.0003784493   6.6329085e-11  4.6253308e-11  16.06139       6.3303952      9.4955928      12.66079       761.05094    
        37   0             -427.2001       0.00038418672  0.00054766943  0.00022644161  0.0003784491  -2.3648999e-11  4.789578e-11   16.06139       6.3303952      9.4955928      12.66079       761.05094    
        38   0             -427.2001       0.00038418677  0.00054766955  0.00022644172  0.00037844905  1.6303067e-11  4.3039348e-11  16.06139       6.3303952      9.4955928      12.66079       761.05094    
        39   0             -427.2001       0.00038418677  0.00054766948  0.00022644168  0.00037844915 -2.5850679e-11 -1.9427553e-11  16.06139       6.3303952      9.4955928      12.66079       761.05094    
        40   0             -427.2001       0.00038418679  0.00054766948  0.00022644163  0.00037844924  1.0585227e-11 -2.8569569e-11  16.06139       6.3303952      9.4955928      12.66079       761.05094    
        41   0             -427.2001       0.00038418673  0.00054766943  0.00022644167  0.00037844909 -9.222587e-12   4.5341229e-11  16.06139       6.3303952      9.4955928      12.66079       761.05094    
Loop time of 0.001126 on 1 procs for 22 steps with 48 atoms

0.0% CPU use with 1 MPI tasks x 1 OpenMP threads

Minimization stats:
  Stopping criterion = force tolerance
  Energy initial, next-to-last, final = 
      -427.20010022915   -427.20010026825   -427.20010026825
  Force two-norm initial, final = 0.0013214147 3.3719497e-11
  Force max component initial, final = 0.00030740444 9.7213348e-12
  Final line search alpha, max atom move = 1 9.7213348e-12
  Iterations, force evaluations = 22 44

MPI task timing breakdown:
Section |  min time  |  avg time  |  max time  |%varavg| %total
---------------------------------------------------------------
Pair    | 0.000845   | 0.000845   | 0.000845   |   0.0 | 75.04
Neigh   | 0          | 0          | 0          |   0.0 |  0.00
Comm    | 6.7e-05    | 6.7e-05    | 6.7e-05    |   0.0 |  5.95
Output  | 0.000167   | 0.000167   | 0.000167   |   0.0 | 14.83
Modify  | 0          | 0          | 0          |   0.0 |  0.00
Other   |            | 4.7e-05    |            |       |  4.17

Nlocal:             48 ave          48 max          48 min
Histogram: 1 0 0 0 0 0 0 0 0 0
Nghost:            498 ave         498 max         498 min
Histogram: 1 0 0 0 0 0 0 0 0 0
Neighs:           1200 ave        1200 max        1200 min
Histogram: 1 0 0 0 0 0 0 0 0 0

Total # of neighbors = 1200
Ave neighs/atom = 25
Neighbor list builds = 0
Dangerous builds = 0
OMP_NUM_THREADS environment is not set. Defaulting to 1 thread. (src/comm.cpp:98)
  using 1 OpenMP thread(s) per MPI task
Loaded 1 plugins from F:\Lammps\LAMMPS 64-bit 2Aug2023\plugins

The 'box' command has been removed and will be ignored

Reading restart file ...
  restart file = 2 Aug 2023, LAMMPS = 2 Aug 2023
  restoring atom style atomic from restart
  triclinic box = (0.0048023897 0.0072035845 0.0096047793) to (6.3351976 9.5027964 12.670395) with tilt (0 0 0)
  1 by 1 by 1 MPI processor grid
  pair style eam/alloy stores no restart info
  48 atoms
  read_restart CPU = 0.000 seconds
Changing box ...
  triclinic box = (0.0048023897 0.0072035845 0.0096047793) to (6.3351976 9.5027964 12.670395) with tilt (0 0 0.0001266079)
Neighbor list info ...
  update: every = 1 steps, delay = 0 steps, check = yes
  max neighbors/atom: 2000, page size: 100000
  master list distance cutoff = 5.403
  ghost atom cutoff = 5.403
  1 neighbor lists, perpetual/occasional/extra = 1 0 0
  (1) pair eam/alloy, perpetual
      attributes: half, newton on
      pair build: half/nsq/newton
      stencil: none
      bin: none
Setting up cg style minimization ...
  Unit style    : metal
  Current step  : 19
Per MPI rank memory allocation (min/avg/max) = 4.428 | 4.428 | 4.428 Mbytes
   Step          Temp          PotEng         Press           Pxx            Pyy            Pzz            Pxy            Pxz            Pyz             Lx             Ly             Lz           Volume    
        19   0             -427.2001      -0.0059621145  -0.0064621087  -0.0070684017  -0.0043558333   6.5016499e-05  2.3439671e-05 -16.061426      6.3303952      9.4955928      12.66079       761.05094    
        20   0             -427.2001       0.0011645065   0.0010950523   0.0010202131   0.001378254    1.8804927e-06 -1.2259464e-05 -16.061388      6.3303952      9.4955928      12.66079       761.05094    
        21   0             -427.2001       0.0004712632   0.0005996303   0.00034804024  0.00046611905 -7.667895e-07   5.4160436e-07 -16.061389      6.3303952      9.4955928      12.66079       761.05094    
        22   0             -427.2001       0.00039509519  0.00055536542  0.00023747467  0.00039244548 -4.4808694e-07  1.5826647e-07 -16.06139       6.3303952      9.4955928      12.66079       761.05094    
        23   0             -427.2001       0.0003877645   0.00055281986  0.00022897238  0.00038150125 -2.7408302e-07  4.1656689e-08 -16.06139       6.3303952      9.4955928      12.66079       761.05094    
        24   0             -427.2001       0.00038571754  0.00054894182  0.00022795431  0.00038025648 -9.0239226e-08 -7.6703623e-09 -16.06139       6.3303952      9.4955928      12.66079       761.05094    
        25   0             -427.2001       0.00038464097  0.00054801429  0.00022697921  0.00037892941 -2.676838e-08  -1.338058e-11  -16.06139       6.3303952      9.4955928      12.66079       761.05094    
        26   0             -427.2001       0.00038434907  0.00054777116  0.00022662718  0.00037864886 -9.9905012e-09  3.2041973e-10 -16.06139       6.3303952      9.4955928      12.66079       761.05094    
        27   0             -427.2001       0.00038424572  0.00054770177  0.00022652763  0.00037850778 -1.4060446e-09  5.0604467e-10 -16.06139       6.3303952      9.4955928      12.66079       761.05094    
        28   0             -427.2001       0.00038420352  0.00054768134  0.00022646529  0.00037846393 -1.0982196e-10 -6.8622064e-11 -16.06139       6.3303952      9.4955928      12.66079       761.05094    
        29   0             -427.2001       0.00038419053  0.00054767131  0.00022644529  0.000378455    5.6564866e-11  5.9211401e-11 -16.06139       6.3303952      9.4955928      12.66079       761.05094    
        30   0             -427.2001       0.00038418741  0.00054766985  0.0002264426   0.00037844979  1.8716104e-11  9.1595906e-12 -16.06139       6.3303952      9.4955928      12.66079       761.05094    
        31   0             -427.2001       0.00038418672  0.00054766941  0.00022644168  0.00037844906 -7.9681362e-12  2.1980278e-13 -16.06139       6.3303952      9.4955928      12.66079       761.05094    
        32   0             -427.2001       0.00038418676  0.00054766948  0.00022644166  0.00037844913 -4.8622521e-11 -4.01196e-11   -16.06139       6.3303952      9.4955928      12.66079       761.05094    
        33   0             -427.2001       0.00038418665  0.0005476693   0.00022644158  0.00037844905  1.7457773e-11 -1.4118734e-11 -16.06139       6.3303952      9.4955928      12.66079       761.05094    
        34   0             -427.2001       0.00038418667  0.00054766935  0.00022644154  0.00037844912  1.6624212e-11  2.4398337e-11 -16.06139       6.3303952      9.4955928      12.66079       761.05094    
        35   0             -427.2001       0.00038418673  0.00054766946  0.00022644162  0.00037844911 -3.7636034e-11  5.5640005e-12 -16.06139       6.3303952      9.4955928      12.66079       761.05094    
        36   0             -427.2001       0.00038418682  0.00054766955  0.00022644173  0.00037844919  7.9850266e-12  5.7470097e-11 -16.06139       6.3303952      9.4955928      12.66079       761.05094    
        37   0             -427.2001       0.00038418669  0.00054766937  0.00022644153  0.00037844917  4.3768828e-12  5.2095999e-11 -16.06139       6.3303952      9.4955928      12.66079       761.05094    
        38   0             -427.2001       0.00038418672  0.00054766942  0.00022644163  0.00037844911 -1.8670455e-11 -6.2480596e-12 -16.06139       6.3303952      9.4955928      12.66079       761.05094    
        39   0             -427.2001       0.00038418677  0.0005476695   0.0002264417   0.0003784491  -9.2591067e-12 -8.2453662e-11 -16.06139       6.3303952      9.4955928      12.66079       761.05094    
        40   0             -427.2001       0.00038418671  0.00054766944  0.00022644157  0.00037844912  3.9418422e-13 -4.2847848e-11 -16.06139       6.3303952      9.4955928      12.66079       761.05094    
        41   0             -427.2001       0.00038418667  0.00054766945  0.00022644159  0.00037844897 -6.5162738e-11 -5.7819773e-11 -16.06139       6.3303952      9.4955928      12.66079       761.05094    
Loop time of 0.001268 on 1 procs for 22 steps with 48 atoms

0.0% CPU use with 1 MPI tasks x 1 OpenMP threads

Minimization stats:
  Stopping criterion = force tolerance
  Energy initial, next-to-last, final = 
      -427.20010022915   -427.20010026825   -427.20010026825
  Force two-norm initial, final = 0.0013214218 3.3719003e-11
  Force max component initial, final = 0.00030740125 9.7413744e-12
  Final line search alpha, max atom move = 1 9.7413744e-12
  Iterations, force evaluations = 22 44

MPI task timing breakdown:
Section |  min time  |  avg time  |  max time  |%varavg| %total
---------------------------------------------------------------
Pair    | 0.000987   | 0.000987   | 0.000987   |   0.0 | 77.84
Neigh   | 0          | 0          | 0          |   0.0 |  0.00
Comm    | 6.4e-05    | 6.4e-05    | 6.4e-05    |   0.0 |  5.05
Output  | 0.000167   | 0.000167   | 0.000167   |   0.0 | 13.17
Modify  | 0          | 0          | 0          |   0.0 |  0.00
Other   |            | 5e-05      |            |       |  3.94

Nlocal:             48 ave          48 max          48 min
Histogram: 1 0 0 0 0 0 0 0 0 0
Nghost:            498 ave         498 max         498 min
Histogram: 1 0 0 0 0 0 0 0 0 0
Neighs:           1200 ave        1200 max        1200 min
Histogram: 1 0 0 0 0 0 0 0 0 0

Total # of neighbors = 1200
Ave neighs/atom = 25
Neighbor list builds = 0
Dangerous builds = 0
OMP_NUM_THREADS environment is not set. Defaulting to 1 thread. (src/comm.cpp:98)
  using 1 OpenMP thread(s) per MPI task
Loaded 1 plugins from F:\Lammps\LAMMPS 64-bit 2Aug2023\plugins

The 'box' command has been removed and will be ignored

Reading restart file ...
  restart file = 2 Aug 2023, LAMMPS = 2 Aug 2023
  restoring atom style atomic from restart
  triclinic box = (0.0048023897 0.0072035845 0.0096047793) to (6.3351976 9.5027964 12.670395) with tilt (0 0 0)
  1 by 1 by 1 MPI processor grid
  pair style eam/alloy stores no restart info
  48 atoms
  read_restart CPU = 0.000 seconds
Changing box ...
  triclinic box = (0.0048023897 0.0072035845 0.0096047793) to (6.3351976 9.5027964 12.670395) with tilt (0 -0.0001266079 0)
Neighbor list info ...
  update: every = 1 steps, delay = 0 steps, check = yes
  max neighbors/atom: 2000, page size: 100000
  master list distance cutoff = 5.403
  ghost atom cutoff = 5.403
  1 neighbor lists, perpetual/occasional/extra = 1 0 0
  (1) pair eam/alloy, perpetual
      attributes: half, newton on
      pair build: half/nsq/newton
      stencil: none
      bin: none
Setting up cg style minimization ...
  Unit style    : metal
  Current step  : 19
Per MPI rank memory allocation (min/avg/max) = 4.428 | 4.428 | 4.428 Mbytes
   Step          Temp          PotEng         Press           Pxx            Pyy            Pzz            Pxy            Pxz            Pyz             Lx             Ly             Lz           Volume    
        19   0             -427.2001      -0.0059620374  -0.006783276   -0.0067471407  -0.0043556955   6.5038336e-05  16.061428     -2.0707266e-05  6.3303952      9.4955928      12.66079       761.05094    
        20   0             -427.2001       0.0011640719   0.00077329227  0.0013410373   0.001377886    1.4598608e-06  16.06138       3.603608e-06   6.3303952      9.4955928      12.66079       761.05094    
        21   0             -427.2001       0.00047131053  0.00027844826  0.00066932247  0.00046616086 -7.141416e-07   16.06139       5.2420374e-07  6.3303952      9.4955928      12.66079       761.05094    
        22   0             -427.2001       0.00039510484  0.00023414735  0.00055871305  0.00039245412 -4.3809077e-07  16.06139       5.6221365e-08  6.3303952      9.4955928      12.66079       761.05094    
        23   0             -427.2001       0.00038776553  0.00023159319  0.00055020122  0.0003815022  -2.7296558e-07  16.06139      -1.5536229e-08  6.3303952      9.4955928      12.66079       761.05094    
        24   0             -427.2001       0.00038571698  0.00022771342  0.00054918155  0.00038025597 -9.0771325e-08  16.06139      -1.8024942e-09  6.3303952      9.4955928      12.66079       761.05094    
        25   0             -427.2001       0.00038464124  0.00022678693  0.00054820717  0.00037892961 -2.6569627e-08  16.06139       4.7642689e-09  6.3303952      9.4955928      12.66079       761.05094    
        26   0             -427.2001       0.00038434918  0.00022654344  0.00054785512  0.000378649   -9.9622416e-09  16.06139       8.9563768e-10  6.3303952      9.4955928      12.66079       761.05094    
        27   0             -427.2001       0.00038424571  0.000226474    0.00054775541  0.00037850773 -1.3778722e-09  16.06139      -4.3005567e-11  6.3303952      9.4955928      12.66079       761.05094    
        28   0             -427.2001       0.0003842035   0.00022645358  0.000547693    0.00037846393 -9.3283343e-11  16.06139       6.684561e-11   6.3303952      9.4955928      12.66079       761.05094    
        29   0             -427.2001       0.00038419062  0.0002264436   0.00054767315  0.00037845511  6.6265175e-11  16.06139       3.7396145e-12  6.3303952      9.4955928      12.66079       761.05094    
        30   0             -427.2001       0.00038418744  0.00022644205  0.00054767045  0.00037844983  3.2814068e-11  16.06139       2.2905139e-11  6.3303952      9.4955928      12.66079       761.05094    
        31   0             -427.2001       0.00038418681  0.00022644168  0.00054766954  0.00037844921 -2.1761845e-11  16.06139       2.3840043e-11  6.3303952      9.4955928      12.66079       761.05094    
        32   0             -427.2001       0.0003841867   0.00022644158  0.00054766945  0.00037844906  8.7441108e-11  16.06139       1.8230621e-11  6.3303952      9.4955928      12.66079       761.05094    
        33   0             -427.2001       0.0003841868   0.00022644172  0.00054766952  0.00037844916  2.344951e-11   16.06139       6.7313062e-11  6.3303952      9.4955928      12.66079       761.05094    
        34   0             -427.2001       0.00038418676  0.00022644164  0.00054766948  0.00037844915 -1.6414224e-11  16.06139      -3.0384368e-11  6.3303952      9.4955928      12.66079       761.05094    
        35   0             -427.2001       0.00038418673  0.0002264417   0.00054766948  0.00037844901 -3.9789097e-11  16.06139       4.8147537e-11  6.3303952      9.4955928      12.66079       761.05094    
        36   0             -427.2001       0.0003841868   0.00022644167  0.00054766948  0.00037844924 -2.3726832e-11  16.06139      -3.8331049e-11  6.3303952      9.4955928      12.66079       761.05094    
        37   0             -427.2001       0.0003841868   0.00022644171  0.00054766954  0.00037844915  2.9087692e-11  16.06139       2.4307495e-11  6.3303952      9.4955928      12.66079       761.05094    
        38   0             -427.2001       0.0003841867   0.00022644154  0.00054766944  0.00037844913  1.1858851e-11  16.06139      -5.4691863e-11  6.3303952      9.4955928      12.66079       761.05094    
        39   0             -427.2001       0.00038418661  0.00022644156  0.00054766933  0.00037844895  7.0932618e-12  16.06139      -4.9549893e-11  6.3303952      9.4955928      12.66079       761.05094    
        40   0             -427.2001       0.0003841867   0.00022644158  0.0005476694   0.00037844912 -2.0294895e-11  16.06139       5.2822055e-11  6.3303952      9.4955928      12.66079       761.05094    
        41   0             -427.2001       0.00038418668  0.0002264416   0.00054766947  0.00037844898 -6.0499404e-12  16.06139       6.3105996e-11  6.3303952      9.4955928      12.66079       761.05094    
Loop time of 0.001331 on 1 procs for 22 steps with 48 atoms

0.0% CPU use with 1 MPI tasks x 1 OpenMP threads

Minimization stats:
  Stopping criterion = force tolerance
  Energy initial, next-to-last, final = 
      -427.20010022915   -427.20010026825   -427.20010026825
  Force two-norm initial, final = 0.0013214233 3.3723044e-11
  Force max component initial, final = 0.0003074034 9.8401287e-12
  Final line search alpha, max atom move = 1 9.8401287e-12
  Iterations, force evaluations = 22 44

MPI task timing breakdown:
Section |  min time  |  avg time  |  max time  |%varavg| %total
---------------------------------------------------------------
Pair    | 0.000986   | 0.000986   | 0.000986   |   0.0 | 74.08
Neigh   | 0          | 0          | 0          |   0.0 |  0.00
Comm    | 8.2e-05    | 8.2e-05    | 8.2e-05    |   0.0 |  6.16
Output  | 0.00018    | 0.00018    | 0.00018    |   0.0 | 13.52
Modify  | 0          | 0          | 0          |   0.0 |  0.00
Other   |            | 8.3e-05    |            |       |  6.24

Nlocal:             48 ave          48 max          48 min
Histogram: 1 0 0 0 0 0 0 0 0 0
Nghost:            498 ave         498 max         498 min
Histogram: 1 0 0 0 0 0 0 0 0 0
Neighs:           1200 ave        1200 max        1200 min
Histogram: 1 0 0 0 0 0 0 0 0 0

Total # of neighbors = 1200
Ave neighs/atom = 25
Neighbor list builds = 0
Dangerous builds = 0
OMP_NUM_THREADS environment is not set. Defaulting to 1 thread. (src/comm.cpp:98)
  using 1 OpenMP thread(s) per MPI task
Loaded 1 plugins from F:\Lammps\LAMMPS 64-bit 2Aug2023\plugins

The 'box' command has been removed and will be ignored

Reading restart file ...
  restart file = 2 Aug 2023, LAMMPS = 2 Aug 2023
  restoring atom style atomic from restart
  triclinic box = (0.0048023897 0.0072035845 0.0096047793) to (6.3351976 9.5027964 12.670395) with tilt (0 0 0)
  1 by 1 by 1 MPI processor grid
  pair style eam/alloy stores no restart info
  48 atoms
  read_restart CPU = 0.000 seconds
Changing box ...
  triclinic box = (0.0048023897 0.0072035845 0.0096047793) to (6.3351976 9.5027964 12.670395) with tilt (0 0.0001266079 0)
Neighbor list info ...
  update: every = 1 steps, delay = 0 steps, check = yes
  max neighbors/atom: 2000, page size: 100000
  master list distance cutoff = 5.403
  ghost atom cutoff = 5.403
  1 neighbor lists, perpetual/occasional/extra = 1 0 0
  (1) pair eam/alloy, perpetual
      attributes: half, newton on
      pair build: half/nsq/newton
      stencil: none
      bin: none
Setting up cg style minimization ...
  Unit style    : metal
  Current step  : 19
Per MPI rank memory allocation (min/avg/max) = 4.428 | 4.428 | 4.428 Mbytes
   Step          Temp          PotEng         Press           Pxx            Pyy            Pzz            Pxy            Pxz            Pyz             Lx             Ly             Lz           Volume    
        19   0             -427.2001      -0.0059640722  -0.0067853185  -0.0067491053  -0.0043577929   6.6958881e-05 -16.061376     -2.5795542e-05  6.3303952      9.4955928      12.66079       761.05094    
        20   0             -427.2001       0.0011650963   0.0007743345   0.0013420973   0.0013788571   1.2881304e-06 -16.061404      3.4721975e-06  6.3303952      9.4955928      12.66079       761.05094    
        21   0             -427.2001       0.00047125072  0.00027839199  0.00066924932  0.00046611086 -7.5348775e-07 -16.061389      5.9820136e-07  6.3303952      9.4955928      12.66079       761.05094    
        22   0             -427.2001       0.00039509062  0.00023413275  0.00055869697  0.00039244214 -4.4328303e-07 -16.06139       9.5924385e-08  6.3303952      9.4955928      12.66079       761.05094    
        23   0             -427.2001       0.00038776294  0.00023159105  0.00055019861  0.00038149916 -2.7253616e-07 -16.06139       8.3477546e-09  6.3303952      9.4955928      12.66079       761.05094    
        24   0             -427.2001       0.00038571828  0.0002277147   0.00054918312  0.00038025703 -9.1099751e-08 -16.06139       5.976839e-09   6.3303952      9.4955928      12.66079       761.05094    
        25   0             -427.2001       0.00038464118  0.00022678649  0.00054820736  0.00037892968 -2.7101517e-08 -16.06139       7.1492081e-09  6.3303952      9.4955928      12.66079       761.05094    
        26   0             -427.2001       0.00038434917  0.0002265436   0.00054785497  0.00037864893 -1.0103855e-08 -16.06139       1.7964173e-09  6.3303952      9.4955928      12.66079       761.05094    
        27   0             -427.2001       0.00038424576  0.00022647408  0.00054775542  0.00037850778 -1.3426556e-09 -16.06139       6.5443255e-11  6.3303952      9.4955928      12.66079       761.05094    
        28   0             -427.2001       0.00038420363  0.00022645373  0.00054769311  0.00037846404 -8.1718932e-11 -16.06139       5.0017345e-11  6.3303952      9.4955928      12.66079       761.05094    
        29   0             -427.2001       0.00038419053  0.00022644354  0.00054767306  0.00037845498  4.4597597e-11 -16.06139       4.7680085e-11  6.3303952      9.4955928      12.66079       761.05094    
        30   0             -427.2001       0.00038418742  0.00022644204  0.00054767043  0.00037844979 -5.1944442e-11 -16.06139       1.9165525e-11  6.3303952      9.4955928      12.66079       761.05094    
        31   0             -427.2001       0.00038418683  0.00022644174  0.00054766953  0.00037844923  1.8616132e-11 -16.06139       0              6.3303952      9.4955928      12.66079       761.05094    
        32   0             -427.2001       0.00038418684  0.00022644179  0.00054766952  0.00037844922 -1.3310051e-11 -16.06139      -6.4975803e-11  6.3303952      9.4955928      12.66079       761.05094    
        33   0             -427.2001       0.00038418685  0.00022644183  0.00054766957  0.00037844916  1.3836391e-12 -16.06139      -6.0768736e-11  6.3303952      9.4955928      12.66079       761.05094    
        34   0             -427.2001       0.00038418672  0.00022644164  0.00054766943  0.0003784491   1.8129964e-11 -16.06139       7.0117773e-11  6.3303952      9.4955928      12.66079       761.05094    
        35   0             -427.2001       0.00038418676  0.00022644171  0.00054766949  0.00037844906 -2.1136674e-11 -16.06139       3.085182e-11   6.3303952      9.4955928      12.66079       761.05094    
        36   0             -427.2001       0.00038418679  0.00022644168  0.00054766951  0.0003784492  -7.6965212e-12 -16.06139       3.7396145e-11  6.3303952      9.4955928      12.66079       761.05094    
        37   0             -427.2001       0.00038418682  0.00022644172  0.00054766948  0.00037844927 -1.9664703e-11 -16.06139       2.4774946e-11  6.3303952      9.4955928      12.66079       761.05094    
        38   0             -427.2001       0.00038418668  0.00022644163  0.00054766945  0.00037844897  1.1151054e-11 -16.06139       4.8614989e-11  6.3303952      9.4955928      12.66079       761.05094    
        39   0             -427.2001       0.00038418671  0.00022644165  0.00054766942  0.00037844907 -4.3055554e-11 -16.06139      -1.4491006e-11  6.3303952      9.4955928      12.66079       761.05094    
        40   0             -427.2001       0.00038418672  0.0002264417   0.00054766944  0.00037844903  1.3976535e-11 -16.06139      -3.085182e-11   6.3303952      9.4955928      12.66079       761.05094    
        41   0             -427.2001       0.00038418685  0.00022644174  0.00054766953  0.00037844929 -8.7350494e-12 -16.06139      -8.0869165e-11  6.3303952      9.4955928      12.66079       761.05094    
Loop time of 0.00112 on 1 procs for 22 steps with 48 atoms

0.0% CPU use with 1 MPI tasks x 1 OpenMP threads

Minimization stats:
  Stopping criterion = force tolerance
  Energy initial, next-to-last, final = 
      -427.20010022915   -427.20010026825   -427.20010026825
  Force two-norm initial, final = 0.0013214132 3.3724307e-11
  Force max component initial, final = 0.00030740229 9.5664587e-12
  Final line search alpha, max atom move = 1 9.5664587e-12
  Iterations, force evaluations = 22 44

MPI task timing breakdown:
Section |  min time  |  avg time  |  max time  |%varavg| %total
---------------------------------------------------------------
Pair    | 0.000841   | 0.000841   | 0.000841   |   0.0 | 75.09
Neigh   | 0          | 0          | 0          |   0.0 |  0.00
Comm    | 6.3e-05    | 6.3e-05    | 6.3e-05    |   0.0 |  5.63
Output  | 0.000168   | 0.000168   | 0.000168   |   0.0 | 15.00
Modify  | 0          | 0          | 0          |   0.0 |  0.00
Other   |            | 4.8e-05    |            |       |  4.29

Nlocal:             48 ave          48 max          48 min
Histogram: 1 0 0 0 0 0 0 0 0 0
Nghost:            498 ave         498 max         498 min
Histogram: 1 0 0 0 0 0 0 0 0 0
Neighs:           1200 ave        1200 max        1200 min
Histogram: 1 0 0 0 0 0 0 0 0 0

Total # of neighbors = 1200
Ave neighs/atom = 25
Neighbor list builds = 0
Dangerous builds = 0
OMP_NUM_THREADS environment is not set. Defaulting to 1 thread. (src/comm.cpp:98)
  using 1 OpenMP thread(s) per MPI task
Loaded 1 plugins from F:\Lammps\LAMMPS 64-bit 2Aug2023\plugins

The 'box' command has been removed and will be ignored

Reading restart file ...
  restart file = 2 Aug 2023, LAMMPS = 2 Aug 2023
  restoring atom style atomic from restart
  triclinic box = (0.0048023897 0.0072035845 0.0096047793) to (6.3351976 9.5027964 12.670395) with tilt (0 0 0)
  1 by 1 by 1 MPI processor grid
  pair style eam/alloy stores no restart info
  48 atoms
  read_restart CPU = 0.000 seconds
Changing box ...
  triclinic box = (0.0048023897 0.0072035845 0.0096047793) to (6.3351976 9.5027964 12.670395) with tilt (-9.4955928e-05 0 0)
Neighbor list info ...
  update: every = 1 steps, delay = 0 steps, check = yes
  max neighbors/atom: 2000, page size: 100000
  master list distance cutoff = 5.403
  ghost atom cutoff = 5.403
  1 neighbor lists, perpetual/occasional/extra = 1 0 0
  (1) pair eam/alloy, perpetual
      attributes: half, newton on
      pair build: half/nsq/newton
      stencil: none
      bin: none
Setting up cg style minimization ...
  Unit style    : metal
  Current step  : 19
Per MPI rank memory allocation (min/avg/max) = 4.428 | 4.428 | 4.428 Mbytes
   Step          Temp          PotEng         Press           Pxx            Pyy            Pzz            Pxy            Pxz            Pyz             Lx             Ly             Lz           Volume    
        19   0             -427.2001      -0.00596049    -0.0067816967  -0.0069143056  -0.0041854678   16.061468      2.5023659e-05 -2.2269079e-05  6.3303952      9.4955928      12.66079       761.05094    
        20   0             -427.2001       0.0011646579   0.00077384914  0.0011724688   0.0015476557   16.061393     -1.2107901e-05  3.0303761e-06  6.3303952      9.4955928      12.66079       761.05094    
        21   0             -427.2001       0.0004712456   0.00027839471  0.00050002119  0.00063532091  16.061389      5.243595e-07   5.9428739e-07  6.3303952      9.4955928      12.66079       761.05094    
        22   0             -427.2001       0.00039507807  0.00023412173  0.00038946444  0.00056164803  16.061389      1.409919e-07   8.3508398e-08  6.3303952      9.4955928      12.66079       761.05094    
        23   0             -427.2001       0.00038775229  0.00023157925  0.00038096801  0.00055070962  16.061389      2.9483978e-08 -2.2568574e-09  6.3303952      9.4955928      12.66079       761.05094    
        24   0             -427.2001       0.00038571394  0.00022771049  0.00037995772  0.0005494736   16.06139      -1.140206e-08   1.4159116e-09  6.3303952      9.4955928      12.66079       761.05094    
        25   0             -427.2001       0.00038464003  0.00022678556  0.00037898533  0.00054814921  16.06139      -1.0236674e-09  5.9651527e-09  6.3303952      9.4955928      12.66079       761.05094    
        26   0             -427.2001       0.0003843487   0.00022654307  0.0003786337   0.00054786931  16.06139      -2.3729799e-11  1.3588824e-09  6.3303952      9.4955928      12.66079       761.05094    
        27   0             -427.2001       0.00038424564  0.0002264739   0.00037853455  0.00054772848  16.06139       4.3784486e-10 -7.4792291e-12  6.3303952      9.4955928      12.66079       761.05094    
        28   0             -427.2001       0.00038420352  0.00022645359  0.0003784722   0.00054768478  16.06139       1.6189628e-12  1.0096959e-10  6.3303952      9.4955928      12.66079       761.05094    
        29   0             -427.2001       0.00038419053  0.00022644356  0.00037845222  0.0005476758   16.06139       1.8431936e-11  5.0952248e-11  6.3303952      9.4955928      12.66079       761.05094    
        30   0             -427.2001       0.00038418741  0.00022644198  0.00037844961  0.00054767064  16.06139       2.3366885e-11  3.2721627e-12  6.3303952      9.4955928      12.66079       761.05094    
        31   0             -427.2001       0.00038418678  0.0002264417   0.00037844867  0.00054766998  16.06139      -3.237469e-11   4.8147537e-11  6.3303952      9.4955928      12.66079       761.05094    
        32   0             -427.2001       0.00038418674  0.00022644162  0.00037844863  0.00054766996  16.06139       3.6405549e-11 -1.6360814e-11  6.3303952      9.4955928      12.66079       761.05094    
        33   0             -427.2001       0.00038418676  0.00022644168  0.00037844865  0.00054766993  16.06139      -2.1509631e-11  8.8815846e-12  6.3303952      9.4955928      12.66079       761.05094    
        34   0             -427.2001       0.0003841866   0.00022644148  0.00037844854  0.00054766979  16.06139       6.3284029e-12  7.0585225e-11  6.3303952      9.4955928      12.66079       761.05094    
        35   0             -427.2001       0.00038418669  0.00022644161  0.00037844855  0.00054766991  16.06139       3.0012781e-11  1.8698073e-12  6.3303952      9.4955928      12.66079       761.05094    
        36   0             -427.2001       0.00038418666  0.00022644163  0.00037844853  0.00054766982  16.06139       1.3797589e-11 -4.7680085e-11  6.3303952      9.4955928      12.66079       761.05094    
        37   0             -427.2001       0.00038418672  0.00022644164  0.00037844861  0.00054766991  16.06139       2.8134985e-11  2.1502784e-11  6.3303952      9.4955928      12.66079       761.05094    
        38   0             -427.2001       0.00038418682  0.00022644184  0.00037844867  0.00054766995  16.06139       6.2788731e-12  1.2621199e-11  6.3303952      9.4955928      12.66079       761.05094    
        39   0             -427.2001       0.00038418669  0.00022644163  0.00037844859  0.00054766985  16.06139      -7.7658401e-11 -1.4023555e-11  6.3303952      9.4955928      12.66079       761.05094    
        40   0             -427.2001       0.0003841867   0.00022644159  0.0003784486   0.00054766993  16.06139      -4.4715373e-11  4.2070664e-11  6.3303952      9.4955928      12.66079       761.05094    
        41   0             -427.2001       0.00038418671  0.00022644166  0.00037844863  0.00054766985  16.06139       3.1556193e-11 -2.4307495e-11  6.3303952      9.4955928      12.66079       761.05094    
Loop time of 0.001145 on 1 procs for 22 steps with 48 atoms

0.0% CPU use with 1 MPI tasks x 1 OpenMP threads

Minimization stats:
  Stopping criterion = force tolerance
  Energy initial, next-to-last, final = 
      -427.20010022915   -427.20010026825   -427.20010026825
  Force two-norm initial, final = 0.0013214297 3.3732091e-11
  Force max component initial, final = 0.0003074012 9.727219e-12
  Final line search alpha, max atom move = 1 9.727219e-12
  Iterations, force evaluations = 22 44

MPI task timing breakdown:
Section |  min time  |  avg time  |  max time  |%varavg| %total
---------------------------------------------------------------
Pair    | 0.000845   | 0.000845   | 0.000845   |   0.0 | 73.80
Neigh   | 0          | 0          | 0          |   0.0 |  0.00
Comm    | 6.3e-05    | 6.3e-05    | 6.3e-05    |   0.0 |  5.50
Output  | 0.000179   | 0.000179   | 0.000179   |   0.0 | 15.63
Modify  | 0          | 0          | 0          |   0.0 |  0.00
Other   |            | 5.8e-05    |            |       |  5.07

Nlocal:             48 ave          48 max          48 min
Histogram: 1 0 0 0 0 0 0 0 0 0
Nghost:            498 ave         498 max         498 min
Histogram: 1 0 0 0 0 0 0 0 0 0
Neighs:           1200 ave        1200 max        1200 min
Histogram: 1 0 0 0 0 0 0 0 0 0

Total # of neighbors = 1200
Ave neighs/atom = 25
Neighbor list builds = 0
Dangerous builds = 0
OMP_NUM_THREADS environment is not set. Defaulting to 1 thread. (src/comm.cpp:98)
  using 1 OpenMP thread(s) per MPI task
Loaded 1 plugins from F:\Lammps\LAMMPS 64-bit 2Aug2023\plugins

The 'box' command has been removed and will be ignored

Reading restart file ...
  restart file = 2 Aug 2023, LAMMPS = 2 Aug 2023
  restoring atom style atomic from restart
  triclinic box = (0.0048023897 0.0072035845 0.0096047793) to (6.3351976 9.5027964 12.670395) with tilt (0 0 0)
  1 by 1 by 1 MPI processor grid
  pair style eam/alloy stores no restart info
  48 atoms
  read_restart CPU = 0.000 seconds
Changing box ...
  triclinic box = (0.0048023897 0.0072035845 0.0096047793) to (6.3351976 9.5027964 12.670395) with tilt (9.4955928e-05 0 0)
Neighbor list info ...
  update: every = 1 steps, delay = 0 steps, check = yes
  max neighbors/atom: 2000, page size: 100000
  master list distance cutoff = 5.403
  ghost atom cutoff = 5.403
  1 neighbor lists, perpetual/occasional/extra = 1 0 0
  (1) pair eam/alloy, perpetual
      attributes: half, newton on
      pair build: half/nsq/newton
      stencil: none
      bin: none
Setting up cg style minimization ...
  Unit style    : metal
  Current step  : 19
Per MPI rank memory allocation (min/avg/max) = 4.428 | 4.428 | 4.428 Mbytes
   Step          Temp          PotEng         Press           Pxx            Pyy            Pzz            Pxy            Pxz            Pyz             Lx             Ly             Lz           Volume    
        19   0             -427.2001      -0.0059656273  -0.0067868978  -0.0069194277  -0.0041905562  -16.061336      2.6944083e-05 -2.4233731e-05  6.3303952      9.4955928      12.66079       761.05094    
        20   0             -427.2001       0.0011645108   0.00077377779  0.0011722896   0.0015474649  -16.06139      -1.2279145e-05  4.0453453e-06  6.3303952      9.4955928      12.66079       761.05094    
        21   0             -427.2001       0.00047131573  0.00027844558  0.000500109    0.0006353926  -16.061391      4.8512885e-07  5.2804292e-07  6.3303952      9.4955928      12.66079       761.05094    
        22   0             -427.2001       0.00039511748  0.00023415854  0.00038950397  0.00056168992 -16.06139       1.3590467e-07  6.8653714e-08  6.3303952      9.4955928      12.66079       761.05094    
        23   0             -427.2001       0.00038777636  0.00023160516  0.00038099031  0.00055073363 -16.06139       2.9929869e-08 -4.822233e-09   6.3303952      9.4955928      12.66079       761.05094    
        24   0             -427.2001       0.00038572149  0.00022771781  0.00037996546  0.0005494812  -16.06139      -1.1639277e-08  2.8612726e-09  6.3303952      9.4955928      12.66079       761.05094    
        25   0             -427.2001       0.00038464243  0.00022678807  0.0003789875   0.00054815172 -16.06139      -1.4308696e-09  6.0273237e-09  6.3303952      9.4955928      12.66079       761.05094    
        26   0             -427.2001       0.00038434955  0.00022654392  0.00037863462  0.0005478701  -16.06139      -1.6004519e-10  1.3537405e-09  6.3303952      9.4955928      12.66079       761.05094    
        27   0             -427.2001       0.00038424567  0.00022647391  0.00037853462  0.00054772848 -16.06139       4.7003924e-10 -9.3022912e-11  6.3303952      9.4955928      12.66079       761.05094    
        28   0             -427.2001       0.00038420358  0.00022645362  0.00037847229  0.00054768483 -16.06139       2.2471924e-11  1.8885053e-10  6.3303952      9.4955928      12.66079       761.05094    
        29   0             -427.2001       0.00038419059  0.00022644362  0.00037845231  0.00054767585 -16.06139       2.2531041e-11  1.3930064e-10  6.3303952      9.4955928      12.66079       761.05094    
        30   0             -427.2001       0.00038418737  0.00022644196  0.00037844957  0.00054767057 -16.06139      -8.1046285e-12  2.3372591e-11  6.3303952      9.4955928      12.66079       761.05094    
        31   0             -427.2001       0.00038418686  0.00022644171  0.00037844881  0.00054767005 -16.06139      -3.770565e-11   4.2070664e-12  6.3303952      9.4955928      12.66079       761.05094    
        32   0             -427.2001       0.00038418679  0.00022644171  0.00037844866  0.00054767    -16.06139       4.2527616e-11 -4.6745182e-12  6.3303952      9.4955928      12.66079       761.05094    
        33   0             -427.2001       0.00038418671  0.00022644165  0.00037844858  0.00054766991 -16.06139       3.7752212e-13 -2.9916916e-11  6.3303952      9.4955928      12.66079       761.05094    
        34   0             -427.2001       0.0003841867   0.00022644168  0.00037844859  0.00054766981 -16.06139      -1.584543e-11   5.5626766e-11  6.3303952      9.4955928      12.66079       761.05094    
        35   0             -427.2001       0.00038418674  0.00022644167  0.00037844859  0.00054766995 -16.06139       1.7483794e-13  2.1035332e-11  6.3303952      9.4955928      12.66079       761.05094    
        36   0             -427.2001       0.00038418679  0.0002264417   0.00037844867  0.00054767    -16.06139      -7.5534097e-12  1.6360814e-11  6.3303952      9.4955928      12.66079       761.05094    
        37   0             -427.2001       0.00038418673  0.00022644165  0.00037844863  0.0005476699  -16.06139      -3.2051035e-11 -2.5242398e-11  6.3303952      9.4955928      12.66079       761.05094    
        38   0             -427.2001       0.00038418669  0.00022644153  0.00037844864  0.00054766991 -16.06139      -9.4686383e-12  3.8798501e-11  6.3303952      9.4955928      12.66079       761.05094    
        39   0             -427.2001       0.00038418667  0.00022644161  0.00037844852  0.00054766987 -16.06139      -2.4361361e-11 -1.542591e-11   6.3303952      9.4955928      12.66079       761.05094    
        40   0             -427.2001       0.00038418677  0.00022644171  0.00037844861  0.00054766999 -16.06139      -1.7225873e-12 -1.542591e-11   6.3303952      9.4955928      12.66079       761.05094    
        41   0             -427.2001       0.00038418657  0.00022644149  0.00037844847  0.00054766975 -16.06139      -2.8493106e-11 -2.8047109e-12  6.3303952      9.4955928      12.66079       761.05094    
Loop time of 0.001137 on 1 procs for 22 steps with 48 atoms

0.0% CPU use with 1 MPI tasks x 1 OpenMP threads

Minimization stats:
  Stopping criterion = force tolerance
  Energy initial, next-to-last, final = 
      -427.20010022915   -427.20010026825   -427.20010026825
  Force two-norm initial, final = 0.0013214069 3.3723091e-11
  Force max component initial, final = 0.00030740449 9.7314379e-12
  Final line search alpha, max atom move = 1 9.7314379e-12
  Iterations, force evaluations = 22 44

MPI task timing breakdown:
Section |  min time  |  avg time  |  max time  |%varavg| %total
---------------------------------------------------------------
Pair    | 0.000851   | 0.000851   | 0.000851   |   0.0 | 74.85
Neigh   | 0          | 0          | 0          |   0.0 |  0.00
Comm    | 6.2e-05    | 6.2e-05    | 6.2e-05    |   0.0 |  5.45
Output  | 0.000172   | 0.000172   | 0.000172   |   0.0 | 15.13
Modify  | 0          | 0          | 0          |   0.0 |  0.00
Other   |            | 5.2e-05    |            |       |  4.57

Nlocal:             48 ave          48 max          48 min
Histogram: 1 0 0 0 0 0 0 0 0 0
Nghost:            498 ave         498 max         498 min
Histogram: 1 0 0 0 0 0 0 0 0 0
Neighs:           1200 ave        1200 max        1200 min
Histogram: 1 0 0 0 0 0 0 0 0 0

Total # of neighbors = 1200
Ave neighs/atom = 25
Neighbor list builds = 0
Dangerous builds = 0
=========================================
Components of the Elastic Constant Tensor
=========================================
Elastic Constant C11all = 540.707832191241 GPa
Elastic Constant C22all = 540.707832192423 GPa
Elastic Constant C33all = 540.707832191624 GPa
Elastic Constant C12all = 204.417091367633 GPa
Elastic Constant C13all = 204.41709136717 GPa
Elastic Constant C23all = 204.417091367619 GPa
Elastic Constant C44all = 160.613896556914 GPa
Elastic Constant C55all = 160.613896557726 GPa
Elastic Constant C66all = 160.613896557406 GPa
Elastic Constant C14all = -9.56603070015635e-11 GPa
Elastic Constant C15all = -2.26599762019382e-10 GPa
Elastic Constant C16all = 5.9392888076237e-10 GPa
Elastic Constant C24all = 1.60105332938707e-10 GPa
Elastic Constant C25all = -4.063317431168e-11 GPa
Elastic Constant C26all = 2.97131933331251e-10 GPa
Elastic Constant C34all = 1.65699094665972e-10 GPa
Elastic Constant C35all = -9.28848768048152e-10 GPa
Elastic Constant C36all = 4.29825803258128e-10 GPa
Elastic Constant C45all = 6.17840403890896e-10 GPa
Elastic Constant C46all = 8.60934179982385e-11 GPa
Elastic Constant C56all = 1.56836019563299e-10 GPa
=========================================
Average properties for a cubic crystal
=========================================
Bulk Modulus = 316.51400497557 GPa
Shear Modulus 1 = 160.613896557349 GPa
Shear Modulus 2 = 168.145370412145 GPa
Poisson Ratio = 0.274339355595616
Total wall time: 0:00:00
