LAMMPS (2 Aug 2023 - Update 3)
OMP_NUM_THREADS environment is not set. Defaulting to 1 thread. (src/comm.cpp:98)
  using 1 OpenMP thread(s) per MPI task
Loaded 1 plugins from F:\Lammps\LAMMPS 64-bit 2Aug2023\plugins
Lattice spacing in x,y,z = 3.17 3.17 3.17
Created triclinic box = (0 0 0) to (6.34 9.51 12.68) with tilt (0 0 0)
  1 by 1 by 1 MPI processor grid
Created 48 atoms
  using lattice units in triclinic box = (0 0 0) to (6.34 9.51 12.68) with tilt (0 0 0)
  create_atoms CPU = 0.000 seconds
Neighbor list info ...
  update: every = 1 steps, delay = 0 steps, check = yes
  max neighbors/atom: 2000, page size: 100000
  master list distance cutoff = 5.403
  ghost atom cutoff = 5.403
  1 neighbor lists, perpetual/occasional/extra = 1 0 0
  (1) pair eam/alloy, perpetual
      attributes: half, newton on
      pair build: half/nsq/newton
      stencil: none
      bin: none
Setting up cg style minimization ...
  Unit style    : metal
  Current step  : 0
WARNING: Energy due to 3 extra global DOFs will be included in minimizer energies
 (src/min.cpp:228)
Per MPI rank memory allocation (min/avg/max) = 4.428 | 4.428 | 4.428 Mbytes
   Step          Temp          PotEng         Press           Pxx            Pyy            Pzz            Pxy            Pxz            Pyz             Lx             Ly             Lz           Volume    
         0   0             -427.18485     -14061.267     -14061.267     -14061.267     -14061.267      1.2563925e-11  9.7719413e-12 -1.1167933e-11  6.34           9.51           12.68          764.52031    
         1   0             -427.1868      -13140.267     -13140.267     -13140.267     -13140.267     -9.7749194e-12 -1.1171284e-11  2.9790091e-11  6.339366       9.509049       12.678732      764.29098    
         2   0             -427.18861     -12216.068     -12216.068     -12216.068     -12216.068      3.6317477e-11  8.8465871e-12  2.6074151e-11  6.338732       9.508098       12.677464      764.06169    
         3   0             -427.19029     -11288.515     -11288.515     -11288.515     -11288.515      5.588995e-12   8.8958171e-11 -2.235598e-11   6.338098       9.507147       12.676196      763.83245    
         4   0             -427.19184     -10360.866     -10360.866     -10360.866     -10360.866     -1.3510792e-11 -4.4259491e-11 -9.4109655e-11  6.337464       9.506196       12.674928      763.60325    
         5   0             -427.19326     -9433.9647     -9433.9647     -9433.9647     -9433.9647      3.4952192e-11  3.2622046e-11 -4.9399099e-11  6.33683        9.505245       12.67366       763.3741     
         6   0             -427.19454     -8505.9502     -8505.9502     -8505.9502     -8505.9502     -4.6616914e-13  2.5173134e-11 -9.3233828e-12  6.336196       9.504294       12.672392      763.145      
         7   0             -427.19569     -7577.4287     -7577.4287     -7577.4287     -7577.4287      3.7304728e-12 -2.7978546e-12  1.6787128e-11  6.335562       9.503343       12.671124      762.91594    
         8   0             -427.1967      -6648.3976     -6648.3976     -6648.3976     -6648.3976      2.9386295e-11 -2.4255354e-11  9.5155621e-11  6.334928       9.502392       12.669856      762.68693    
         9   0             -427.19759     -5718.8365     -5718.8365     -5718.8365     -5718.8365      3.8726903e-11 -2.332946e-12  -5.225799e-11   6.334294       9.501441       12.668588      762.45796    
        10   0             -427.19834     -4788.7687     -4788.7687     -4788.7687     -4788.7687      0             -2.2403008e-11  1.1201504e-11  6.33366        9.50049        12.66732       762.22904    
        11   0             -427.19896     -3858.211      -3858.211      -3858.211      -3858.211       5.9759298e-11  1.6340433e-11  2.9879649e-11  6.333026       9.499539       12.666052      762.00017    
        12   0             -427.19944     -2927.0361     -2927.0361     -2927.0361     -2927.0361     -6.5381366e-12 -4.1096859e-11  7.0051463e-11  6.332392       9.498588       12.664784      761.77134    
        13   0             -427.19979     -1993.6933     -1993.6933     -1993.6933     -1993.6933     -1.1211601e-11  4.0174905e-11 -2.8029003e-11  6.331758       9.497637       12.663516      761.54256    
        14   0             -427.20001     -1074.988      -1074.988      -1074.988      -1074.988       2.289723e-11  -3.2710329e-12 -4.9532784e-11  6.331124       9.496686       12.662248      761.31382    
        15   0             -427.2001      -142.13918     -142.13918     -142.13918     -142.13918      3.1317157e-11  3.9264189e-11 -2.4306403e-11  6.33049        9.495735       12.66098       761.08513    
        16   0             -427.2001       0.95789324     0.95789324     0.95789324     0.95789324    -3.7864317e-11  5.9833851e-11 -5.4224427e-11  6.3303946      9.4955919      12.660789      761.05071    
        17   0             -427.2001      -0.015746567   -0.015746567   -0.015746566   -0.015746567   -4.9083149e-11  1.6360814e-11  6.5443254e-12  6.3303952      9.4955928      12.66079       761.05095    
        18   0             -427.2001       3.994392e-05   3.9944049e-05  3.9943684e-05  3.9944027e-05 -5.3290215e-11 -4.6745182e-13  2.8982013e-11  6.3303952      9.4955928      12.66079       761.05094    
        19   0             -427.2001       5.0227698e-10  3.0664839e-10  4.7913811e-10  7.2104443e-10 -9.3631975e-13  6.0768736e-12 -3.2721627e-11  6.3303952      9.4955928      12.66079       761.05094    
Loop time of 0.001404 on 1 procs for 19 steps with 48 atoms

0.0% CPU use with 1 MPI tasks x 1 OpenMP threads

Minimization stats:
  Stopping criterion = force tolerance
  Energy initial, next-to-last, final = 
     -427.184848841919  -427.200100306399  -427.200100306395
  Force two-norm initial, final = 11.621542 7.650787e-13
  Force max component initial, final = 6.7097004 3.4302347e-13
  Final line search alpha, max atom move = 1 3.4302347e-13
  Iterations, force evaluations = 19 23

MPI task timing breakdown:
Section |  min time  |  avg time  |  max time  |%varavg| %total
---------------------------------------------------------------
Pair    | 0.000478   | 0.000478   | 0.000478   |   0.0 | 34.05
Neigh   | 0          | 0          | 0          |   0.0 |  0.00
Comm    | 4.1e-05    | 4.1e-05    | 4.1e-05    |   0.0 |  2.92
Output  | 0.000173   | 0.000173   | 0.000173   |   0.0 | 12.32
Modify  | 0          | 0          | 0          |   0.0 |  0.00
Other   |            | 0.000712   |            |       | 50.71

Nlocal:             48 ave          48 max          48 min
Histogram: 1 0 0 0 0 0 0 0 0 0
Nghost:            498 ave         498 max         498 min
Histogram: 1 0 0 0 0 0 0 0 0 0
Neighs:           1200 ave        1200 max        1200 min
Histogram: 1 0 0 0 0 0 0 0 0 0

Total # of neighbors = 1200
Ave neighs/atom = 25
Neighbor list builds = 0
Dangerous builds = 0
Displacing atoms ...
System init for write_restart ...
OMP_NUM_THREADS environment is not set. Defaulting to 1 thread. (src/comm.cpp:98)
  using 1 OpenMP thread(s) per MPI task
Loaded 1 plugins from F:\Lammps\LAMMPS 64-bit 2Aug2023\plugins

The 'box' command has been removed and will be ignored

Reading restart file ...
  restart file = 2 Aug 2023, LAMMPS = 2 Aug 2023
  restoring atom style atomic from restart
  triclinic box = (0.0048023897 0.0072035845 0.0096047793) to (6.3351976 9.5027964 12.670395) with tilt (0 0 0)
  1 by 1 by 1 MPI processor grid
  pair style eam/alloy stores no restart info
  48 atoms
  read_restart CPU = 0.000 seconds
Changing box ...
  triclinic box = (0.0048023897 0.0072035845 0.0096047793) to (6.3351913 9.5027964 12.670395) with tilt (0 0 0)
  triclinic box = (0.0048023897 0.0072035845 0.0096047793) to (6.3351913 9.5027964 12.670395) with tilt (0 0 0)
  triclinic box = (0.0048023897 0.0072035845 0.0096047793) to (6.3351913 9.5027964 12.670395) with tilt (0 0 0)
Neighbor list info ...
  update: every = 1 steps, delay = 0 steps, check = yes
  max neighbors/atom: 2000, page size: 100000
  master list distance cutoff = 5.403
  ghost atom cutoff = 5.403
  1 neighbor lists, perpetual/occasional/extra = 1 0 0
  (1) pair eam/alloy, perpetual
      attributes: half, newton on
      pair build: half/nsq/newton
      stencil: none
      bin: none
Setting up cg style minimization ...
  Unit style    : metal
  Current step  : 19
Per MPI rank memory allocation (min/avg/max) = 4.428 | 4.428 | 4.428 Mbytes
   Step          Temp          PotEng         Press           Pxx            Pyy            Pzz            Pxy            Pxz            Pyz             Lx             Ly             Lz           Volume    
        19   0             -427.2001       3.1612089      5.4072999      2.0368833      2.0394434      6.6721424e-05  2.5330944e-05 -2.3569311e-05  6.3303889      9.4955928      12.66079       761.05018    
        20   0             -427.2001       3.1721409      5.4262735      2.0449715      2.0451775      1.4539795e-06 -1.2272903e-05  3.5895628e-06  6.3303889      9.4955928      12.66079       761.05018    
        21   0             -427.2001       3.1728982      5.4301319      2.0442983      2.0442645     -7.5685617e-07  5.3805044e-07  5.7177548e-07  6.3303889      9.4955928      12.66079       761.05018    
        22   0             -427.2001       3.172822       5.4300874      2.0441878      2.0441907     -4.5933069e-07  1.4518276e-07  7.9183145e-08  6.3303889      9.4955928      12.66079       761.05018    
        23   0             -427.2001       3.1728146      5.4300848      2.0441793      2.0441798     -2.8440523e-07  3.0912517e-08 -3.8639606e-09  6.3303889      9.4955928      12.66079       761.05018    
        24   0             -427.2001       3.1728126      5.430081       2.0441782      2.0441785     -9.4738644e-08 -1.2179749e-08  2.2143215e-09  6.3303889      9.4955928      12.66079       761.05018    
        25   0             -427.2001       3.1728115      5.43008        2.0441772      2.0441772     -2.79688e-08   -1.3196662e-09  6.1512046e-09  6.3303889      9.4955928      12.66079       761.05018    
        26   0             -427.2001       3.1728112      5.4300798      2.0441769      2.0441769     -1.0515936e-08 -6.8640392e-11  1.46967e-09    6.3303889      9.4955928      12.66079       761.05018    
        27   0             -427.2001       3.1728111      5.4300797      2.0441768      2.0441768     -1.443284e-09   5.0146743e-10  2.5709876e-11  6.3303889      9.4955928      12.66079       761.05018    
        28   0             -427.2001       3.172811       5.4300797      2.0441767      2.0441767     -7.1357687e-11  3.8518479e-11  1.0751403e-10  6.3303889      9.4955928      12.66079       761.05018    
        29   0             -427.2001       3.172811       5.4300797      2.0441767      2.0441767     -1.8700374e-12  2.4320073e-11  6.1236249e-11  6.3303889      9.4955928      12.66079       761.05018    
        30   0             -427.2001       3.172811       5.4300797      2.0441767      2.0441767     -1.3334259e-12 -9.8489092e-13 -3.5526374e-11  6.3303889      9.4955928      12.66079       761.05018    
        31   0             -427.2001       3.172811       5.4300797      2.0441767      2.0441767      2.2909042e-11  3.0510392e-11  2.3372614e-12  6.3303889      9.4955928      12.66079       761.05018    
        32   0             -427.2001       3.172811       5.4300797      2.0441767      2.0441767      2.9165553e-11 -3.9423255e-11 -1.1218855e-11  6.3303889      9.4955928      12.66079       761.05018    
        33   0             -427.2001       3.172811       5.4300797      2.0441767      2.0441767      1.0434594e-11  3.6631551e-11  1.9165544e-11  6.3303889      9.4955928      12.66079       761.05018    
        34   0             -427.2001       3.172811       5.4300797      2.0441767      2.0441767      4.6608051e-11 -3.6806846e-11 -7.3857461e-11  6.3303889      9.4955928      12.66079       761.05018    
        35   0             -427.2001       3.172811       5.4300797      2.0441767      2.0441767      4.4429879e-11  3.8926587e-11 -2.0100448e-11  6.3303889      9.4955928      12.66079       761.05018    
        36   0             -427.2001       3.172811       5.4300797      2.0441767      2.0441767      1.7172252e-11  1.0597792e-11 -1.224725e-10   6.3303889      9.4955928      12.66079       761.05018    
        37   0             -427.2001       3.172811       5.4300797      2.0441767      2.0441767      2.6561698e-11  1.7913602e-11 -4.6745229e-13  6.3303889      9.4955928      12.66079       761.05018    
        38   0             -427.2001       3.172811       5.4300797      2.0441767      2.0441767     -1.9874483e-11  4.1731757e-11  2.0100448e-11  6.3303889      9.4955928      12.66079       761.05018    
        39   0             -427.2001       3.172811       5.4300797      2.0441767      2.0441767      1.4563147e-11  6.89273e-11   -5.936644e-11   6.3303889      9.4955928      12.66079       761.05018    
        40   0             -427.2001       3.172811       5.4300797      2.0441767      2.0441767      4.6403998e-11  3.7938729e-11 -5.7496631e-11  6.3303889      9.4955928      12.66079       761.05018    
Loop time of 0.001095 on 1 procs for 21 steps with 48 atoms

0.0% CPU use with 1 MPI tasks x 1 OpenMP threads

Minimization stats:
  Stopping criterion = force tolerance
  Energy initial, next-to-last, final = 
     -427.200100266014  -427.200100305107  -427.200100305107
  Force two-norm initial, final = 0.0013212192 9.9678997e-11
  Force max component initial, final = 0.00030734431 2.0247931e-11
  Final line search alpha, max atom move = 1 2.0247931e-11
  Iterations, force evaluations = 21 42

MPI task timing breakdown:
Section |  min time  |  avg time  |  max time  |%varavg| %total
---------------------------------------------------------------
Pair    | 0.000841   | 0.000841   | 0.000841   |   0.0 | 76.80
Neigh   | 0          | 0          | 0          |   0.0 |  0.00
Comm    | 5.3e-05    | 5.3e-05    | 5.3e-05    |   0.0 |  4.84
Output  | 0.000145   | 0.000145   | 0.000145   |   0.0 | 13.24
Modify  | 0          | 0          | 0          |   0.0 |  0.00
Other   |            | 5.6e-05    |            |       |  5.11

Nlocal:             48 ave          48 max          48 min
Histogram: 1 0 0 0 0 0 0 0 0 0
Nghost:            498 ave         498 max         498 min
Histogram: 1 0 0 0 0 0 0 0 0 0
Neighs:           1200 ave        1200 max        1200 min
Histogram: 1 0 0 0 0 0 0 0 0 0

Total # of neighbors = 1200
Ave neighs/atom = 25
Neighbor list builds = 0
Dangerous builds = 0
OMP_NUM_THREADS environment is not set. Defaulting to 1 thread. (src/comm.cpp:98)
  using 1 OpenMP thread(s) per MPI task
Loaded 1 plugins from F:\Lammps\LAMMPS 64-bit 2Aug2023\plugins

The 'box' command has been removed and will be ignored

Reading restart file ...
  restart file = 2 Aug 2023, LAMMPS = 2 Aug 2023
  restoring atom style atomic from restart
  triclinic box = (0.0048023897 0.0072035845 0.0096047793) to (6.3351976 9.5027964 12.670395) with tilt (0 0 0)
  1 by 1 by 1 MPI processor grid
  pair style eam/alloy stores no restart info
  48 atoms
  read_restart CPU = 0.000 seconds
Changing box ...
  triclinic box = (0.0048023897 0.0072035845 0.0096047793) to (6.3352039 9.5027964 12.670395) with tilt (0 0 0)
  triclinic box = (0.0048023897 0.0072035845 0.0096047793) to (6.3352039 9.5027964 12.670395) with tilt (0 0 0)
  triclinic box = (0.0048023897 0.0072035845 0.0096047793) to (6.3352039 9.5027964 12.670395) with tilt (0 0 0)
Neighbor list info ...
  update: every = 1 steps, delay = 0 steps, check = yes
  max neighbors/atom: 2000, page size: 100000
  master list distance cutoff = 5.403
  ghost atom cutoff = 5.403
  1 neighbor lists, perpetual/occasional/extra = 1 0 0
  (1) pair eam/alloy, perpetual
      attributes: half, newton on
      pair build: half/nsq/newton
      stencil: none
      bin: none
Setting up cg style minimization ...
  Unit style    : metal
  Current step  : 19
Per MPI rank memory allocation (min/avg/max) = 4.428 | 4.428 | 4.428 Mbytes
   Step          Temp          PotEng         Press           Pxx            Pyy            Pzz            Pxy            Pxz            Pyz             Lx             Ly             Lz           Volume    
        19   0             -427.2001      -3.1750085     -5.4246659     -2.0514599     -2.0488998      6.6010841e-05  2.5025257e-05 -2.3272713e-05  6.3304016      9.4955928      12.66079       761.05171    
        20   0             -427.2001      -3.1708253     -5.4259451     -2.0433684     -2.0431624      1.4351062e-06 -1.2011831e-05  3.5221333e-06  6.3304016      9.4955928      12.66079       761.05171    
        21   0             -427.2001      -3.1717178     -5.4270394     -2.04404       -2.044074      -7.0581059e-07  4.8670842e-07  5.5221851e-07  6.3304016      9.4955928      12.66079       761.05171    
        22   0             -427.2001      -3.1717939     -5.4270836     -2.0441505     -2.0441475     -4.2116627e-07  1.3170374e-07  7.3093965e-08  6.3304016      9.4955928      12.66079       761.05171    
        23   0             -427.2001      -3.1718011     -5.4270861     -2.0441589     -2.0441584     -2.6090301e-07  2.8584236e-08 -3.3993062e-09  6.3304016      9.4955928      12.66079       761.05171    
        24   0             -427.2001      -3.1718032     -5.4270899     -2.0441599     -2.0441596     -8.7021241e-08 -1.0825328e-08  2.0161177e-09  6.3304016      9.4955928      12.66079       761.05171    
        25   0             -427.2001      -3.1718042     -5.4270909     -2.0441609     -2.044161      -2.5631744e-08 -1.1883113e-09  5.7412375e-09  6.3304016      9.4955928      12.66079       761.05171    
        26   0             -427.2001      -3.1718045     -5.4270911     -2.0441613     -2.0441612     -9.6011896e-09 -1.7572496e-10  1.2878285e-09  6.3304016      9.4955928      12.66079       761.05171    
        27   0             -427.2001      -3.1718046     -5.4270912     -2.0441614     -2.0441614     -1.3183959e-09  4.7606999e-10  2.1970214e-11  6.3304016      9.4955928      12.66079       761.05171    
        28   0             -427.2001      -3.1718047     -5.4270912     -2.0441614     -2.0441614     -5.0975935e-11 -1.4731793e-11  7.8531827e-11  6.3304016      9.4955928      12.66079       761.05171    
        29   0             -427.2001      -3.1718047     -5.4270912     -2.0441614     -2.0441614      3.6824576e-11  2.1632179e-11  5.6094162e-11  6.3304016      9.4955928      12.66079       761.05171    
        30   0             -427.2001      -3.1718047     -5.4270912     -2.0441614     -2.0441614      2.5799526e-11  1.8906444e-11  4.7680038e-11  6.3304016      9.4955928      12.66079       761.05171    
        31   0             -427.2001      -3.1718047     -5.4270912     -2.0441614     -2.0441614      3.6804262e-11  4.5797222e-11  7.4792216e-12  6.3304016      9.4955928      12.66079       761.05171    
        32   0             -427.2001      -3.1718047     -5.4270912     -2.0441614     -2.0441614     -3.4485493e-11 -1.8670436e-11  1.3556089e-11  6.3304016      9.4955928      12.66079       761.05171    
        33   0             -427.2001      -3.1718047     -5.4270912     -2.0441614     -2.0441614      1.9759634e-11  4.428257e-11   8.8815757e-12  6.3304016      9.4955928      12.66079       761.05171    
        34   0             -427.2001      -3.1718047     -5.4270912     -2.0441614     -2.0441614      6.9430905e-11  1.4292188e-11  3.3189046e-11  6.3304016      9.4955928      12.66079       761.05171    
        35   0             -427.2001      -3.1718047     -5.4270912     -2.0441614     -2.0441614     -6.5243929e-11 -3.5013202e-12 -3.7863559e-11  6.3304016      9.4955928      12.66079       761.05171    
        36   0             -427.2001      -3.1718047     -5.4270912     -2.0441614     -2.0441614     -2.6173167e-12  1.1919096e-12  3.7396108e-11  6.3304016      9.4955928      12.66079       761.05171    
        37   0             -427.2001      -3.1718047     -5.4270912     -2.0441614     -2.0441614      3.9490966e-11 -2.624575e-11  -5.6094162e-11  6.3304016      9.4955928      12.66079       761.05171    
        38   0             -427.2001      -3.1718047     -5.4270912     -2.0441614     -2.0441614     -2.2865858e-12 -9.0454804e-11 -1.8698054e-11  6.3304016      9.4955928      12.66079       761.05171    
        39   0             -427.2001      -3.1718047     -5.4270912     -2.0441614     -2.0441614     -6.6858325e-12  6.4280267e-11 -4.6745135e-12  6.3304016      9.4955928      12.66079       761.05171    
        40   0             -427.2001      -3.1718047     -5.4270912     -2.0441614     -2.0441614      3.0878722e-11 -2.1414202e-12 -6.8715349e-11  6.3304016      9.4955928      12.66079       761.05171    
Loop time of 0.001121 on 1 procs for 21 steps with 48 atoms

1393.8% CPU use with 1 MPI tasks x 1 OpenMP threads

Minimization stats:
  Stopping criterion = force tolerance
  Energy initial, next-to-last, final = 
     -427.200100266007  -427.200100305108  -427.200100305108
  Force two-norm initial, final = 0.0013215095 9.9840421e-11
  Force max component initial, final = 0.00030744583 2.1908861e-11
  Final line search alpha, max atom move = 1 2.1908861e-11
  Iterations, force evaluations = 21 42

MPI task timing breakdown:
Section |  min time  |  avg time  |  max time  |%varavg| %total
---------------------------------------------------------------
Pair    | 0.000865   | 0.000865   | 0.000865   |   0.0 | 77.16
Neigh   | 0          | 0          | 0          |   0.0 |  0.00
Comm    | 6.4e-05    | 6.4e-05    | 6.4e-05    |   0.0 |  5.71
Output  | 0.000141   | 0.000141   | 0.000141   |   0.0 | 12.58
Modify  | 0          | 0          | 0          |   0.0 |  0.00
Other   |            | 5.1e-05    |            |       |  4.55

Nlocal:             48 ave          48 max          48 min
Histogram: 1 0 0 0 0 0 0 0 0 0
Nghost:            498 ave         498 max         498 min
Histogram: 1 0 0 0 0 0 0 0 0 0
Neighs:           1200 ave        1200 max        1200 min
Histogram: 1 0 0 0 0 0 0 0 0 0

Total # of neighbors = 1200
Ave neighs/atom = 25
Neighbor list builds = 0
Dangerous builds = 0
OMP_NUM_THREADS environment is not set. Defaulting to 1 thread. (src/comm.cpp:98)
  using 1 OpenMP thread(s) per MPI task
Loaded 1 plugins from F:\Lammps\LAMMPS 64-bit 2Aug2023\plugins

The 'box' command has been removed and will be ignored

Reading restart file ...
  restart file = 2 Aug 2023, LAMMPS = 2 Aug 2023
  restoring atom style atomic from restart
  triclinic box = (0.0048023897 0.0072035845 0.0096047793) to (6.3351976 9.5027964 12.670395) with tilt (0 0 0)
  1 by 1 by 1 MPI processor grid
  pair style eam/alloy stores no restart info
  48 atoms
  read_restart CPU = 0.000 seconds
Changing box ...
  triclinic box = (0.0048023897 0.0072035845 0.0096047793) to (6.3351976 9.5027869 12.670395) with tilt (0 0 0)
  triclinic box = (0.0048023897 0.0072035845 0.0096047793) to (6.3351976 9.5027869 12.670395) with tilt (0 0 0)
Neighbor list info ...
  update: every = 1 steps, delay = 0 steps, check = yes
  max neighbors/atom: 2000, page size: 100000
  master list distance cutoff = 5.403
  ghost atom cutoff = 5.403
  1 neighbor lists, perpetual/occasional/extra = 1 0 0
  (1) pair eam/alloy, perpetual
      attributes: half, newton on
      pair build: half/nsq/newton
      stencil: none
      bin: none
Setting up cg style minimization ...
  Unit style    : metal
  Current step  : 19
Per MPI rank memory allocation (min/avg/max) = 4.428 | 4.428 | 4.428 Mbytes
   Step          Temp          PotEng         Press           Pxx            Pyy            Pzz            Pxy            Pxz            Pyz             Lx             Ly             Lz           Volume    
        19   0             -427.2001       3.1625681      2.0371684      5.4110924      2.0394434      6.6721802e-05  2.5329628e-05 -2.3570241e-05  6.3303952      9.4955833      12.66079       761.05018    
        20   0             -427.2001       3.1721769      2.0447251      5.4266281      2.0451776      1.4526236e-06 -1.2259536e-05  3.5900373e-06  6.3303952      9.4955833      12.66079       761.05018    
        21   0             -427.2001       3.1728701      2.0442289      5.430117       2.0442645     -7.5780348e-07  5.376043e-07   5.7184981e-07  6.3303952      9.4955833      12.66079       761.05018    
        22   0             -427.2001       3.172822       2.0441844      5.4300908      2.0441908     -4.5962015e-07  1.4503937e-07  7.9098069e-08  6.3303952      9.4955833      12.66079       761.05018    
        23   0             -427.2001       3.1728146      2.0441819      5.4300822      2.0441798     -2.8449518e-07  3.0906736e-08 -3.8055291e-09  6.3303952      9.4955833      12.66079       761.05018    
        24   0             -427.2001       3.1728126      2.044178       5.4300812      2.0441785     -9.4852271e-08 -1.2227323e-08  2.2063748e-09  6.3303952      9.4955833      12.66079       761.05018    
        25   0             -427.2001       3.1728115      2.044177       5.4300802      2.0441772     -2.7961868e-08 -1.2768329e-09  6.2577838e-09  6.3303952      9.4955833      12.66079       761.05018    
        26   0             -427.2001       3.1728112      2.0441768      5.4300799      2.0441769     -1.0490235e-08 -1.2415126e-10  1.385996e-09   6.3303952      9.4955833      12.66079       761.05018    
        27   0             -427.2001       3.1728111      2.0441767      5.4300798      2.0441768     -1.4647254e-09  4.2012982e-10 -3.4591469e-11  6.3303952      9.4955833      12.66079       761.05018    
        28   0             -427.2001       3.172811       2.0441767      5.4300797      2.0441767     -8.158914e-11   2.3221514e-11  1.3041919e-10  6.3303952      9.4955833      12.66079       761.05018    
        29   0             -427.2001       3.172811       2.0441767      5.4300797      2.0441767      7.9443151e-11  2.5784741e-11  2.9449494e-11  6.3303952      9.4955833      12.66079       761.05018    
        30   0             -427.2001       3.172811       2.0441767      5.4300797      2.0441767      3.0656242e-11 -1.0873287e-11  8.3673959e-11  6.3303952      9.4955833      12.66079       761.05018    
        31   0             -427.2001       3.172811       2.0441767      5.4300797      2.0441767      4.0659447e-11 -1.9745522e-11  1.1686307e-11  6.3303952      9.4955833      12.66079       761.05018    
        32   0             -427.2001       3.172811       2.0441767      5.4300797      2.0441767     -2.2066806e-11  5.0014199e-11  2.3840067e-11  6.3303952      9.4955833      12.66079       761.05018    
        33   0             -427.2001       3.172811       2.0441767      5.4300797      2.0441767     -3.6178251e-11  5.0037252e-11 -3.7396183e-11  6.3303952      9.4955833      12.66079       761.05018    
        34   0             -427.2001       3.172811       2.0441767      5.4300797      2.0441767     -2.1870741e-12 -1.4572505e-11  8.8815934e-12  6.3303952      9.4955833      12.66079       761.05018    
        35   0             -427.2001       3.172811       2.0441767      5.4300797      2.0441767     -1.0838137e-11  4.0239471e-11 -4.8615038e-11  6.3303952      9.4955833      12.66079       761.05018    
        36   0             -427.2001       3.172811       2.0441767      5.4300797      2.0441767      4.5921024e-11  8.5284935e-12 -4.7680133e-11  6.3303952      9.4955833      12.66079       761.05018    
        37   0             -427.2001       3.172811       2.0441767      5.4300797      2.0441767      1.484298e-12  -1.7296648e-12 -6.6378225e-11  6.3303952      9.4955833      12.66079       761.05018    
        38   0             -427.2001       3.172811       2.0441767      5.4300797      2.0441767     -2.5751873e-11  5.0780428e-11  3.0851851e-11  6.3303952      9.4955833      12.66079       761.05018    
        39   0             -427.2001       3.172811       2.0441767      5.4300797      2.0441767     -9.6354972e-12 -1.0461984e-11  2.8514589e-11  6.3303952      9.4955833      12.66079       761.05018    
        40   0             -427.2001       3.172811       2.0441767      5.4300797      2.0441767     -4.152291e-12   4.6056147e-11 -4.5342872e-11  6.3303952      9.4955833      12.66079       761.05018    
        41   0             -427.2001       3.172811       2.0441767      5.4300797      2.0441767     -2.9951184e-11  1.5620165e-11  1.5893378e-11  6.3303952      9.4955833      12.66079       761.05018    
Loop time of 0.001178 on 1 procs for 22 steps with 48 atoms

0.0% CPU use with 1 MPI tasks x 1 OpenMP threads

Minimization stats:
  Stopping criterion = force tolerance
  Energy initial, next-to-last, final = 
     -427.200100266013  -427.200100305107  -427.200100305108
  Force two-norm initial, final = 0.001321252 3.3297219e-11
  Force max component initial, final = 0.00030740391 9.6684882e-12
  Final line search alpha, max atom move = 1 9.6684882e-12
  Iterations, force evaluations = 22 44

MPI task timing breakdown:
Section |  min time  |  avg time  |  max time  |%varavg| %total
---------------------------------------------------------------
Pair    | 0.000904   | 0.000904   | 0.000904   |   0.0 | 76.74
Neigh   | 0          | 0          | 0          |   0.0 |  0.00
Comm    | 5.8e-05    | 5.8e-05    | 5.8e-05    |   0.0 |  4.92
Output  | 0.00015    | 0.00015    | 0.00015    |   0.0 | 12.73
Modify  | 0          | 0          | 0          |   0.0 |  0.00
Other   |            | 6.6e-05    |            |       |  5.60

Nlocal:             48 ave          48 max          48 min
Histogram: 1 0 0 0 0 0 0 0 0 0
Nghost:            498 ave         498 max         498 min
Histogram: 1 0 0 0 0 0 0 0 0 0
Neighs:           1200 ave        1200 max        1200 min
Histogram: 1 0 0 0 0 0 0 0 0 0

Total # of neighbors = 1200
Ave neighs/atom = 25
Neighbor list builds = 0
Dangerous builds = 0
OMP_NUM_THREADS environment is not set. Defaulting to 1 thread. (src/comm.cpp:98)
  using 1 OpenMP thread(s) per MPI task
Loaded 1 plugins from F:\Lammps\LAMMPS 64-bit 2Aug2023\plugins

The 'box' command has been removed and will be ignored

Reading restart file ...
  restart file = 2 Aug 2023, LAMMPS = 2 Aug 2023
  restoring atom style atomic from restart
  triclinic box = (0.0048023897 0.0072035845 0.0096047793) to (6.3351976 9.5027964 12.670395) with tilt (0 0 0)
  1 by 1 by 1 MPI processor grid
  pair style eam/alloy stores no restart info
  48 atoms
  read_restart CPU = 0.000 seconds
Changing box ...
  triclinic box = (0.0048023897 0.0072035845 0.0096047793) to (6.3351976 9.5028059 12.670395) with tilt (0 0 0)
  triclinic box = (0.0048023897 0.0072035845 0.0096047793) to (6.3351976 9.5028059 12.670395) with tilt (0 0 0)
Neighbor list info ...
  update: every = 1 steps, delay = 0 steps, check = yes
  max neighbors/atom: 2000, page size: 100000
  master list distance cutoff = 5.403
  ghost atom cutoff = 5.403
  1 neighbor lists, perpetual/occasional/extra = 1 0 0
  (1) pair eam/alloy, perpetual
      attributes: half, newton on
      pair build: half/nsq/newton
      stencil: none
      bin: none
Setting up cg style minimization ...
  Unit style    : metal
  Current step  : 19
Per MPI rank memory allocation (min/avg/max) = 4.428 | 4.428 | 4.428 Mbytes
   Step          Temp          PotEng         Press           Pxx            Pyy            Pzz            Pxy            Pxz            Pyz             Lx             Ly             Lz           Volume    
        19   0             -427.2001      -3.1756426     -2.0511748     -5.4268533     -2.0488998      6.6015325e-05  2.5025943e-05 -2.3273057e-05  6.3303952      9.4956023      12.66079       761.05171    
        20   0             -427.2001      -3.1709594     -2.043615      -5.4261008     -2.0431624      1.4325534e-06 -1.201588e-05   3.5275445e-06  6.3303952      9.4956023      12.66079       761.05171    
        21   0             -427.2001      -3.1717178     -2.0441097     -5.4269697     -2.044074      -7.0737091e-07  4.8683707e-07  5.4979197e-07  6.3303952      9.4956023      12.66079       761.05171    
        22   0             -427.2001      -3.1717939     -2.0441538     -5.4270802     -2.0441475     -4.2137309e-07  1.3162701e-07  7.3111261e-08  6.3303952      9.4956023      12.66079       761.05171    
        23   0             -427.2001      -3.1718011     -2.0441563     -5.4270887     -2.0441584     -2.609031e-07   2.8406233e-08 -3.2413077e-09  6.3303952      9.4956023      12.66079       761.05171    
        24   0             -427.2001      -3.1718032     -2.0441602     -5.4270897     -2.0441596     -8.6976964e-08 -1.0786132e-08  2.0025616e-09  6.3303952      9.4956023      12.66079       761.05171    
        25   0             -427.2001      -3.1718042     -2.0441611     -5.4270907     -2.044161      -2.5551065e-08 -1.2248369e-09  5.7117881e-09  6.3303952      9.4956023      12.66079       761.05171    
        26   0             -427.2001      -3.1718045     -2.0441613     -5.427091      -2.0441612     -9.5545317e-09 -1.2244601e-10  1.2826865e-09  6.3303952      9.4956023      12.66079       761.05171    
        27   0             -427.2001      -3.1718046     -2.0441614     -5.4270911     -2.0441614     -1.3341386e-09  4.1570736e-10 -1.0751381e-11  6.3303952      9.4956023      12.66079       761.05171    
        28   0             -427.2001      -3.1718047     -2.0441614     -5.4270912     -2.0441614     -7.7167362e-11 -9.3885139e-12  1.037742e-10   6.3303952      9.4956023      12.66079       761.05171    
        29   0             -427.2001      -3.1718047     -2.0441614     -5.4270912     -2.0441614      9.7634336e-11  5.3779502e-11  5.9833773e-11  6.3303952      9.4956023      12.66079       761.05171    
        30   0             -427.2001      -3.1718047     -2.0441614     -5.4270912     -2.0441614      5.2527107e-11 -3.4364978e-12  5.0952197e-11  6.3303952      9.4956023      12.66079       761.05171    
        31   0             -427.2001      -3.1718047     -2.0441614     -5.4270912     -2.0441614     -6.1010618e-12  9.0046012e-12  9.349027e-12   6.3303952      9.4956023      12.66079       761.05171    
        32   0             -427.2001      -3.1718047     -2.0441614     -5.4270912     -2.0441614     -3.5929845e-11  2.8661296e-11 -3.5526303e-11  6.3303952      9.4956023      12.66079       761.05171    
        33   0             -427.2001      -3.1718047     -2.0441614     -5.4270912     -2.0441614      1.9156832e-12 -9.0408926e-12 -1.9165505e-11  6.3303952      9.4956023      12.66079       761.05171    
        34   0             -427.2001      -3.1718047     -2.0441614     -5.4270912     -2.0441614     -3.4784498e-11  4.644225e-11   1.0751381e-11  6.3303952      9.4956023      12.66079       761.05171    
        35   0             -427.2001      -3.1718047     -2.0441614     -5.4270912     -2.0441614      3.0377262e-11 -7.8179412e-12  5.7496516e-11  6.3303952      9.4956023      12.66079       761.05171    
        36   0             -427.2001      -3.1718047     -2.0441614     -5.4270912     -2.0441614     -9.0160136e-12  1.860219e-13  -2.0567859e-11  6.3303952      9.4956023      12.66079       761.05171    
        37   0             -427.2001      -3.1718047     -2.0441614     -5.4270912     -2.0441614      3.6499779e-11  1.6294377e-11  1.72957e-11    6.3303952      9.4956023      12.66079       761.05171    
        38   0             -427.2001      -3.1718047     -2.0441614     -5.4270912     -2.0441614      1.4496013e-12  3.2801481e-12  1.8698054e-11  6.3303952      9.4956023      12.66079       761.05171    
        39   0             -427.2001      -3.1718047     -2.0441614     -5.4270912     -2.0441614     -2.4776976e-11 -1.2979079e-11  2.0100408e-11  6.3303952      9.4956023      12.66079       761.05171    
        40   0             -427.2001      -3.1718047     -2.0441614     -5.4270912     -2.0441614     -2.9756885e-11  1.105632e-12  -2.757963e-11   6.3303952      9.4956023      12.66079       761.05171    
Loop time of 0.001048 on 1 procs for 21 steps with 48 atoms

0.0% CPU use with 1 MPI tasks x 1 OpenMP threads

Minimization stats:
  Stopping criterion = force tolerance
  Energy initial, next-to-last, final = 
     -427.200100266006  -427.200100305108  -427.200100305108
  Force two-norm initial, final = 0.0013215012 9.9592893e-11
  Force max component initial, final = 0.00030740141 2.1143551e-11
  Final line search alpha, max atom move = 1 2.1143551e-11
  Iterations, force evaluations = 21 42

MPI task timing breakdown:
Section |  min time  |  avg time  |  max time  |%varavg| %total
---------------------------------------------------------------
Pair    | 0.000797   | 0.000797   | 0.000797   |   0.0 | 76.05
Neigh   | 0          | 0          | 0          |   0.0 |  0.00
Comm    | 5.3e-05    | 5.3e-05    | 5.3e-05    |   0.0 |  5.06
Output  | 0.000142   | 0.000142   | 0.000142   |   0.0 | 13.55
Modify  | 0          | 0          | 0          |   0.0 |  0.00
Other   |            | 5.6e-05    |            |       |  5.34

Nlocal:             48 ave          48 max          48 min
Histogram: 1 0 0 0 0 0 0 0 0 0
Nghost:            498 ave         498 max         498 min
Histogram: 1 0 0 0 0 0 0 0 0 0
Neighs:           1200 ave        1200 max        1200 min
Histogram: 1 0 0 0 0 0 0 0 0 0

Total # of neighbors = 1200
Ave neighs/atom = 25
Neighbor list builds = 0
Dangerous builds = 0
OMP_NUM_THREADS environment is not set. Defaulting to 1 thread. (src/comm.cpp:98)
  using 1 OpenMP thread(s) per MPI task
Loaded 1 plugins from F:\Lammps\LAMMPS 64-bit 2Aug2023\plugins

The 'box' command has been removed and will be ignored

Reading restart file ...
  restart file = 2 Aug 2023, LAMMPS = 2 Aug 2023
  restoring atom style atomic from restart
  triclinic box = (0.0048023897 0.0072035845 0.0096047793) to (6.3351976 9.5027964 12.670395) with tilt (0 0 0)
  1 by 1 by 1 MPI processor grid
  pair style eam/alloy stores no restart info
  48 atoms
  read_restart CPU = 0.000 seconds
Changing box ...
  triclinic box = (0.0048023897 0.0072035845 0.0096047793) to (6.3351976 9.5027964 12.670383) with tilt (0 0 0)
Neighbor list info ...
  update: every = 1 steps, delay = 0 steps, check = yes
  max neighbors/atom: 2000, page size: 100000
  master list distance cutoff = 5.403
  ghost atom cutoff = 5.403
  1 neighbor lists, perpetual/occasional/extra = 1 0 0
  (1) pair eam/alloy, perpetual
      attributes: half, newton on
      pair build: half/nsq/newton
      stencil: none
      bin: none
Setting up cg style minimization ...
  Unit style    : metal
  Current step  : 19
Per MPI rank memory allocation (min/avg/max) = 4.428 | 4.428 | 4.428 Mbytes
   Step          Temp          PotEng         Press           Pxx            Pyy            Pzz            Pxy            Pxz            Pyz             Lx             Ly             Lz           Volume    
        19   0             -427.2001       3.1623674      2.0371684      2.0368833      5.4130504      6.6717006e-05  2.5337818e-05 -2.3566695e-05  6.3303952      9.4955928      12.660778      761.05018    
        20   0             -427.2001       3.1719466      2.0447252      2.0449717      5.4261429      1.459663e-06  -1.2272881e-05  3.5991867e-06  6.3303952      9.4955928      12.660778      761.05018    
        21   0             -427.2001       3.1728931      2.0442289      2.0442986      5.4301518     -7.5727577e-07  5.3769478e-07  5.7258371e-07  6.3303952      9.4955928      12.660778      761.05018    
        22   0             -427.2001       3.172822       2.0441845      2.0441878      5.4300938     -4.5935108e-07  1.4487476e-07  7.9171926e-08  6.3303952      9.4955928      12.660778      761.05018    
        23   0             -427.2001       3.1728146      2.0441819      2.0441793      5.4300828     -2.8445947e-07  3.1029239e-08 -3.7396183e-09  6.3303952      9.4955928      12.660778      761.05018    
        24   0             -427.2001       3.1728126      2.044178       2.0441782      5.4300815     -9.4801706e-08 -1.2298386e-08  2.30267e-09    6.3303952      9.4955928      12.660778      761.05018    
        25   0             -427.2001       3.1728115      2.044177       2.0441772      5.4300802     -2.796987e-08  -1.2691241e-09  6.2096362e-09  6.3303952      9.4955928      12.660778      761.05018    
        26   0             -427.2001       3.1728112      2.0441768      2.0441769      5.4300799     -1.051085e-08  -7.7759136e-11  1.3888007e-09  6.3303952      9.4955928      12.660778      761.05018    
        27   0             -427.2001       3.1728111      2.0441767      2.0441768      5.4300797     -1.4375694e-09  4.5186339e-10 -7.2455104e-11  6.3303952      9.4955928      12.660778      761.05018    
        28   0             -427.2001       3.172811       2.0441767      2.0441767      5.4300797     -1.1068325e-10  1.4249078e-11  6.3106059e-11  6.3303952      9.4955928      12.660778      761.05018    
        29   0             -427.2001       3.172811       2.0441767      2.0441767      5.4300797      1.4064197e-11  6.0825859e-12  2.1970257e-11  6.3303952      9.4955928      12.660778      761.05018    
        30   0             -427.2001       3.172811       2.0441767      2.0441767      5.4300797      2.2133227e-11  2.0680655e-11 -1.4023569e-12  6.3303952      9.4955928      12.660778      761.05018    
        31   0             -427.2001       3.172811       2.0441767      2.0441767      5.4300797      1.5153169e-11 -1.7838052e-11 -7.6194723e-11  6.3303952      9.4955928      12.660778      761.05018    
        32   0             -427.2001       3.172811       2.0441767      2.0441767      5.4300797     -1.717522e-11   2.4726583e-11 -2.8514589e-11  6.3303952      9.4955928      12.660778      761.05018    
        33   0             -427.2001       3.172811       2.0441767      2.0441767      5.4300797      2.107872e-11  -2.8606802e-11 -3.272166e-12   6.3303952      9.4955928      12.660778      761.05018    
        34   0             -427.2001       3.172811       2.0441767      2.0441767      5.4300797      4.6973477e-13 -4.4710624e-11 -4.8147585e-11  6.3303952      9.4955928      12.660778      761.05018    
        35   0             -427.2001       3.172811       2.0441767      2.0441767      5.4300797     -3.8067689e-11 -3.9836156e-12  5.2822108e-11  6.3303952      9.4955928      12.660778      761.05018    
        36   0             -427.2001       3.172811       2.0441767      2.0441767      5.4300797      1.1254462e-11  1.2844895e-11 -1.8698091e-11  6.3303952      9.4955928      12.660778      761.05018    
        37   0             -427.2001       3.172811       2.0441767      2.0441767      5.4300797      4.9281066e-12 -2.1253558e-11 -2.4774971e-11  6.3303952      9.4955928      12.660778      761.05018    
        38   0             -427.2001       3.172811       2.0441767      2.0441767      5.4300797     -3.7880069e-12 -3.6637029e-11  1.2153759e-11  6.3303952      9.4955928      12.660778      761.05018    
        39   0             -427.2001       3.172811       2.0441767      2.0441767      5.4300797      1.1597747e-11 -1.0862559e-11  3.3189112e-11  6.3303952      9.4955928      12.660778      761.05018    
        40   0             -427.2001       3.172811       2.0441767      2.0441767      5.4300797     -9.7708484e-12 -9.2248787e-12  4.9549942e-11  6.3303952      9.4955928      12.660778      761.05018    
        41   0             -427.2001       3.172811       2.0441767      2.0441767      5.4300797      1.8337916e-11 -3.3274934e-11 -1.7295735e-11  6.3303952      9.4955928      12.660778      761.05018    
Loop time of 0.001207 on 1 procs for 22 steps with 48 atoms

0.0% CPU use with 1 MPI tasks x 1 OpenMP threads

Minimization stats:
  Stopping criterion = force tolerance
  Energy initial, next-to-last, final = 
     -427.200100266012  -427.200100305107  -427.200100305107
  Force two-norm initial, final = 0.0013213095 3.3080983e-11
  Force max component initial, final = 0.00030740398 9.6663788e-12
  Final line search alpha, max atom move = 1 9.6663788e-12
  Iterations, force evaluations = 22 44

MPI task timing breakdown:
Section |  min time  |  avg time  |  max time  |%varavg| %total
---------------------------------------------------------------
Pair    | 0.00091    | 0.00091    | 0.00091    |   0.0 | 75.39
Neigh   | 0          | 0          | 0          |   0.0 |  0.00
Comm    | 6.7e-05    | 6.7e-05    | 6.7e-05    |   0.0 |  5.55
Output  | 0.000175   | 0.000175   | 0.000175   |   0.0 | 14.50
Modify  | 0          | 0          | 0          |   0.0 |  0.00
Other   |            | 5.5e-05    |            |       |  4.56

Nlocal:             48 ave          48 max          48 min
Histogram: 1 0 0 0 0 0 0 0 0 0
Nghost:            498 ave         498 max         498 min
Histogram: 1 0 0 0 0 0 0 0 0 0
Neighs:           1200 ave        1200 max        1200 min
Histogram: 1 0 0 0 0 0 0 0 0 0

Total # of neighbors = 1200
Ave neighs/atom = 25
Neighbor list builds = 0
Dangerous builds = 0
OMP_NUM_THREADS environment is not set. Defaulting to 1 thread. (src/comm.cpp:98)
  using 1 OpenMP thread(s) per MPI task
Loaded 1 plugins from F:\Lammps\LAMMPS 64-bit 2Aug2023\plugins

The 'box' command has been removed and will be ignored

Reading restart file ...
  restart file = 2 Aug 2023, LAMMPS = 2 Aug 2023
  restoring atom style atomic from restart
  triclinic box = (0.0048023897 0.0072035845 0.0096047793) to (6.3351976 9.5027964 12.670395) with tilt (0 0 0)
  1 by 1 by 1 MPI processor grid
  pair style eam/alloy stores no restart info
  48 atoms
  read_restart CPU = 0.001 seconds
Changing box ...
  triclinic box = (0.0048023897 0.0072035845 0.0096047793) to (6.3351976 9.5027964 12.670408) with tilt (0 0 0)
Neighbor list info ...
  update: every = 1 steps, delay = 0 steps, check = yes
  max neighbors/atom: 2000, page size: 100000
  master list distance cutoff = 5.403
  ghost atom cutoff = 5.403
  1 neighbor lists, perpetual/occasional/extra = 1 0 0
  (1) pair eam/alloy, perpetual
      attributes: half, newton on
      pair build: half/nsq/newton
      stencil: none
      bin: none
Setting up cg style minimization ...
  Unit style    : metal
  Current step  : 19
Per MPI rank memory allocation (min/avg/max) = 4.428 | 4.428 | 4.428 Mbytes
   Step          Temp          PotEng         Press           Pxx            Pyy            Pzz            Pxy            Pxz            Pyz             Lx             Ly             Lz           Volume    
        19   0             -427.2001      -3.1759365     -2.0511748     -2.0514599     -5.4251748      6.6015769e-05  2.5023865e-05 -2.3275615e-05  6.3303952      9.4955928      12.660803      761.05171    
        20   0             -427.2001      -3.1709854     -2.0436149     -2.0433684     -5.425973       1.4310521e-06 -1.2008892e-05  3.5241433e-06  6.3303952      9.4955928      12.660803      761.05171    
        21   0             -427.2001      -3.1717178     -2.0441097     -2.0440401     -5.4270037     -7.0636619e-07  4.8727366e-07  5.5126865e-07  6.3303952      9.4955928      12.660803      761.05171    
        22   0             -427.2001      -3.1717939     -2.0441538     -2.0441505     -5.4270773     -4.2130018e-07  1.3157672e-07  7.30547e-08    6.3303952      9.4955928      12.660803      761.05171    
        23   0             -427.2001      -3.1718011     -2.0441563     -2.0441589     -5.4270882     -2.6084333e-07  2.8292701e-08 -3.3749988e-09  6.3303952      9.4955928      12.660803      761.05171    
        24   0             -427.2001      -3.1718032     -2.0441602     -2.0441599     -5.4270894     -8.697327e-08  -1.0863161e-08  2.0352832e-09  6.3303952      9.4955928      12.660803      761.05171    
        25   0             -427.2001      -3.1718042     -2.0441611     -2.0441609     -5.4270907     -2.54977e-08   -1.2952716e-09  5.7117881e-09  6.3303952      9.4955928      12.660803      761.05171    
        26   0             -427.2001      -3.1718045     -2.0441613     -2.0441613     -5.427091      -9.5732165e-09 -1.7392591e-10  1.3270944e-09  6.3303952      9.4955928      12.660803      761.05171    
        27   0             -427.2001      -3.1718046     -2.0441614     -2.0441614     -5.4270912     -1.2991461e-09  3.9451456e-10 -1.8698054e-12  6.3303952      9.4955928      12.660803      761.05171    
        28   0             -427.2001      -3.1718047     -2.0441614     -2.0441614     -5.4270912     -9.5760194e-11 -2.9926473e-11  1.1686284e-10  6.3303952      9.4955928      12.660803      761.05171    
        29   0             -427.2001      -3.1718047     -2.0441614     -2.0441614     -5.4270912      5.5333184e-11  2.7442681e-11  5.1419649e-11  6.3303952      9.4955928      12.660803      761.05171    
        30   0             -427.2001      -3.1718047     -2.0441614     -2.0441614     -5.4270912      1.1544085e-11 -1.2892345e-11  6.1703578e-11  6.3303952      9.4955928      12.660803      761.05171    
        31   0             -427.2001      -3.1718047     -2.0441614     -2.0441614     -5.4270912      5.4293288e-12  1.5651632e-11 -1.8698054e-11  6.3303952      9.4955928      12.660803      761.05171    
        32   0             -427.2001      -3.1718047     -2.0441614     -2.0441614     -5.4270912     -8.8982378e-12 -6.4054073e-11  8.8815757e-12  6.3303952      9.4955928      12.660803      761.05171    
        33   0             -427.2001      -3.1718047     -2.0441614     -2.0441614     -5.4270912     -3.4353794e-11  7.2440352e-11  4.6745135e-12  6.3303952      9.4955928      12.660803      761.05171    
        34   0             -427.2001      -3.1718047     -2.0441614     -2.0441614     -5.4270912      5.9432513e-11 -9.7030164e-11  7.4792216e-12  6.3303952      9.4955928      12.660803      761.05171    
        35   0             -427.2001      -3.1718047     -2.0441614     -2.0441614     -5.4270912     -1.3428727e-11  2.4595747e-11 -7.2454959e-11  6.3303952      9.4955928      12.660803      761.05171    
        36   0             -427.2001      -3.1718047     -2.0441614     -2.0441614     -5.4270912     -2.1992354e-11 -3.7841191e-12  1.4490992e-11  6.3303952      9.4955928      12.660803      761.05171    
        37   0             -427.2001      -3.1718047     -2.0441614     -2.0441614     -5.4270912      2.0526547e-11  3.4415877e-11 -1.6360797e-11  6.3303952      9.4955928      12.660803      761.05171    
        38   0             -427.2001      -3.1718047     -2.0441614     -2.0441614     -5.4270912      9.0379254e-12  6.1686232e-12  2.1035311e-11  6.3303952      9.4955928      12.660803      761.05171    
        39   0             -427.2001      -3.1718047     -2.0441614     -2.0441614     -5.4270912      3.1653395e-12  4.7272387e-12  2.8047081e-12  6.3303952      9.4955928      12.660803      761.05171    
        40   0             -427.2001      -3.1718047     -2.0441614     -2.0441614     -5.4270912      1.1646112e-11  1.6504365e-11  1.4023541e-12  6.3303952      9.4955928      12.660803      761.05171    
Loop time of 0.001043 on 1 procs for 21 steps with 48 atoms

0.0% CPU use with 1 MPI tasks x 1 OpenMP threads

Minimization stats:
  Stopping criterion = force tolerance
  Energy initial, next-to-last, final = 
     -427.200100266007  -427.200100305108  -427.200100305108
  Force two-norm initial, final = 0.0013214744 9.9650289e-11
  Force max component initial, final = 0.00030740134 2.1497228e-11
  Final line search alpha, max atom move = 1 2.1497228e-11
  Iterations, force evaluations = 21 42

MPI task timing breakdown:
Section |  min time  |  avg time  |  max time  |%varavg| %total
---------------------------------------------------------------
Pair    | 0.000796   | 0.000796   | 0.000796   |   0.0 | 76.32
Neigh   | 0          | 0          | 0          |   0.0 |  0.00
Comm    | 5.5e-05    | 5.5e-05    | 5.5e-05    |   0.0 |  5.27
Output  | 0.000136   | 0.000136   | 0.000136   |   0.0 | 13.04
Modify  | 0          | 0          | 0          |   0.0 |  0.00
Other   |            | 5.6e-05    |            |       |  5.37

Nlocal:             48 ave          48 max          48 min
Histogram: 1 0 0 0 0 0 0 0 0 0
Nghost:            498 ave         498 max         498 min
Histogram: 1 0 0 0 0 0 0 0 0 0
Neighs:           1200 ave        1200 max        1200 min
Histogram: 1 0 0 0 0 0 0 0 0 0

Total # of neighbors = 1200
Ave neighs/atom = 25
Neighbor list builds = 0
Dangerous builds = 0
OMP_NUM_THREADS environment is not set. Defaulting to 1 thread. (src/comm.cpp:98)
  using 1 OpenMP thread(s) per MPI task
Loaded 1 plugins from F:\Lammps\LAMMPS 64-bit 2Aug2023\plugins

The 'box' command has been removed and will be ignored

Reading restart file ...
  restart file = 2 Aug 2023, LAMMPS = 2 Aug 2023
  restoring atom style atomic from restart
  triclinic box = (0.0048023897 0.0072035845 0.0096047793) to (6.3351976 9.5027964 12.670395) with tilt (0 0 0)
  1 by 1 by 1 MPI processor grid
  pair style eam/alloy stores no restart info
  48 atoms
  read_restart CPU = 0.000 seconds
Changing box ...
  triclinic box = (0.0048023897 0.0072035845 0.0096047793) to (6.3351976 9.5027964 12.670395) with tilt (0 0 -1.266079e-05)
Neighbor list info ...
  update: every = 1 steps, delay = 0 steps, check = yes
  max neighbors/atom: 2000, page size: 100000
  master list distance cutoff = 5.403
  ghost atom cutoff = 5.403
  1 neighbor lists, perpetual/occasional/extra = 1 0 0
  (1) pair eam/alloy, perpetual
      attributes: half, newton on
      pair build: half/nsq/newton
      stencil: none
      bin: none
Setting up cg style minimization ...
  Unit style    : metal
  Current step  : 19
Per MPI rank memory allocation (min/avg/max) = 4.428 | 4.428 | 4.428 Mbytes
   Step          Temp          PotEng         Press           Pxx            Pyy            Pzz            Pxy            Pxz            Pyz             Lx             Ly             Lz           Volume    
        19   0             -427.2001      -0.0063438302  -0.0070055334  -0.0072937984  -0.0047321587   6.6518224e-05  2.5528372e-05  1.6061162      6.3303952      9.4955928      12.66079       761.05094    
        20   0             -427.2001       0.00078433154  0.0005529435   0.00079627     0.0010037811   1.3112114e-06 -1.2131503e-05  1.6061416      6.3303952      9.4955928      12.66079       761.05094    
        21   0             -427.2001       9.0922475e-05  5.7442199e-05  0.00012386709  9.1458138e-05 -7.0720402e-07  4.8676212e-07  1.6061379      6.3303952      9.4955928      12.66079       761.05094    
        22   0             -427.2001       1.474119e-05   1.3163316e-05  1.3288116e-05  1.7772137e-05 -4.337642e-07   1.1909973e-07  1.6061373      6.3303952      9.4955928      12.66079       761.05094    
        23   0             -427.2001       7.4050895e-06  1.0612781e-05  4.7804297e-06  6.8220581e-06 -2.7144227e-07  1.7795829e-08  1.6061371      6.3303952      9.4955928      12.66079       761.05094    
        24   0             -427.2001       5.3589748e-06  6.7351652e-06  3.7633518e-06  5.5784074e-06 -9.1565163e-08 -1.5408927e-08  1.6061371      6.3303952      9.4955928      12.66079       761.05094    
        25   0             -427.2001       4.2826312e-06  5.8078539e-06  2.7884015e-06  4.2516383e-06 -2.6857954e-08 -2.4675921e-09  1.6061371      6.3303952      9.4955928      12.66079       761.05094    
        26   0             -427.2001       3.9902623e-06  5.56432e-06    2.4358568e-06  3.97061e-06   -1.0056482e-08 -5.9220599e-10  1.6061371      6.3303952      9.4955928      12.66079       761.05094    
        27   0             -427.2001       3.8868822e-06  5.4948875e-06  2.3362545e-06  3.8295046e-06 -1.3987487e-09  3.5796264e-10  1.6061371      6.3303952      9.4955928      12.66079       761.05094    
        28   0             -427.2001       3.8447006e-06  5.4744826e-06  2.2739245e-06  3.7856946e-06 -8.7309637e-11  1.2830046e-11  1.6061371      6.3303952      9.4955928      12.66079       761.05094    
        29   0             -427.2001       3.8315607e-06  5.4642614e-06  2.2538339e-06  3.7765869e-06  5.596115e-11   1.0129599e-10  1.6061371      6.3303952      9.4955928      12.66079       761.05094    
        30   0             -427.2001       3.8285714e-06  5.4629391e-06  2.2512461e-06  3.7715289e-06  4.7390439e-11  5.3890484e-11  1.6061371      6.3303952      9.4955928      12.66079       761.05094    
        31   0             -427.2001       3.8279956e-06  5.4626026e-06  2.2504327e-06  3.7709516e-06  1.169748e-11  -1.6354879e-11  1.6061371      6.3303952      9.4955928      12.66079       761.05094    
        32   0             -427.2001       3.8278225e-06  5.462504e-06   2.250228e-06   3.7707355e-06  4.4549436e-11  1.7024787e-11  1.6061371      6.3303952      9.4955928      12.66079       761.05094    
        33   0             -427.2001       3.8278617e-06  5.4626055e-06  2.2502705e-06  3.7707092e-06 -5.808591e-11  -2.4996347e-11  1.6061371      6.3303952      9.4955928      12.66079       761.05094    
        34   0             -427.2001       3.8278429e-06  5.4625433e-06  2.2502107e-06  3.7707748e-06  2.4415684e-12  6.3440151e-11  1.6061371      6.3303952      9.4955928      12.66079       761.05094    
        35   0             -427.2001       3.8277962e-06  5.4625151e-06  2.2502462e-06  3.7706275e-06 -5.7202819e-11  4.3450879e-11  1.6061371      6.3303952      9.4955928      12.66079       761.05094    
        36   0             -427.2001       3.8277573e-06  5.4624702e-06  2.2501621e-06  3.7706396e-06  8.3059889e-11 -3.9302016e-12  1.6061371      6.3303952      9.4955928      12.66079       761.05094    
        37   0             -427.2001       3.8277468e-06  5.4625146e-06  2.250192e-06   3.7705339e-06  3.2282022e-11  9.8787999e-12  1.6061371      6.3303952      9.4955928      12.66079       761.05094    
        38   0             -427.2001       3.8278541e-06  5.4625481e-06  2.2502761e-06  3.770738e-06   5.4237878e-11 -1.9089518e-11  1.6061371      6.3303952      9.4955928      12.66079       761.05094    
        39   0             -427.2001       3.8278485e-06  5.4625523e-06  2.2501985e-06  3.7707947e-06 -1.7204875e-11  5.4299505e-11  1.6061371      6.3303952      9.4955928      12.66079       761.05094    
        40   0             -427.2001       3.8277978e-06  5.4625014e-06  2.2501859e-06  3.7707061e-06  1.2852186e-11  1.5164794e-12  1.6061371      6.3303952      9.4955928      12.66079       761.05094    
        41   0             -427.2001       3.8278226e-06  5.4625397e-06  2.250257e-06   3.7706711e-06 -1.7665935e-11  3.284374e-11   1.6061371      6.3303952      9.4955928      12.66079       761.05094    
Loop time of 0.001257 on 1 procs for 22 steps with 48 atoms

0.0% CPU use with 1 MPI tasks x 1 OpenMP threads

Minimization stats:
  Stopping criterion = force tolerance
  Energy initial, next-to-last, final = 
     -427.200100266915  -427.200100306015  -427.200100306015
  Force two-norm initial, final = 0.001321417 3.3704038e-11
  Force max component initial, final = 0.00030740282 9.7211128e-12
  Final line search alpha, max atom move = 1 9.7211128e-12
  Iterations, force evaluations = 22 44

MPI task timing breakdown:
Section |  min time  |  avg time  |  max time  |%varavg| %total
---------------------------------------------------------------
Pair    | 0.0009     | 0.0009     | 0.0009     |   0.0 | 71.60
Neigh   | 0          | 0          | 0          |   0.0 |  0.00
Comm    | 8.5e-05    | 8.5e-05    | 8.5e-05    |   0.0 |  6.76
Output  | 0.000205   | 0.000205   | 0.000205   |   0.0 | 16.31
Modify  | 0          | 0          | 0          |   0.0 |  0.00
Other   |            | 6.7e-05    |            |       |  5.33

Nlocal:             48 ave          48 max          48 min
Histogram: 1 0 0 0 0 0 0 0 0 0
Nghost:            498 ave         498 max         498 min
Histogram: 1 0 0 0 0 0 0 0 0 0
Neighs:           1200 ave        1200 max        1200 min
Histogram: 1 0 0 0 0 0 0 0 0 0

Total # of neighbors = 1200
Ave neighs/atom = 25
Neighbor list builds = 0
Dangerous builds = 0
OMP_NUM_THREADS environment is not set. Defaulting to 1 thread. (src/comm.cpp:98)
  using 1 OpenMP thread(s) per MPI task
Loaded 1 plugins from F:\Lammps\LAMMPS 64-bit 2Aug2023\plugins

The 'box' command has been removed and will be ignored

Reading restart file ...
  restart file = 2 Aug 2023, LAMMPS = 2 Aug 2023
  restoring atom style atomic from restart
  triclinic box = (0.0048023897 0.0072035845 0.0096047793) to (6.3351976 9.5027964 12.670395) with tilt (0 0 0)
  1 by 1 by 1 MPI processor grid
  pair style eam/alloy stores no restart info
  48 atoms
  read_restart CPU = 0.000 seconds
Changing box ...
  triclinic box = (0.0048023897 0.0072035845 0.0096047793) to (6.3351976 9.5027964 12.670395) with tilt (0 0 1.266079e-05)
Neighbor list info ...
  update: every = 1 steps, delay = 0 steps, check = yes
  max neighbors/atom: 2000, page size: 100000
  master list distance cutoff = 5.403
  ghost atom cutoff = 5.403
  1 neighbor lists, perpetual/occasional/extra = 1 0 0
  (1) pair eam/alloy, perpetual
      attributes: half, newton on
      pair build: half/nsq/newton
      stencil: none
      bin: none
Setting up cg style minimization ...
  Unit style    : metal
  Current step  : 19
Per MPI rank memory allocation (min/avg/max) = 4.428 | 4.428 | 4.428 Mbytes
   Step          Temp          PotEng         Press           Pxx            Pyy            Pzz            Pxy            Pxz            Pyz             Lx             Ly             Lz           Volume    
        19   0             -427.2001      -0.0063435376  -0.0070052368  -0.0072935041  -0.004731872    6.6214649e-05  2.4827288e-05 -1.6061631      6.3303952      9.4955928      12.66079       761.05094    
        20   0             -427.2001       0.00078426069  0.00055289042  0.00079618926  0.0010037024   1.5756535e-06 -1.2150102e-05 -1.6061344      6.3303952      9.4955928      12.66079       761.05094    
        21   0             -427.2001       9.0899922e-05  5.7419563e-05  0.0001238445   9.1435701e-05 -7.5592523e-07  5.3720958e-07 -1.6061368      6.3303952      9.4955928      12.66079       761.05094    
        22   0             -427.2001       1.4735115e-05  1.3157288e-05  1.328211e-05   1.7765946e-05 -4.4708755e-07  1.5731201e-07 -1.6061371      6.3303952      9.4955928      12.66079       761.05094    
        23   0             -427.2001       7.4055905e-06  1.061324e-05   4.7809378e-06  6.8225937e-06 -2.7410143e-07  4.1630223e-08 -1.6061371      6.3303952      9.4955928      12.66079       761.05094    
        24   0             -427.2001       5.3586539e-06  6.7348127e-06  3.7630012e-06  5.5781478e-06 -9.0275193e-08 -7.6353537e-09 -1.6061371      6.3303952      9.4955928      12.66079       761.05094    
        25   0             -427.2001       4.2819914e-06  5.8073122e-06  2.78777e-06    4.2508919e-06 -2.6792361e-08 -1.0049415e-10 -1.6061371      6.3303952      9.4955928      12.66079       761.05094    
        26   0             -427.2001       3.990143e-06   5.564339e-06   2.4356886e-06  3.9704015e-06 -1.0081074e-08  3.0453573e-10 -1.6061371      6.3303952      9.4955928      12.66079       761.05094    
        27   0             -427.2001       3.8868646e-06  5.4949784e-06  2.3362522e-06  3.8293633e-06 -1.4315511e-09  5.036063e-10  -1.6061371      6.3303952      9.4955928      12.66079       761.05094    
        28   0             -427.2001       3.8446709e-06  5.4744163e-06  2.273896e-06   3.7857003e-06 -6.5914587e-11 -8.7745363e-12 -1.6061371      6.3303952      9.4955928      12.66079       761.05094    
        29   0             -427.2001       3.8316425e-06  5.464401e-06   2.2538909e-06  3.7766355e-06  9.410709e-11   4.2898976e-11 -1.6061371      6.3303952      9.4955928      12.66079       761.05094    
        30   0             -427.2001       3.8285931e-06  5.4630275e-06  2.2512545e-06  3.7714974e-06  9.1002461e-13  2.1132337e-11 -1.6061371      6.3303952      9.4955928      12.66079       761.05094    
        31   0             -427.2001       3.8278657e-06  5.4624991e-06  2.2503233e-06  3.7707747e-06 -1.7874554e-11  5.7228611e-11 -1.6061371      6.3303952      9.4955928      12.66079       761.05094    
        32   0             -427.2001       3.8278019e-06  5.4624726e-06  2.2502009e-06  3.7707323e-06 -1.3351593e-11  3.7814296e-11 -1.6061371      6.3303952      9.4955928      12.66079       761.05094    
        33   0             -427.2001       3.8277922e-06  5.4625006e-06  2.2502298e-06  3.7706461e-06 -2.3533049e-11  3.2527845e-11 -1.6061371      6.3303952      9.4955928      12.66079       761.05094    
        34   0             -427.2001       3.8278045e-06  5.46244e-06    2.2502284e-06  3.7707451e-06  7.1813655e-12 -8.6280011e-12 -1.6061371      6.3303952      9.4955928      12.66079       761.05094    
        35   0             -427.2001       3.8276784e-06  5.4622872e-06  2.25017e-06    3.7705781e-06  1.3826577e-11 -3.086483e-11  -1.6061371      6.3303952      9.4955928      12.66079       761.05094    
        36   0             -427.2001       3.8277721e-06  5.4624507e-06  2.2501892e-06  3.7706763e-06 -1.3820642e-11 -2.066169e-11  -1.6061371      6.3303952      9.4955928      12.66079       761.05094    
        37   0             -427.2001       3.8277156e-06  5.4624753e-06  2.2501677e-06  3.7705039e-06 -1.0779466e-11 -2.8429424e-11 -1.6061371      6.3303952      9.4955928      12.66079       761.05094    
        38   0             -427.2001       3.8277392e-06  5.4624461e-06  2.2501434e-06  3.7706281e-06 -4.0105449e-12  4.0614442e-12 -1.6061371      6.3303952      9.4955928      12.66079       761.05094    
        39   0             -427.2001       3.8277889e-06  5.4624852e-06  2.2502546e-06  3.7706269e-06 -1.0243768e-12 -1.1943987e-11 -1.6061371      6.3303952      9.4955928      12.66079       761.05094    
        40   0             -427.2001       3.8278199e-06  5.4625127e-06  2.250206e-06   3.7707411e-06  1.3128138e-11  1.7556148e-11 -1.6061371      6.3303952      9.4955928      12.66079       761.05094    
        41   0             -427.2001       3.8279078e-06  5.4626467e-06  2.2503243e-06  3.7707524e-06 -5.1037841e-11 -4.6018669e-11 -1.6061371      6.3303952      9.4955928      12.66079       761.05094    
Loop time of 0.001135 on 1 procs for 22 steps with 48 atoms

0.0% CPU use with 1 MPI tasks x 1 OpenMP threads

Minimization stats:
  Stopping criterion = force tolerance
  Energy initial, next-to-last, final = 
     -427.200100266916  -427.200100306015  -427.200100306015
  Force two-norm initial, final = 0.0013214177 3.3722517e-11
  Force max component initial, final = 0.0003074025 9.7326591e-12
  Final line search alpha, max atom move = 1 9.7326591e-12
  Iterations, force evaluations = 22 44

MPI task timing breakdown:
Section |  min time  |  avg time  |  max time  |%varavg| %total
---------------------------------------------------------------
Pair    | 0.000861   | 0.000861   | 0.000861   |   0.0 | 75.86
Neigh   | 0          | 0          | 0          |   0.0 |  0.00
Comm    | 6.2e-05    | 6.2e-05    | 6.2e-05    |   0.0 |  5.46
Output  | 0.000158   | 0.000158   | 0.000158   |   0.0 | 13.92
Modify  | 0          | 0          | 0          |   0.0 |  0.00
Other   |            | 5.4e-05    |            |       |  4.76

Nlocal:             48 ave          48 max          48 min
Histogram: 1 0 0 0 0 0 0 0 0 0
Nghost:            498 ave         498 max         498 min
Histogram: 1 0 0 0 0 0 0 0 0 0
Neighs:           1200 ave        1200 max        1200 min
Histogram: 1 0 0 0 0 0 0 0 0 0

Total # of neighbors = 1200
Ave neighs/atom = 25
Neighbor list builds = 0
Dangerous builds = 0
OMP_NUM_THREADS environment is not set. Defaulting to 1 thread. (src/comm.cpp:98)
  using 1 OpenMP thread(s) per MPI task
Loaded 1 plugins from F:\Lammps\LAMMPS 64-bit 2Aug2023\plugins

The 'box' command has been removed and will be ignored

Reading restart file ...
  restart file = 2 Aug 2023, LAMMPS = 2 Aug 2023
  restoring atom style atomic from restart
  triclinic box = (0.0048023897 0.0072035845 0.0096047793) to (6.3351976 9.5027964 12.670395) with tilt (0 0 0)
  1 by 1 by 1 MPI processor grid
  pair style eam/alloy stores no restart info
  48 atoms
  read_restart CPU = 0.000 seconds
Changing box ...
  triclinic box = (0.0048023897 0.0072035845 0.0096047793) to (6.3351976 9.5027964 12.670395) with tilt (0 -1.266079e-05 0)
Neighbor list info ...
  update: every = 1 steps, delay = 0 steps, check = yes
  max neighbors/atom: 2000, page size: 100000
  master list distance cutoff = 5.403
  ghost atom cutoff = 5.403
  1 neighbor lists, perpetual/occasional/extra = 1 0 0
  (1) pair eam/alloy, perpetual
      attributes: half, newton on
      pair build: half/nsq/newton
      stencil: none
      bin: none
Setting up cg style minimization ...
  Unit style    : metal
  Current step  : 19
Per MPI rank memory allocation (min/avg/max) = 4.428 | 4.428 | 4.428 Mbytes
   Step          Temp          PotEng         Press           Pxx            Pyy            Pzz            Pxy            Pxz            Pyz             Lx             Ly             Lz           Volume    
        19   0             -427.2001      -0.0063435286  -0.0070084418  -0.0072902872  -0.0047318568   6.6218175e-05  1.6061648     -2.307046e-05   6.3303952      9.4955928      12.66079       761.05094    
        20   0             -427.2001       0.00078416337  0.00054957104  0.00079930735  0.0010036117   1.4797287e-06  1.6061259      3.5692831e-06  6.3303952      9.4955928      12.66079       761.05094    
        21   0             -427.2001       9.0935191e-05  5.4242399e-05  0.00012709273  9.1470445e-05 -7.2004449e-07  1.6061378      5.3665198e-07  6.3303952      9.4955928      12.66079       761.05094    
        22   0             -427.2001       1.474482e-05   9.9546654e-06  1.6504139e-05  1.7775655e-05 -4.3737476e-07  1.6061373      5.7098772e-08  6.3303952      9.4955928      12.66079       761.05094    
        23   0             -427.2001       7.4066328e-06  7.401953e-06   7.9942605e-06  6.8236848e-06 -2.7297571e-07  1.6061372     -1.5476395e-08  6.3303952      9.4955928      12.66079       761.05094    
        24   0             -427.2001       5.3581195e-06  3.5219928e-06  6.9747149e-06  5.5776509e-06 -9.0769976e-08  1.6061371     -1.7613585e-09  6.3303952      9.4955928      12.66079       761.05094    
        25   0             -427.2001       4.2823777e-06  2.595397e-06   6.0004186e-06  4.2513174e-06 -2.6581991e-08  1.6061371      4.8063396e-09  6.3303952      9.4955928      12.66079       761.05094    
        26   0             -427.2001       3.9903255e-06  2.3520572e-06  5.6481923e-06  3.970727e-06  -1.0005471e-08  1.6061371      8.362713e-10   6.3303952      9.4955928      12.66079       761.05094    
        27   0             -427.2001       3.8868268e-06  2.2825689e-06  5.548454e-06   3.8294576e-06 -1.4463694e-09  1.6061371     -4.2538115e-11  6.3303952      9.4955928      12.66079       761.05094    
        28   0             -427.2001       3.8446671e-06  2.2621482e-06  5.4861604e-06  3.7856927e-06 -1.008331e-10   1.6061371      1.1826531e-10  6.3303952      9.4955928      12.66079       761.05094    
        29   0             -427.2001       3.8316575e-06  2.2520987e-06  5.4661464e-06  3.7767273e-06  2.7173148e-11  1.6061371      9.5360171e-11  6.3303952      9.4955928      12.66079       761.05094    
        30   0             -427.2001       3.8284756e-06  2.2505676e-06  5.463438e-06   3.7714213e-06  7.7558656e-13  1.6061371      5.6094218e-11  6.3303952      9.4955928      12.66079       761.05094    
        31   0             -427.2001       3.8278866e-06  2.2502172e-06  5.4626265e-06  3.7708162e-06  1.3664521e-11  1.6061371     -2.7579657e-11  6.3303952      9.4955928      12.66079       761.05094    
        32   0             -427.2001       3.8279152e-06  2.250355e-06   5.4625569e-06  3.7708337e-06 -6.7940516e-11  1.6061371      5.2822055e-11  6.3303952      9.4955928      12.66079       761.05094    
        33   0             -427.2001       3.8277968e-06  2.250155e-06   5.4625232e-06  3.7707123e-06 -1.0496895e-11  1.6061371      8.6946038e-11  6.3303952      9.4955928      12.66079       761.05094    
        34   0             -427.2001       3.8278639e-06  2.2503056e-06  5.462512e-06   3.770774e-06  -3.2271979e-12  1.6061371     -7.0117773e-12  6.3303952      9.4955928      12.66079       761.05094    
        35   0             -427.2001       3.8277809e-06  2.2502246e-06  5.4625162e-06  3.7706019e-06  2.1608919e-11  1.6061371     -1.4023555e-11  6.3303952      9.4955928      12.66079       761.05094    
        36   0             -427.2001       3.8278098e-06  2.2502936e-06  5.4625368e-06  3.7705991e-06  5.0306306e-11  1.6061371      2.9449465e-11  6.3303952      9.4955928      12.66079       761.05094    
        37   0             -427.2001       3.8277572e-06  2.2501547e-06  5.4624938e-06  3.7706231e-06 -1.6891034e-11  1.6061371     -1.9165525e-11  6.3303952      9.4955928      12.66079       761.05094    
        38   0             -427.2001       3.8278268e-06  2.2502714e-06  5.4624755e-06  3.7707335e-06 -2.1426777e-11  1.6061371      3.9733405e-11  6.3303952      9.4955928      12.66079       761.05094    
        39   0             -427.2001       3.8277897e-06  2.250256e-06   5.4625031e-06  3.77061e-06   -4.3960557e-12  1.6061371      7.0585225e-11  6.3303952      9.4955928      12.66079       761.05094    
        40   0             -427.2001       3.8277861e-06  2.2502308e-06  5.4624508e-06  3.7706768e-06 -2.0912306e-11  1.6061371      3.599379e-11   6.3303952      9.4955928      12.66079       761.05094    
        41   0             -427.2001       3.8278036e-06  2.2502133e-06  5.462505e-06   3.7706926e-06  4.2337029e-11  1.6061371      3.6928694e-11  6.3303952      9.4955928      12.66079       761.05094    
Loop time of 0.001134 on 1 procs for 22 steps with 48 atoms

0.0% CPU use with 1 MPI tasks x 1 OpenMP threads

Minimization stats:
  Stopping criterion = force tolerance
  Energy initial, next-to-last, final = 
     -427.200100266915  -427.200100306015  -427.200100306016
  Force two-norm initial, final = 0.0013214178 3.3704879e-11
  Force max component initial, final = 0.00030740271 9.7233332e-12
  Final line search alpha, max atom move = 1 9.7233332e-12
  Iterations, force evaluations = 22 44

MPI task timing breakdown:
Section |  min time  |  avg time  |  max time  |%varavg| %total
---------------------------------------------------------------
Pair    | 0.000843   | 0.000843   | 0.000843   |   0.0 | 74.34
Neigh   | 0          | 0          | 0          |   0.0 |  0.00
Comm    | 6.5e-05    | 6.5e-05    | 6.5e-05    |   0.0 |  5.73
Output  | 0.000179   | 0.000179   | 0.000179   |   0.0 | 15.78
Modify  | 0          | 0          | 0          |   0.0 |  0.00
Other   |            | 4.7e-05    |            |       |  4.14

Nlocal:             48 ave          48 max          48 min
Histogram: 1 0 0 0 0 0 0 0 0 0
Nghost:            498 ave         498 max         498 min
Histogram: 1 0 0 0 0 0 0 0 0 0
Neighs:           1200 ave        1200 max        1200 min
Histogram: 1 0 0 0 0 0 0 0 0 0

Total # of neighbors = 1200
Ave neighs/atom = 25
Neighbor list builds = 0
Dangerous builds = 0
OMP_NUM_THREADS environment is not set. Defaulting to 1 thread. (src/comm.cpp:98)
  using 1 OpenMP thread(s) per MPI task
Loaded 1 plugins from F:\Lammps\LAMMPS 64-bit 2Aug2023\plugins

The 'box' command has been removed and will be ignored

Reading restart file ...
  restart file = 2 Aug 2023, LAMMPS = 2 Aug 2023
  restoring atom style atomic from restart
  triclinic box = (0.0048023897 0.0072035845 0.0096047793) to (6.3351976 9.5027964 12.670395) with tilt (0 0 0)
  1 by 1 by 1 MPI processor grid
  pair style eam/alloy stores no restart info
  48 atoms
  read_restart CPU = 0.000 seconds
Changing box ...
  triclinic box = (0.0048023897 0.0072035845 0.0096047793) to (6.3351976 9.5027964 12.670395) with tilt (0 1.266079e-05 0)
Neighbor list info ...
  update: every = 1 steps, delay = 0 steps, check = yes
  max neighbors/atom: 2000, page size: 100000
  master list distance cutoff = 5.403
  ghost atom cutoff = 5.403
  1 neighbor lists, perpetual/occasional/extra = 1 0 0
  (1) pair eam/alloy, perpetual
      attributes: half, newton on
      pair build: half/nsq/newton
      stencil: none
      bin: none
Setting up cg style minimization ...
  Unit style    : metal
  Current step  : 19
Per MPI rank memory allocation (min/avg/max) = 4.428 | 4.428 | 4.428 Mbytes
   Step          Temp          PotEng         Press           Pxx            Pyy            Pzz            Pxy            Pxz            Pyz             Lx             Ly             Lz           Volume    
        19   0             -427.2001      -0.0063438393  -0.0070087531  -0.0072905909  -0.0047321739   6.6514703e-05 -1.6061145     -2.3771545e-05  6.3303952      9.4955928      12.66079       761.05094    
        20   0             -427.2001       0.00078442896  0.00054983846  0.00079957653  0.0010038719   1.4071219e-06 -1.6061501      3.5506607e-06  6.3303952      9.4955928      12.66079       761.05094    
        21   0             -427.2001       9.088727e-05   5.4194878e-05  0.00012704344  9.142349e-05  -7.430939e-07  -1.6061368      5.8704983e-07  6.3303952      9.4955928      12.66079       761.05094    
        22   0             -427.2001       1.4731608e-05  9.9414777e-06  1.6490688e-05  1.7762658e-05 -4.4350237e-07 -1.606137       9.5322775e-08  6.3303952      9.4955928      12.66079       761.05094    
        23   0             -427.2001       7.4040016e-06  7.3994013e-06  7.9916928e-06  6.8209106e-06 -2.725522e-07  -1.6061371      8.4384402e-09  6.3303952      9.4955928      12.66079       761.05094    
        24   0             -427.2001       5.3594905e-06  3.5234145e-06  6.9761822e-06  5.5788747e-06 -9.1035531e-08 -1.6061371      5.9978743e-09  6.3303952      9.4955928      12.66079       761.05094    
        25   0             -427.2001       4.2823306e-06  2.5953753e-06  6.0003312e-06  4.2512852e-06 -2.7048289e-08 -1.6061371      7.2174561e-09  6.3303952      9.4955928      12.66079       761.05094    
        26   0             -427.2001       3.9902442e-06  2.35206e-06    5.6480661e-06  3.9706066e-06 -1.0120675e-08 -1.6061371      1.8641979e-09  6.3303952      9.4955928      12.66079       761.05094    
        27   0             -427.2001       3.8867558e-06  2.2825407e-06  5.5484063e-06  3.8293205e-06 -1.4041661e-09 -1.6061371      6.5443255e-12  6.3303952      9.4955928      12.66079       761.05094    
        28   0             -427.2001       3.8446407e-06  2.2621171e-06  5.4860842e-06  3.7857209e-06 -9.5981918e-11 -1.6061371      1.1125353e-10  6.3303952      9.4955928      12.66079       761.05094    
        29   0             -427.2001       3.8316877e-06  2.2521644e-06  5.4662067e-06  3.7766919e-06  4.6145803e-11 -1.6061371     -3.5058886e-11  6.3303952      9.4955928      12.66079       761.05094    
        30   0             -427.2001       3.8285595e-06  2.2506256e-06  5.4635329e-06  3.7715201e-06  9.3723177e-12 -1.6061371     -1.2153747e-11  6.3303952      9.4955928      12.66079       761.05094    
        31   0             -427.2001       3.8278919e-06  2.2502626e-06  5.4625788e-06  3.7708341e-06  3.1377247e-11 -1.6061371      1.1686295e-11  6.3303952      9.4955928      12.66079       761.05094    
        32   0             -427.2001       3.827982e-06   2.2504016e-06  5.4626153e-06  3.770929e-06  -1.0061398e-11 -1.6061371     -5.2354604e-11  6.3303952      9.4955928      12.66079       761.05094    
        33   0             -427.2001       3.8278369e-06  2.2502566e-06  5.4625012e-06  3.7707529e-06 -1.7433807e-11 -1.6061371      7.0117773e-11  6.3303952      9.4955928      12.66079       761.05094    
        34   0             -427.2001       3.8277663e-06  2.2501881e-06  5.4624704e-06  3.7706404e-06  7.072263e-12  -1.6061371      1.7295717e-11  6.3303952      9.4955928      12.66079       761.05094    
        35   0             -427.2001       3.827781e-06   2.2502576e-06  5.4625027e-06  3.7705828e-06 -1.8819044e-11 -1.6061371     -1.8698073e-11  6.3303952      9.4955928      12.66079       761.05094    
        36   0             -427.2001       3.827749e-06   2.250173e-06   5.462497e-06   3.7705771e-06 -1.8043686e-11 -1.6061371     -3.0384368e-11  6.3303952      9.4955928      12.66079       761.05094    
        37   0             -427.2001       3.8278284e-06  2.250243e-06   5.4625171e-06  3.7707249e-06 -5.6907466e-11 -1.6061371      4.0200856e-11  6.3303952      9.4955928      12.66079       761.05094    
        38   0             -427.2001       3.8278342e-06  2.2503052e-06  5.4625279e-06  3.7706694e-06 -4.8235185e-11 -1.6061371     -4.3940471e-11  6.3303952      9.4955928      12.66079       761.05094    
        39   0             -427.2001       3.8278619e-06  2.2502623e-06  5.4625695e-06  3.7707538e-06  9.8915818e-12 -1.6061371      2.3372591e-12  6.3303952      9.4955928      12.66079       761.05094    
        40   0             -427.2001       3.8277753e-06  2.2501993e-06  5.4624606e-06  3.7706662e-06  8.3032042e-12 -1.6061371      7.9466809e-12  6.3303952      9.4955928      12.66079       761.05094    
        41   0             -427.2001       3.8278437e-06  2.2502987e-06  5.4625396e-06  3.7706928e-06 -3.1782159e-11 -1.6061371      8.227152e-11   6.3303952      9.4955928      12.66079       761.05094    
Loop time of 0.001127 on 1 procs for 22 steps with 48 atoms

0.0% CPU use with 1 MPI tasks x 1 OpenMP threads

Minimization stats:
  Stopping criterion = force tolerance
  Energy initial, next-to-last, final = 
     -427.200100266915  -427.200100306016  -427.200100306016
  Force two-norm initial, final = 0.0013214168 3.3719085e-11
  Force max component initial, final = 0.00030740261 9.6945785e-12
  Final line search alpha, max atom move = 1 9.6945785e-12
  Iterations, force evaluations = 22 44

MPI task timing breakdown:
Section |  min time  |  avg time  |  max time  |%varavg| %total
---------------------------------------------------------------
Pair    | 0.000841   | 0.000841   | 0.000841   |   0.0 | 74.62
Neigh   | 0          | 0          | 0          |   0.0 |  0.00
Comm    | 6.3e-05    | 6.3e-05    | 6.3e-05    |   0.0 |  5.59
Output  | 0.000166   | 0.000166   | 0.000166   |   0.0 | 14.73
Modify  | 0          | 0          | 0          |   0.0 |  0.00
Other   |            | 5.7e-05    |            |       |  5.06

Nlocal:             48 ave          48 max          48 min
Histogram: 1 0 0 0 0 0 0 0 0 0
Nghost:            498 ave         498 max         498 min
Histogram: 1 0 0 0 0 0 0 0 0 0
Neighs:           1200 ave        1200 max        1200 min
Histogram: 1 0 0 0 0 0 0 0 0 0

Total # of neighbors = 1200
Ave neighs/atom = 25
Neighbor list builds = 0
Dangerous builds = 0
OMP_NUM_THREADS environment is not set. Defaulting to 1 thread. (src/comm.cpp:98)
  using 1 OpenMP thread(s) per MPI task
Loaded 1 plugins from F:\Lammps\LAMMPS 64-bit 2Aug2023\plugins

The 'box' command has been removed and will be ignored

Reading restart file ...
  restart file = 2 Aug 2023, LAMMPS = 2 Aug 2023
  restoring atom style atomic from restart
  triclinic box = (0.0048023897 0.0072035845 0.0096047793) to (6.3351976 9.5027964 12.670395) with tilt (0 0 0)
  1 by 1 by 1 MPI processor grid
  pair style eam/alloy stores no restart info
  48 atoms
  read_restart CPU = 0.000 seconds
Changing box ...
  triclinic box = (0.0048023897 0.0072035845 0.0096047793) to (6.3351976 9.5027964 12.670395) with tilt (-9.4955928e-06 0 0)
Neighbor list info ...
  update: every = 1 steps, delay = 0 steps, check = yes
  max neighbors/atom: 2000, page size: 100000
  master list distance cutoff = 5.403
  ghost atom cutoff = 5.403
  1 neighbor lists, perpetual/occasional/extra = 1 0 0
  (1) pair eam/alloy, perpetual
      attributes: half, newton on
      pair build: half/nsq/newton
      stencil: none
      bin: none
Setting up cg style minimization ...
  Unit style    : metal
  Current step  : 19
Per MPI rank memory allocation (min/avg/max) = 4.428 | 4.428 | 4.428 Mbytes
   Step          Temp          PotEng         Press           Pxx            Pyy            Pzz            Pxy            Pxz            Pyz             Lx             Ly             Lz           Volume    
        19   0             -427.2001      -0.006343331   -0.0070082413  -0.0072917742  -0.0047299775   1.606206       2.5029589e-05 -2.3269136e-05  6.3303952      9.4955928      12.66079       761.05094    
        20   0             -427.2001       0.00078430624  0.00054971097  0.00079776173  0.001005446    1.6061394     -1.2104542e-05  3.427569e-06   6.3303952      9.4955928      12.66079       761.05094    
        21   0             -427.2001       9.0886076e-05  5.4194415e-05  0.00012534994  9.3113867e-05  1.6061366      5.2349279e-07  5.8621777e-07  6.3303952      9.4955928      12.66079       761.05094    
        22   0             -427.2001       1.4719192e-05  9.9291822e-06  1.4786211e-05  1.9442183e-05  1.6061367      1.4119458e-07  8.2845083e-08  6.3303952      9.4955928      12.66079       761.05094    
        23   0             -427.2001       7.3932939e-06  7.3885395e-06  6.2888182e-06  8.5025239e-06  1.6061369      2.9483737e-08 -2.1175567e-09  6.3303952      9.4955928      12.66079       761.05094    
        24   0             -427.2001       5.3549171e-06  3.5188197e-06  5.2794177e-06  7.266514e-06   1.606137      -1.1345774e-08  1.3827225e-09  6.3303952      9.4955928      12.66079       761.05094    
        25   0             -427.2001       4.2811696e-06  2.5942077e-06  4.3070062e-06  5.9422948e-06  1.6061371     -1.0089893e-09  5.9277565e-09  6.3303952      9.4955928      12.66079       761.05094    
        26   0             -427.2001       3.9898852e-06  2.351718e-06   3.9555296e-06  5.6624078e-06  1.6061371     -1.335876e-10   1.3504683e-09  6.3303952      9.4955928      12.66079       761.05094    
        27   0             -427.2001       3.8868159e-06  2.2825752e-06  3.8562826e-06  5.52159e-06    1.6061371      4.2848008e-10 -5.7496574e-11  6.3303952      9.4955928      12.66079       761.05094    
        28   0             -427.2001       3.844755e-06   2.2622878e-06  3.7940072e-06  5.4779699e-06  1.6061371      2.1562585e-11  8.6011135e-11  6.3303952      9.4955928      12.66079       761.05094    
        29   0             -427.2001       3.8316813e-06  2.2521682e-06  3.7739835e-06  5.4688922e-06  1.6061371      1.006893e-11   6.9650321e-11  6.3303952      9.4955928      12.66079       761.05094    
        30   0             -427.2001       3.8285041e-06  2.2505585e-06  3.7713227e-06  5.4636312e-06  1.6061371      7.7206926e-11  2.570985e-11   6.3303952      9.4955928      12.66079       761.05094    
        31   0             -427.2001       3.8279888e-06  2.2503279e-06  3.7704421e-06  5.4631965e-06  1.6061371     -8.5159313e-12 -2.8982013e-11  6.3303952      9.4955928      12.66079       761.05094    
        32   0             -427.2001       3.8278589e-06  2.2502197e-06  3.7703649e-06  5.4629922e-06  1.6061371     -1.1105861e-11  2.9449465e-11  6.3303952      9.4955928      12.66079       761.05094    
        33   0             -427.2001       3.8278259e-06  2.2502324e-06  3.7702621e-06  5.4629833e-06  1.6061371     -5.4375511e-12 -2.3372591e-11  6.3303952      9.4955928      12.66079       761.05094    
        34   0             -427.2001       3.8278724e-06  2.2502939e-06  3.7702144e-06  5.463109e-06   1.6061371      3.9533916e-11  2.3840043e-11  6.3303952      9.4955928      12.66079       761.05094    
        35   0             -427.2001       3.8278089e-06  2.2502559e-06  3.7702074e-06  5.4629635e-06  1.6061371      1.7549301e-11  4.1603212e-11  6.3303952      9.4955928      12.66079       761.05094    
        36   0             -427.2001       3.827871e-06   2.2503164e-06  3.770242e-06   5.4630546e-06  1.6061371      2.9709895e-11 -9.3490364e-13  6.3303952      9.4955928      12.66079       761.05094    
        37   0             -427.2001       3.827828e-06   2.2502775e-06  3.7702055e-06  5.4630009e-06  1.6061371     -6.0565596e-11  4.0668308e-11  6.3303952      9.4955928      12.66079       761.05094    
        38   0             -427.2001       3.8277763e-06  2.2502123e-06  3.7701765e-06  5.4629402e-06  1.6061371      7.0633613e-12  1.0751392e-11  6.3303952      9.4955928      12.66079       761.05094    
        39   0             -427.2001       3.8278418e-06  2.2502471e-06  3.7702345e-06  5.4630438e-06  1.6061371      5.6329314e-12 -3.6928694e-11  6.3303952      9.4955928      12.66079       761.05094    
        40   0             -427.2001       3.8277601e-06  2.2502357e-06  3.770142e-06   5.4629025e-06  1.6061371     -1.3631881e-11  1.8698073e-11  6.3303952      9.4955928      12.66079       761.05094    
        41   0             -427.2001       3.8278526e-06  2.2503107e-06  3.7701938e-06  5.4630534e-06  1.6061371     -5.8208251e-11 -2.5242398e-11  6.3303952      9.4955928      12.66079       761.05094    
Loop time of 0.001102 on 1 procs for 22 steps with 48 atoms

0.0% CPU use with 1 MPI tasks x 1 OpenMP threads

Minimization stats:
  Stopping criterion = force tolerance
  Energy initial, next-to-last, final = 
     -427.200100266915  -427.200100306015  -427.200100306016
  Force two-norm initial, final = 0.0013214185 3.3722617e-11
  Force max component initial, final = 0.0003074025 9.7164499e-12
  Final line search alpha, max atom move = 1 9.7164499e-12
  Iterations, force evaluations = 22 44

MPI task timing breakdown:
Section |  min time  |  avg time  |  max time  |%varavg| %total
---------------------------------------------------------------
Pair    | 0.000821   | 0.000821   | 0.000821   |   0.0 | 74.50
Neigh   | 0          | 0          | 0          |   0.0 |  0.00
Comm    | 5.8e-05    | 5.8e-05    | 5.8e-05    |   0.0 |  5.26
Output  | 0.000165   | 0.000165   | 0.000165   |   0.0 | 14.97
Modify  | 0          | 0          | 0          |   0.0 |  0.00
Other   |            | 5.8e-05    |            |       |  5.26

Nlocal:             48 ave          48 max          48 min
Histogram: 1 0 0 0 0 0 0 0 0 0
Nghost:            498 ave         498 max         498 min
Histogram: 1 0 0 0 0 0 0 0 0 0
Neighs:           1200 ave        1200 max        1200 min
Histogram: 1 0 0 0 0 0 0 0 0 0

Total # of neighbors = 1200
Ave neighs/atom = 25
Neighbor list builds = 0
Dangerous builds = 0
OMP_NUM_THREADS environment is not set. Defaulting to 1 thread. (src/comm.cpp:98)
  using 1 OpenMP thread(s) per MPI task
Loaded 1 plugins from F:\Lammps\LAMMPS 64-bit 2Aug2023\plugins

The 'box' command has been removed and will be ignored

Reading restart file ...
  restart file = 2 Aug 2023, LAMMPS = 2 Aug 2023
  restoring atom style atomic from restart
  triclinic box = (0.0048023897 0.0072035845 0.0096047793) to (6.3351976 9.5027964 12.670395) with tilt (0 0 0)
  1 by 1 by 1 MPI processor grid
  pair style eam/alloy stores no restart info
  48 atoms
  read_restart CPU = 0.000 seconds
Changing box ...
  triclinic box = (0.0048023897 0.0072035845 0.0096047793) to (6.3351976 9.5027964 12.670395) with tilt (9.4955928e-06 0 0)
Neighbor list info ...
  update: every = 1 steps, delay = 0 steps, check = yes
  max neighbors/atom: 2000, page size: 100000
  master list distance cutoff = 5.403
  ghost atom cutoff = 5.403
  1 neighbor lists, perpetual/occasional/extra = 1 0 0
  (1) pair eam/alloy, perpetual
      attributes: half, newton on
      pair build: half/nsq/newton
      stencil: none
      bin: none
Setting up cg style minimization ...
  Unit style    : metal
  Current step  : 19
Per MPI rank memory allocation (min/avg/max) = 4.428 | 4.428 | 4.428 Mbytes
   Step          Temp          PotEng         Press           Pxx            Pyy            Pzz            Pxy            Pxz            Pyz             Lx             Ly             Lz           Volume    
        19   0             -427.2001      -0.006344037   -0.0070089537  -0.0072924787  -0.0047306786  -1.6060733      2.5326079e-05 -2.357287e-05   6.3303952      9.4955928      12.66079       761.05094    
        20   0             -427.2001       0.00078428605  0.00054969846  0.00079773831  0.0010054214  -1.6061366     -1.2177107e-05  3.6922248e-06  6.3303952      9.4955928      12.66079       761.05094    
        21   0             -427.2001       9.0936219e-05  5.4242702e-05  0.00012540171  9.3164244e-05 -1.6061381      5.0048457e-07  5.3750134e-07  6.3303952      9.4955928      12.66079       761.05094    
        22   0             -427.2001       1.4757291e-05  9.9671061e-06  1.4824223e-05  1.9480544e-05 -1.6061376      1.3519137e-07  6.9599836e-08  6.3303952      9.4955928      12.66079       761.05094    
        23   0             -427.2001       7.4171946e-06  7.4126503e-06  6.3125184e-06  8.5264151e-06 -1.6061374      2.9973048e-08 -4.9087115e-09  6.3303952      9.4955928      12.66079       761.05094    
        24   0             -427.2001       5.3626807e-06  3.5265472e-06  5.2871517e-06  7.2743432e-06 -1.6061372     -1.1625589e-08  2.7677822e-09  6.3303952      9.4955928      12.66079       761.05094    
        25   0             -427.2001       4.2836083e-06  2.5966249e-06  4.3093673e-06  5.9448328e-06 -1.6061371     -1.513271e-09   5.9628154e-09  6.3303952      9.4955928      12.66079       761.05094    
        26   0             -427.2001       3.990702e-06   2.3525194e-06  3.9563121e-06  5.6632745e-06 -1.6061371     -1.6986943e-10  1.3663617e-09  6.3303952      9.4955928      12.66079       761.05094    
        27   0             -427.2001       3.8868244e-06  2.2825492e-06  3.8562877e-06  5.5216364e-06 -1.6061371      4.0341138e-10 -4.4407923e-11  6.3303952      9.4955928      12.66079       761.05094    
        28   0             -427.2001       3.8446922e-06  2.2622071e-06  3.7939385e-06  5.477931e-06  -1.6061371      4.8163971e-11  7.3857387e-11  6.3303952      9.4955928      12.66079       761.05094    
        29   0             -427.2001       3.8315807e-06  2.2520462e-06  3.7738661e-06  5.4688297e-06 -1.6061371      3.6206061e-11  8.6478586e-11  6.3303952      9.4955928      12.66079       761.05094    
        30   0             -427.2001       3.8285815e-06  2.2506702e-06  3.7713326e-06  5.4637418e-06 -1.6061371      3.1419244e-11  2.4307495e-11  6.3303952      9.4955928      12.66079       761.05094    
        31   0             -427.2001       3.8279526e-06  2.2502776e-06  3.7704411e-06  5.4631391e-06 -1.6061371     -7.9302927e-11 -1.2621199e-11  6.3303952      9.4955928      12.66079       761.05094    
        32   0             -427.2001       3.8278739e-06  2.2502152e-06  3.7703593e-06  5.4630471e-06 -1.6061371     -3.0942891e-11  8.8815846e-12  6.3303952      9.4955928      12.66079       761.05094    
        33   0             -427.2001       3.8278579e-06  2.2502694e-06  3.7702756e-06  5.4630287e-06 -1.6061371     -6.398475e-12  -1.7763169e-11  6.3303952      9.4955928      12.66079       761.05094    
        34   0             -427.2001       3.8277654e-06  2.250169e-06   3.7702107e-06  5.4629164e-06 -1.6061371      4.0924174e-11  1.0751392e-11  6.3303952      9.4955928      12.66079       761.05094    
        35   0             -427.2001       3.8278391e-06  2.2502374e-06  3.7702527e-06  5.4630271e-06 -1.6061371     -3.2693781e-11  1.5893362e-11  6.3303952      9.4955928      12.66079       761.05094    
        36   0             -427.2001       3.8277422e-06  2.2501929e-06  3.7701443e-06  5.4628894e-06 -1.6061371      1.8762439e-11 -1.542591e-11   6.3303952      9.4955928      12.66079       761.05094    
        37   0             -427.2001       3.8277016e-06  2.2501584e-06  3.7701036e-06  5.4628427e-06 -1.6061371     -1.9423901e-11  2.6177302e-11  6.3303952      9.4955928      12.66079       761.05094    
        38   0             -427.2001       3.8277371e-06  2.2501887e-06  3.770134e-06   5.4628887e-06 -1.6061371      4.3677529e-12 -1.8698073e-12  6.3303952      9.4955928      12.66079       761.05094    
        39   0             -427.2001       3.8277871e-06  2.2501758e-06  3.7701971e-06  5.4629884e-06 -1.6061371     -3.2796949e-12 -2.8047109e-12  6.3303952      9.4955928      12.66079       761.05094    
        40   0             -427.2001       3.8278736e-06  2.2502767e-06  3.7702275e-06  5.4631166e-06 -1.6061371     -2.5276179e-12  2.3840043e-11  6.3303952      9.4955928      12.66079       761.05094    
        41   0             -427.2001       3.8277356e-06  2.2501976e-06  3.770149e-06   5.4628603e-06 -1.6061371      4.2907421e-11 -4.5342826e-11  6.3303952      9.4955928      12.66079       761.05094    
Loop time of 0.001333 on 1 procs for 22 steps with 48 atoms

0.0% CPU use with 1 MPI tasks x 1 OpenMP threads

Minimization stats:
  Stopping criterion = force tolerance
  Energy initial, next-to-last, final = 
     -427.200100266915  -427.200100306015  -427.200100306016
  Force two-norm initial, final = 0.0013214162 3.3723452e-11
  Force max component initial, final = 0.00030740282 9.7231667e-12
  Final line search alpha, max atom move = 1 9.7231667e-12
  Iterations, force evaluations = 22 44

MPI task timing breakdown:
Section |  min time  |  avg time  |  max time  |%varavg| %total
---------------------------------------------------------------
Pair    | 0.000974   | 0.000974   | 0.000974   |   0.0 | 73.07
Neigh   | 0          | 0          | 0          |   0.0 |  0.00
Comm    | 0.000104   | 0.000104   | 0.000104   |   0.0 |  7.80
Output  | 0.000195   | 0.000195   | 0.000195   |   0.0 | 14.63
Modify  | 0          | 0          | 0          |   0.0 |  0.00
Other   |            | 6e-05      |            |       |  4.50

Nlocal:             48 ave          48 max          48 min
Histogram: 1 0 0 0 0 0 0 0 0 0
Nghost:            498 ave         498 max         498 min
Histogram: 1 0 0 0 0 0 0 0 0 0
Neighs:           1200 ave        1200 max        1200 min
Histogram: 1 0 0 0 0 0 0 0 0 0

Total # of neighbors = 1200
Ave neighs/atom = 25
Neighbor list builds = 0
Dangerous builds = 0
=========================================
Components of the Elastic Constant Tensor
=========================================
Elastic Constant C11all = 542.858544174471 GPa
Elastic Constant C22all = 542.858544201017 GPa
Elastic Constant C33all = 542.858544184058 GPa
Elastic Constant C12all = 204.416906578442 GPa
Elastic Constant C13all = 204.416906581784 GPa
Elastic Constant C23all = 204.416906582205 GPa
Elastic Constant C44all = 160.613711880692 GPa
Elastic Constant C55all = 160.613711874602 GPa
Elastic Constant C66all = 160.613711879296 GPa
Elastic Constant C14all = -2.39557960144682e-09 GPa
Elastic Constant C15all = -1.13193779198074e-09 GPa
Elastic Constant C16all = 3.21433233515332e-09 GPa
Elastic Constant C24all = -5.96001360822065e-10 GPa
Elastic Constant C25all = -5.0192254798817e-10 GPa
Elastic Constant C26all = 1.11702689648739e-09 GPa
Elastic Constant C34all = -2.49829983710507e-09 GPa
Elastic Constant C35all = -1.24912731430732e-09 GPa
Elastic Constant C36all = 4.99321014658498e-09 GPa
Elastic Constant C45all = 8.379895539777e-10 GPa
Elastic Constant C46all = 1.33680834817111e-09 GPa
Elastic Constant C56all = -6.74912093995615e-10 GPa
=========================================
Average properties for a cubic crystal
=========================================
Bulk Modulus = 317.230785782712 GPa
Shear Modulus 1 = 160.613711878197 GPa
Shear Modulus 2 = 169.220818802853 GPa
Poisson Ratio = 0.273549607940296
Total wall time: 0:00:00
