LAMMPS (2 Aug 2023 - Update 3)
OMP_NUM_THREADS environment is not set. Defaulting to 1 thread. (src/comm.cpp:98)
  using 1 OpenMP thread(s) per MPI task
Loaded 1 plugins from F:\Lammps\LAMMPS 64-bit 2Aug2023\plugins
Lattice spacing in x,y,z = 3.17 3.17 3.17
Created triclinic box = (0 0 0) to (6.34 9.51 12.68) with tilt (0 0 0)
  1 by 1 by 1 MPI processor grid
Created 48 atoms
  using lattice units in triclinic box = (0 0 0) to (6.34 9.51 12.68) with tilt (0 0 0)
  create_atoms CPU = 0.000 seconds
Neighbor list info ...
  update: every = 1 steps, delay = 0 steps, check = yes
  max neighbors/atom: 2000, page size: 100000
  master list distance cutoff = 5.403
  ghost atom cutoff = 5.403
  1 neighbor lists, perpetual/occasional/extra = 1 0 0
  (1) pair eam/alloy, perpetual
      attributes: half, newton on
      pair build: half/nsq/newton
      stencil: none
      bin: none
Setting up cg style minimization ...
  Unit style    : metal
  Current step  : 0
WARNING: Energy due to 3 extra global DOFs will be included in minimizer energies
 (src/min.cpp:228)
Per MPI rank memory allocation (min/avg/max) = 4.428 | 4.428 | 4.428 Mbytes
   Step          Temp          PotEng         Press           Pxx            Pyy            Pzz            Pxy            Pxz            Pyz             Lx             Ly             Lz           Volume    
         0   0             -427.18485     -14061.267     -14061.267     -14061.267     -14061.267      1.2563925e-11  9.7719413e-12 -1.1167933e-11  6.34           9.51           12.68          764.52031    
         1   0             -427.1868      -13140.267     -13140.267     -13140.267     -13140.267     -9.7749194e-12 -1.1171284e-11  2.9790091e-11  6.339366       9.509049       12.678732      764.29098    
         2   0             -427.18861     -12216.068     -12216.068     -12216.068     -12216.068      3.6317477e-11  8.8465871e-12  2.6074151e-11  6.338732       9.508098       12.677464      764.06169    
         3   0             -427.19029     -11288.515     -11288.515     -11288.515     -11288.515      5.588995e-12   8.8958171e-11 -2.235598e-11   6.338098       9.507147       12.676196      763.83245    
         4   0             -427.19184     -10360.866     -10360.866     -10360.866     -10360.866     -1.3510792e-11 -4.4259491e-11 -9.4109655e-11  6.337464       9.506196       12.674928      763.60325    
         5   0             -427.19326     -9433.9647     -9433.9647     -9433.9647     -9433.9647      3.4952192e-11  3.2622046e-11 -4.9399099e-11  6.33683        9.505245       12.67366       763.3741     
         6   0             -427.19454     -8505.9502     -8505.9502     -8505.9502     -8505.9502     -4.6616914e-13  2.5173134e-11 -9.3233828e-12  6.336196       9.504294       12.672392      763.145      
         7   0             -427.19569     -7577.4287     -7577.4287     -7577.4287     -7577.4287      3.7304728e-12 -2.7978546e-12  1.6787128e-11  6.335562       9.503343       12.671124      762.91594    
         8   0             -427.1967      -6648.3976     -6648.3976     -6648.3976     -6648.3976      2.9386295e-11 -2.4255354e-11  9.5155621e-11  6.334928       9.502392       12.669856      762.68693    
         9   0             -427.19759     -5718.8365     -5718.8365     -5718.8365     -5718.8365      3.8726903e-11 -2.332946e-12  -5.225799e-11   6.334294       9.501441       12.668588      762.45796    
        10   0             -427.19834     -4788.7687     -4788.7687     -4788.7687     -4788.7687      0             -2.2403008e-11  1.1201504e-11  6.33366        9.50049        12.66732       762.22904    
        11   0             -427.19896     -3858.211      -3858.211      -3858.211      -3858.211       5.9759298e-11  1.6340433e-11  2.9879649e-11  6.333026       9.499539       12.666052      762.00017    
        12   0             -427.19944     -2927.0361     -2927.0361     -2927.0361     -2927.0361     -6.5381366e-12 -4.1096859e-11  7.0051463e-11  6.332392       9.498588       12.664784      761.77134    
        13   0             -427.19979     -1993.6933     -1993.6933     -1993.6933     -1993.6933     -1.1211601e-11  4.0174905e-11 -2.8029003e-11  6.331758       9.497637       12.663516      761.54256    
        14   0             -427.20001     -1074.988      -1074.988      -1074.988      -1074.988       2.289723e-11  -3.2710329e-12 -4.9532784e-11  6.331124       9.496686       12.662248      761.31382    
        15   0             -427.2001      -142.13918     -142.13918     -142.13918     -142.13918      3.1317157e-11  3.9264189e-11 -2.4306403e-11  6.33049        9.495735       12.66098       761.08513    
        16   0             -427.2001       0.95789324     0.95789324     0.95789324     0.95789324    -3.7864317e-11  5.9833851e-11 -5.4224427e-11  6.3303946      9.4955919      12.660789      761.05071    
        17   0             -427.2001      -0.015746567   -0.015746567   -0.015746566   -0.015746567   -4.9083149e-11  1.6360814e-11  6.5443254e-12  6.3303952      9.4955928      12.66079       761.05095    
        18   0             -427.2001       3.994392e-05   3.9944049e-05  3.9943684e-05  3.9944027e-05 -5.3290215e-11 -4.6745182e-13  2.8982013e-11  6.3303952      9.4955928      12.66079       761.05094    
        19   0             -427.2001       5.0227698e-10  3.0664839e-10  4.7913811e-10  7.2104443e-10 -9.3631975e-13  6.0768736e-12 -3.2721627e-11  6.3303952      9.4955928      12.66079       761.05094    
Loop time of 0.001382 on 1 procs for 19 steps with 48 atoms

0.0% CPU use with 1 MPI tasks x 1 OpenMP threads

Minimization stats:
  Stopping criterion = force tolerance
  Energy initial, next-to-last, final = 
     -427.184848841919  -427.200100306399  -427.200100306395
  Force two-norm initial, final = 11.621542 7.650787e-13
  Force max component initial, final = 6.7097004 3.4302347e-13
  Final line search alpha, max atom move = 1 3.4302347e-13
  Iterations, force evaluations = 19 23

MPI task timing breakdown:
Section |  min time  |  avg time  |  max time  |%varavg| %total
---------------------------------------------------------------
Pair    | 0.000473   | 0.000473   | 0.000473   |   0.0 | 34.23
Neigh   | 0          | 0          | 0          |   0.0 |  0.00
Comm    | 3.7e-05    | 3.7e-05    | 3.7e-05    |   0.0 |  2.68
Output  | 0.000165   | 0.000165   | 0.000165   |   0.0 | 11.94
Modify  | 0          | 0          | 0          |   0.0 |  0.00
Other   |            | 0.000707   |            |       | 51.16

Nlocal:             48 ave          48 max          48 min
Histogram: 1 0 0 0 0 0 0 0 0 0
Nghost:            498 ave         498 max         498 min
Histogram: 1 0 0 0 0 0 0 0 0 0
Neighs:           1200 ave        1200 max        1200 min
Histogram: 1 0 0 0 0 0 0 0 0 0

Total # of neighbors = 1200
Ave neighs/atom = 25
Neighbor list builds = 0
Dangerous builds = 0
Displacing atoms ...
System init for write_restart ...
OMP_NUM_THREADS environment is not set. Defaulting to 1 thread. (src/comm.cpp:98)
  using 1 OpenMP thread(s) per MPI task
Loaded 1 plugins from F:\Lammps\LAMMPS 64-bit 2Aug2023\plugins

The 'box' command has been removed and will be ignored

Reading restart file ...
  restart file = 2 Aug 2023, LAMMPS = 2 Aug 2023
  restoring atom style atomic from restart
  triclinic box = (0.0048023897 0.0072035845 0.0096047793) to (6.3351976 9.5027964 12.670395) with tilt (0 0 0)
  1 by 1 by 1 MPI processor grid
  pair style eam/alloy stores no restart info
  48 atoms
  read_restart CPU = 0.000 seconds
Changing box ...
  triclinic box = (0.0048023897 0.0072035845 0.0096047793) to (6.335197 9.5027964 12.670395) with tilt (0 0 0)
  triclinic box = (0.0048023897 0.0072035845 0.0096047793) to (6.335197 9.5027964 12.670395) with tilt (0 0 0)
  triclinic box = (0.0048023897 0.0072035845 0.0096047793) to (6.335197 9.5027964 12.670395) with tilt (0 0 0)
Neighbor list info ...
  update: every = 1 steps, delay = 0 steps, check = yes
  max neighbors/atom: 2000, page size: 100000
  master list distance cutoff = 5.403
  ghost atom cutoff = 5.403
  1 neighbor lists, perpetual/occasional/extra = 1 0 0
  (1) pair eam/alloy, perpetual
      attributes: half, newton on
      pair build: half/nsq/newton
      stencil: none
      bin: none
Setting up cg style minimization ...
  Unit style    : metal
  Current step  : 19
Per MPI rank memory allocation (min/avg/max) = 4.428 | 4.428 | 4.428 Mbytes
   Step          Temp          PotEng         Press           Pxx            Pyy            Pzz            Pxy            Pxz            Pyz             Lx             Ly             Lz           Volume    
        19   0             -427.2001       0.31045409     0.53455953     0.19712132     0.19968143     6.6406579e-05  2.5174412e-05 -2.3434892e-05  6.3303946      9.4955928      12.66079       761.05087    
        20   0             -427.2001       0.31794914     0.54321933     0.20521105     0.20541704     1.4487926e-06 -1.2153403e-05  3.5637343e-06  6.3303946      9.4955928      12.66079       761.05087    
        21   0             -427.2001       0.3173229      0.54292547     0.20453858     0.20450465    -7.3990855e-07  5.2194498e-07  5.6814754e-07  6.3303946      9.4955928      12.66079       761.05087    
        22   0             -427.2001       0.31724672     0.54288118     0.20442801     0.20443097    -4.4452919e-07  1.3664355e-07  7.5658487e-08  6.3303946      9.4955928      12.66079       761.05087    
        23   0             -427.2001       0.31723938     0.54287863     0.2044195      0.20442002    -2.7491293e-07  2.9526872e-08 -4.0350445e-09  6.3303946      9.4955928      12.66079       761.05087    
        24   0             -427.2001       0.31723733     0.54287474     0.20441848     0.20441878    -9.2385569e-08 -1.2302367e-08  2.4648737e-09  6.3303946      9.4955928      12.66079       761.05087    
        25   0             -427.2001       0.31723625     0.54287381     0.2044175      0.20441745    -2.7958469e-08 -1.3340919e-09  6.2559083e-09  6.3303946      9.4955928      12.66079       761.05087    
        26   0             -427.2001       0.31723596     0.54287357     0.20441715     0.20441716    -1.0459686e-08 -7.0247196e-11  1.384125e-09   6.3303946      9.4955928      12.66079       761.05087    
        27   0             -427.2001       0.31723586     0.5428735      0.20441705     0.20441702    -1.4801425e-09  4.7119308e-10 -5.0484801e-11  6.3303946      9.4955928      12.66079       761.05087    
        28   0             -427.2001       0.31723581     0.54287348     0.20441699     0.20441698    -1.02361e-10    5.9740485e-11 -1.5893363e-11  6.3303946      9.4955928      12.66079       761.05087    
        29   0             -427.2001       0.3172358      0.54287347     0.20441697     0.20441697     3.6766413e-11  1.7921118e-11  9.1153114e-11  6.3303946      9.4955928      12.66079       761.05087    
        30   0             -427.2001       0.3172358      0.54287347     0.20441696     0.20441696     1.1128459e-11 -1.2515522e-11  2.8982016e-11  6.3303946      9.4955928      12.66079       761.05087    
        31   0             -427.2001       0.3172358      0.54287347     0.20441696     0.20441696    -1.7192779e-11  1.1723729e-11  6.0768742e-12  6.3303946      9.4955928      12.66079       761.05087    
        32   0             -427.2001       0.3172358      0.54287347     0.20441696     0.20441696     2.6908154e-12  2.3705835e-11 -5.2822061e-11  6.3303946      9.4955928      12.66079       761.05087    
        33   0             -427.2001       0.3172358      0.54287347     0.20441696     0.20441696     3.0054553e-11  7.3714968e-12  1.5893363e-11  6.3303946      9.4955928      12.66079       761.05087    
        34   0             -427.2001       0.3172358      0.54287347     0.20441696     0.20441696     7.4173746e-12 -1.1011824e-11  2.757966e-11   6.3303946      9.4955928      12.66079       761.05087    
        35   0             -427.2001       0.3172358      0.54287347     0.20441696     0.20441696    -2.881083e-11  -4.1321558e-11 -1.6828267e-11  6.3303946      9.4955928      12.66079       761.05087    
        36   0             -427.2001       0.3172358      0.54287347     0.20441696     0.20441696    -1.0086278e-12  6.7036432e-13  5.001735e-11   6.3303946      9.4955928      12.66079       761.05087    
        37   0             -427.2001       0.3172358      0.54287347     0.20441696     0.20441696     2.7635809e-11  1.9291976e-11 -7.011778e-12   6.3303946      9.4955928      12.66079       761.05087    
        38   0             -427.2001       0.3172358      0.54287347     0.20441696     0.20441696    -2.7190497e-11 -5.5543005e-11 -2.8047112e-11  6.3303946      9.4955928      12.66079       761.05087    
        39   0             -427.2001       0.3172358      0.54287347     0.20441696     0.20441696    -2.0011185e-11  1.8209624e-12  2.8514564e-11  6.3303946      9.4955928      12.66079       761.05087    
        40   0             -427.2001       0.3172358      0.54287347     0.20441696     0.20441696    -2.9844337e-11  8.5732224e-12  1.6828267e-11  6.3303946      9.4955928      12.66079       761.05087    
        41   0             -427.2001       0.3172358      0.54287347     0.20441696     0.20441696    -4.86207e-11   -1.2511413e-11  4.7212638e-11  6.3303946      9.4955928      12.66079       761.05087    
Loop time of 0.001143 on 1 procs for 22 steps with 48 atoms

0.0% CPU use with 1 MPI tasks x 1 OpenMP threads

Minimization stats:
  Stopping criterion = force tolerance
  Energy initial, next-to-last, final = 
     -427.200100267284  -427.200100306384  -427.200100306384
  Force two-norm initial, final = 0.0013214015 3.3646003e-11
  Force max component initial, final = 0.0003073975 9.7179487e-12
  Final line search alpha, max atom move = 1 9.7179487e-12
  Iterations, force evaluations = 22 44

MPI task timing breakdown:
Section |  min time  |  avg time  |  max time  |%varavg| %total
---------------------------------------------------------------
Pair    | 0.000863   | 0.000863   | 0.000863   |   0.0 | 75.50
Neigh   | 0          | 0          | 0          |   0.0 |  0.00
Comm    | 6e-05      | 6e-05      | 6e-05      |   0.0 |  5.25
Output  | 0.000165   | 0.000165   | 0.000165   |   0.0 | 14.44
Modify  | 0          | 0          | 0          |   0.0 |  0.00
Other   |            | 5.5e-05    |            |       |  4.81

Nlocal:             48 ave          48 max          48 min
Histogram: 1 0 0 0 0 0 0 0 0 0
Nghost:            498 ave         498 max         498 min
Histogram: 1 0 0 0 0 0 0 0 0 0
Neighs:           1200 ave        1200 max        1200 min
Histogram: 1 0 0 0 0 0 0 0 0 0

Total # of neighbors = 1200
Ave neighs/atom = 25
Neighbor list builds = 0
Dangerous builds = 0
OMP_NUM_THREADS environment is not set. Defaulting to 1 thread. (src/comm.cpp:98)
  using 1 OpenMP thread(s) per MPI task
Loaded 1 plugins from F:\Lammps\LAMMPS 64-bit 2Aug2023\plugins

The 'box' command has been removed and will be ignored

Reading restart file ...
  restart file = 2 Aug 2023, LAMMPS = 2 Aug 2023
  restoring atom style atomic from restart
  triclinic box = (0.0048023897 0.0072035845 0.0096047793) to (6.3351976 9.5027964 12.670395) with tilt (0 0 0)
  1 by 1 by 1 MPI processor grid
  pair style eam/alloy stores no restart info
  48 atoms
  read_restart CPU = 0.000 seconds
Changing box ...
  triclinic box = (0.0048023897 0.0072035845 0.0096047793) to (6.3351982 9.5027964 12.670395) with tilt (0 0 0)
  triclinic box = (0.0048023897 0.0072035845 0.0096047793) to (6.3351982 9.5027964 12.670395) with tilt (0 0 0)
  triclinic box = (0.0048023897 0.0072035845 0.0096047793) to (6.3351982 9.5027964 12.670395) with tilt (0 0 0)
Neighbor list info ...
  update: every = 1 steps, delay = 0 steps, check = yes
  max neighbors/atom: 2000, page size: 100000
  master list distance cutoff = 5.403
  ghost atom cutoff = 5.403
  1 neighbor lists, perpetual/occasional/extra = 1 0 0
  (1) pair eam/alloy, perpetual
      attributes: half, newton on
      pair build: half/nsq/newton
      stencil: none
      bin: none
Setting up cg style minimization ...
  Unit style    : metal
  Current step  : 19
Per MPI rank memory allocation (min/avg/max) = 4.428 | 4.428 | 4.428 Mbytes
   Step          Temp          PotEng         Press           Pxx            Pyy            Pzz            Pxy            Pxz            Pyz             Lx             Ly             Lz           Volume    
        19   0             -427.2001      -0.32316299    -0.54862309    -0.211713      -0.20915288     6.6335029e-05  2.5143023e-05 -2.3405119e-05  6.3303959      9.4955928      12.66079       761.05102    
        20   0             -427.2001      -0.31638171    -0.54210523    -0.20362294    -0.20341695     1.4471732e-06 -1.2126057e-05  3.556654e-06   6.3303959      9.4955928      12.66079       761.05102    
        21   0             -427.2001      -0.3171387     -0.54279167    -0.20429524    -0.20432918    -7.341847e-07   5.1570395e-07  5.6641225e-07  6.3303959      9.4955928      12.66079       761.05102    
        22   0             -427.2001      -0.31721485    -0.54283591    -0.2044058     -0.20440284    -4.3834549e-07  1.3393573e-07  7.4727308e-08  6.3303959      9.4955928      12.66079       761.05102    
        23   0             -427.2001      -0.31722217    -0.54283845    -0.20441429    -0.20441377    -2.6853203e-07  2.922833e-08  -4.5665364e-09  6.3303959      9.4955928      12.66079       761.05102    
        24   0             -427.2001      -0.31722421    -0.54284232    -0.2044153     -0.20441501    -8.8021628e-08 -1.1387129e-08  2.4802991e-09  6.3303959      9.4955928      12.66079       761.05102    
        25   0             -427.2001      -0.31722528    -0.54284324    -0.20441627    -0.20441633    -2.520486e-08  -1.2899154e-09  5.5206054e-09  6.3303959      9.4955928      12.66079       761.05102    
        26   0             -427.2001      -0.31722557    -0.54284348    -0.20441662    -0.20441661    -9.1957984e-09 -1.3301194e-10  1.1672271e-09  6.3303959      9.4955928      12.66079       761.05102    
        27   0             -427.2001      -0.31722567    -0.54284355    -0.20441672    -0.20441675    -1.1622869e-09  3.337334e-10   2.1970233e-11  6.3303959      9.4955928      12.66079       761.05102    
        28   0             -427.2001      -0.31722571    -0.54284357    -0.20441678    -0.20441679    -4.8286535e-11 -5.0220937e-11  4.9549888e-11  6.3303959      9.4955928      12.66079       761.05102    
        29   0             -427.2001      -0.31722573    -0.54284358    -0.2044168     -0.2044168      3.9133109e-11  2.3494473e-11  6.076873e-11   6.3303959      9.4955928      12.66079       761.05102    
        30   0             -427.2001      -0.31722573    -0.54284358    -0.20441681    -0.20441681    -1.8312788e-11 -1.7245501e-11  1.7295716e-11  6.3303959      9.4955928      12.66079       761.05102    
        31   0             -427.2001      -0.31722573    -0.54284358    -0.20441681    -0.20441681     3.2158993e-11  6.5030119e-12  0              6.3303959      9.4955928      12.66079       761.05102    
        32   0             -427.2001      -0.31722573    -0.54284358    -0.20441681    -0.20441681     2.9966671e-11  1.4970782e-11  3.9733401e-11  6.3303959      9.4955928      12.66079       761.05102    
        33   0             -427.2001      -0.31722573    -0.54284358    -0.20441681    -0.20441681    -2.2555917e-11 -2.5994473e-11 -7.5259735e-11  6.3303959      9.4955928      12.66079       761.05102    
        34   0             -427.2001      -0.31722573    -0.54284358    -0.20441681    -0.20441681     4.1200807e-11 -9.1550247e-13 -3.2721624e-12  6.3303959      9.4955928      12.66079       761.05102    
        35   0             -427.2001      -0.31722573    -0.54284358    -0.20441681    -0.20441681     2.2281563e-12 -3.6445033e-11  8.8815837e-11  6.3303959      9.4955928      12.66079       761.05102    
        36   0             -427.2001      -0.31722573    -0.54284358    -0.20441681    -0.20441681     3.0504424e-11  5.6846518e-11 -2.3372589e-12  6.3303959      9.4955928      12.66079       761.05102    
        37   0             -427.2001      -0.31722573    -0.54284358    -0.20441681    -0.20441681     6.7926586e-13  2.1079382e-11 -4.6745177e-13  6.3303959      9.4955928      12.66079       761.05102    
        38   0             -427.2001      -0.31722573    -0.54284358    -0.20441681    -0.20441681     1.6759789e-11 -4.3916957e-11  3.1319269e-11  6.3303959      9.4955928      12.66079       761.05102    
        39   0             -427.2001      -0.31722573    -0.54284358    -0.20441681    -0.20441681    -2.4379618e-11  8.9886548e-11  2.8514558e-11  6.3303959      9.4955928      12.66079       761.05102    
        40   0             -427.2001      -0.31722573    -0.54284358    -0.20441681    -0.20441681     3.3110102e-11 -2.8671821e-11  2.1502782e-11  6.3303959      9.4955928      12.66079       761.05102    
        41   0             -427.2001      -0.31722573    -0.54284358    -0.20441681    -0.20441681     3.1061577e-11 -3.1422437e-11 -2.5709847e-11  6.3303959      9.4955928      12.66079       761.05102    
Loop time of 0.00116 on 1 procs for 22 steps with 48 atoms

0.0% CPU use with 1 MPI tasks x 1 OpenMP threads

Minimization stats:
  Stopping criterion = force tolerance
  Energy initial, next-to-last, final = 
     -427.200100267284  -427.200100306384  -427.200100306384
  Force two-norm initial, final = 0.0013214314 3.3766599e-11
  Force max component initial, final = 0.00030740766 9.739376e-12
  Final line search alpha, max atom move = 1 9.739376e-12
  Iterations, force evaluations = 22 44

MPI task timing breakdown:
Section |  min time  |  avg time  |  max time  |%varavg| %total
---------------------------------------------------------------
Pair    | 0.000889   | 0.000889   | 0.000889   |   0.0 | 76.64
Neigh   | 0          | 0          | 0          |   0.0 |  0.00
Comm    | 5.8e-05    | 5.8e-05    | 5.8e-05    |   0.0 |  5.00
Output  | 0.000159   | 0.000159   | 0.000159   |   0.0 | 13.71
Modify  | 0          | 0          | 0          |   0.0 |  0.00
Other   |            | 5.4e-05    |            |       |  4.66

Nlocal:             48 ave          48 max          48 min
Histogram: 1 0 0 0 0 0 0 0 0 0
Nghost:            498 ave         498 max         498 min
Histogram: 1 0 0 0 0 0 0 0 0 0
Neighs:           1200 ave        1200 max        1200 min
Histogram: 1 0 0 0 0 0 0 0 0 0

Total # of neighbors = 1200
Ave neighs/atom = 25
Neighbor list builds = 0
Dangerous builds = 0
OMP_NUM_THREADS environment is not set. Defaulting to 1 thread. (src/comm.cpp:98)
  using 1 OpenMP thread(s) per MPI task
Loaded 1 plugins from F:\Lammps\LAMMPS 64-bit 2Aug2023\plugins

The 'box' command has been removed and will be ignored

Reading restart file ...
  restart file = 2 Aug 2023, LAMMPS = 2 Aug 2023
  restoring atom style atomic from restart
  triclinic box = (0.0048023897 0.0072035845 0.0096047793) to (6.3351976 9.5027964 12.670395) with tilt (0 0 0)
  1 by 1 by 1 MPI processor grid
  pair style eam/alloy stores no restart info
  48 atoms
  read_restart CPU = 0.000 seconds
Changing box ...
  triclinic box = (0.0048023897 0.0072035845 0.0096047793) to (6.3351976 9.5027955 12.670395) with tilt (0 0 0)
  triclinic box = (0.0048023897 0.0072035845 0.0096047793) to (6.3351976 9.5027955 12.670395) with tilt (0 0 0)
Neighbor list info ...
  update: every = 1 steps, delay = 0 steps, check = yes
  max neighbors/atom: 2000, page size: 100000
  master list distance cutoff = 5.403
  ghost atom cutoff = 5.403
  1 neighbor lists, perpetual/occasional/extra = 1 0 0
  (1) pair eam/alloy, perpetual
      attributes: half, newton on
      pair build: half/nsq/newton
      stencil: none
      bin: none
Setting up cg style minimization ...
  Unit style    : metal
  Current step  : 19
Per MPI rank memory allocation (min/avg/max) = 4.428 | 4.428 | 4.428 Mbytes
   Step          Temp          PotEng         Press           Pxx            Pyy            Pzz            Pxy            Pxz            Pyz             Lx             Ly             Lz           Volume    
        19   0             -427.2001       0.31056836     0.19740638     0.53461726     0.19968143     6.6406309e-05  2.5174143e-05 -2.343475e-05   6.3303952      9.4955919      12.66079       761.05087    
        20   0             -427.2001       0.3179762      0.20496453     0.54354701     0.20541704     1.4494849e-06 -1.2152449e-05  3.5634753e-06  6.3303952      9.4955919      12.66079       761.05087    
        21   0             -427.2001       0.3173229      0.20446896     0.54299508     0.20450466    -7.3982359e-07  5.2183249e-07  5.6843222e-07  6.3303952      9.4955919      12.66079       761.05087    
        22   0             -427.2001       0.31724672     0.20442467     0.54288451     0.20443097    -4.4459564e-07  1.3651596e-07  7.5661291e-08  6.3303952      9.4955919      12.66079       761.05087    
        23   0             -427.2001       0.31723938     0.20442212     0.54287601     0.20442002    -2.7491948e-07  2.9563016e-08 -4.0747779e-09  6.3303952      9.4955919      12.66079       761.05087    
        24   0             -427.2001       0.31723733     0.20441824     0.54287498     0.20441878    -9.2384258e-08 -1.2355136e-08  2.4480454e-09  6.3303952      9.4955919      12.66079       761.05087    
        25   0             -427.2001       0.31723625     0.20441731     0.54287401     0.20441745    -2.7856385e-08 -1.3592548e-09  6.2166424e-09  6.3303952      9.4955919      12.66079       761.05087    
        26   0             -427.2001       0.31723596     0.20441707     0.54287365     0.20441716    -1.0510957e-08 -8.2569848e-11  1.3069954e-09  6.3303952      9.4955919      12.66079       761.05087    
        27   0             -427.2001       0.31723586     0.204417       0.54287355     0.20441702    -1.4253929e-09  4.7775772e-10 -5.3289513e-11  6.3303952      9.4955919      12.66079       761.05087    
        28   0             -427.2001       0.31723581     0.20441697     0.54287349     0.20441698    -6.7476266e-11  2.914818e-11   5.5626772e-11  6.3303952      9.4955919      12.66079       761.05087    
        29   0             -427.2001       0.3172358      0.20441697     0.54287347     0.20441697     8.340866e-12  -7.2459604e-11  8.0869173e-11  6.3303952      9.4955919      12.66079       761.05087    
        30   0             -427.2001       0.3172358      0.20441696     0.54287347     0.20441696     1.6692688e-11 -5.8560672e-11  3.9733409e-11  6.3303952      9.4955919      12.66079       761.05087    
        31   0             -427.2001       0.3172358      0.20441696     0.54287347     0.20441696     2.1983704e-11 -4.9306129e-12 -1.495846e-11   6.3303952      9.4955919      12.66079       761.05087    
        32   0             -427.2001       0.3172358      0.20441696     0.54287347     0.20441696    -1.6045148e-11  2.0118234e-11  3.0384371e-11  6.3303952      9.4955919      12.66079       761.05087    
        33   0             -427.2001       0.3172358      0.20441696     0.54287347     0.20441696    -1.6066147e-11 -2.3155758e-12 -5.5626772e-11  6.3303952      9.4955919      12.66079       761.05087    
        34   0             -427.2001       0.3172358      0.20441696     0.54287347     0.20441696    -2.4050262e-11  1.7687849e-11 -4.5342831e-11  6.3303952      9.4955919      12.66079       761.05087    
        35   0             -427.2001       0.3172358      0.20441696     0.54287347     0.20441696     1.1047202e-13  1.019675e-11  -1.9632978e-11  6.3303952      9.4955919      12.66079       761.05087    
        36   0             -427.2001       0.3172358      0.20441696     0.54287347     0.20441696     7.684653e-12  -5.4086098e-11  5.6561676e-11  6.3303952      9.4955919      12.66079       761.05087    
        37   0             -427.2001       0.3172358      0.20441696     0.54287347     0.20441696     4.5605316e-11 -2.2898522e-11 -3.2254179e-11  6.3303952      9.4955919      12.66079       761.05087    
        38   0             -427.2001       0.3172358      0.20441696     0.54287347     0.20441696    -2.1726241e-11 -3.3358442e-12  1.8230623e-11  6.3303952      9.4955919      12.66079       761.05087    
        39   0             -427.2001       0.3172358      0.20441696     0.54287347     0.20441696     6.0228251e-11 -7.6273628e-12  1.5893363e-11  6.3303952      9.4955919      12.66079       761.05087    
        40   0             -427.2001       0.3172358      0.20441696     0.54287347     0.20441696    -1.4543505e-11  7.1063868e-11  3.5993794e-11  6.3303952      9.4955919      12.66079       761.05087    
        41   0             -427.2001       0.3172358      0.20441696     0.54287347     0.20441696     1.8794852e-11 -2.4103672e-11  2.7112208e-11  6.3303952      9.4955919      12.66079       761.05087    
Loop time of 0.001276 on 1 procs for 22 steps with 48 atoms

0.0% CPU use with 1 MPI tasks x 1 OpenMP threads

Minimization stats:
  Stopping criterion = force tolerance
  Energy initial, next-to-last, final = 
     -427.200100267284  -427.200100306384  -427.200100306384
  Force two-norm initial, final = 0.0013214043 3.3719207e-11
  Force max component initial, final = 0.00030740278 9.7377661e-12
  Final line search alpha, max atom move = 1 9.7377661e-12
  Iterations, force evaluations = 22 44

MPI task timing breakdown:
Section |  min time  |  avg time  |  max time  |%varavg| %total
---------------------------------------------------------------
Pair    | 0.000969   | 0.000969   | 0.000969   |   0.0 | 75.94
Neigh   | 0          | 0          | 0          |   0.0 |  0.00
Comm    | 6.2e-05    | 6.2e-05    | 6.2e-05    |   0.0 |  4.86
Output  | 0.000191   | 0.000191   | 0.000191   |   0.0 | 14.97
Modify  | 0          | 0          | 0          |   0.0 |  0.00
Other   |            | 5.4e-05    |            |       |  4.23

Nlocal:             48 ave          48 max          48 min
Histogram: 1 0 0 0 0 0 0 0 0 0
Nghost:            498 ave         498 max         498 min
Histogram: 1 0 0 0 0 0 0 0 0 0
Neighs:           1200 ave        1200 max        1200 min
Histogram: 1 0 0 0 0 0 0 0 0 0

Total # of neighbors = 1200
Ave neighs/atom = 25
Neighbor list builds = 0
Dangerous builds = 0
OMP_NUM_THREADS environment is not set. Defaulting to 1 thread. (src/comm.cpp:98)
  using 1 OpenMP thread(s) per MPI task
Loaded 1 plugins from F:\Lammps\LAMMPS 64-bit 2Aug2023\plugins

The 'box' command has been removed and will be ignored

Reading restart file ...
  restart file = 2 Aug 2023, LAMMPS = 2 Aug 2023
  restoring atom style atomic from restart
  triclinic box = (0.0048023897 0.0072035845 0.0096047793) to (6.3351976 9.5027964 12.670395) with tilt (0 0 0)
  1 by 1 by 1 MPI processor grid
  pair style eam/alloy stores no restart info
  48 atoms
  read_restart CPU = 0.000 seconds
Changing box ...
  triclinic box = (0.0048023897 0.0072035845 0.0096047793) to (6.3351976 9.5027974 12.670395) with tilt (0 0 0)
  triclinic box = (0.0048023897 0.0072035845 0.0096047793) to (6.3351976 9.5027974 12.670395) with tilt (0 0 0)
Neighbor list info ...
  update: every = 1 steps, delay = 0 steps, check = yes
  max neighbors/atom: 2000, page size: 100000
  master list distance cutoff = 5.403
  ghost atom cutoff = 5.403
  1 neighbor lists, perpetual/occasional/extra = 1 0 0
  (1) pair eam/alloy, perpetual
      attributes: half, newton on
      pair build: half/nsq/newton
      stencil: none
      bin: none
Setting up cg style minimization ...
  Unit style    : metal
  Current step  : 19
Per MPI rank memory allocation (min/avg/max) = 4.428 | 4.428 | 4.428 Mbytes
   Step          Temp          PotEng         Press           Pxx            Pyy            Pzz            Pxy            Pxz            Pyz             Lx             Ly             Lz           Volume    
        19   0             -427.2001      -0.32325739    -0.21142794    -0.54919134    -0.20915288     6.6335453e-05  2.5143482e-05 -2.3405184e-05  6.3303952      9.4955938      12.66079       761.05102    
        20   0             -427.2001      -0.31642382    -0.20386947    -0.54198503    -0.20341695     1.4464806e-06 -1.2127017e-05  3.5570836e-06  6.3303952      9.4955938      12.66079       761.05102    
        21   0             -427.2001      -0.3171387     -0.2043649     -0.54272201    -0.20432918    -7.3438428e-07  5.1569497e-07  5.6601585e-07  6.3303952      9.4955938      12.66079       761.05102    
        22   0             -427.2001      -0.31721485    -0.20440914    -0.54283257    -0.20440284    -4.3835473e-07  1.3394193e-07  7.4718426e-08  6.3303952      9.4955938      12.66079       761.05102    
        23   0             -427.2001      -0.31722217    -0.20441167    -0.54284107    -0.20441377    -2.6846789e-07  2.9202958e-08 -4.5225959e-09  6.3303952      9.4955938      12.66079       761.05102    
        24   0             -427.2001      -0.31722421    -0.20441554    -0.54284207    -0.20441501    -8.8049753e-08 -1.1425792e-08  2.4279445e-09  6.3303952      9.4955938      12.66079       761.05102    
        25   0             -427.2001      -0.31722528    -0.20441647    -0.54284305    -0.20441633    -2.5189748e-08 -1.2945139e-09  5.5827765e-09  6.3303952      9.4955938      12.66079       761.05102    
        26   0             -427.2001      -0.31722557    -0.20441671    -0.5428434     -0.20441661    -9.1433263e-09 -1.5732126e-10  1.2677292e-09  6.3303952      9.4955938      12.66079       761.05102    
        27   0             -427.2001      -0.31722567    -0.20441678    -0.54284349    -0.20441675    -1.1561317e-09  3.7502756e-10 -2.103533e-11   6.3303952      9.4955938      12.66079       761.05102    
        28   0             -427.2001      -0.31722571    -0.2044168     -0.54284356    -0.20441679    -3.603373e-11  -3.8494927e-11  1.2621198e-10  6.3303952      9.4955938      12.66079       761.05102    
        29   0             -427.2001      -0.31722573    -0.20441681    -0.54284358    -0.2044168      7.779557e-11  -4.7395684e-12  7.4792283e-12  6.3303952      9.4955938      12.66079       761.05102    
        30   0             -427.2001      -0.31722573    -0.20441681    -0.54284358    -0.20441681    -7.9530711e-12 -1.953323e-11  -1.2153746e-11  6.3303952      9.4955938      12.66079       761.05102    
        31   0             -427.2001      -0.31722573    -0.20441681    -0.54284358    -0.20441681    -7.2959453e-12  6.6563945e-12 -6.3105989e-11  6.3303952      9.4955938      12.66079       761.05102    
        32   0             -427.2001      -0.31722573    -0.20441681    -0.54284358    -0.20441681     3.5422482e-11  1.396923e-11   4.6745177e-11  6.3303952      9.4955938      12.66079       761.05102    
        33   0             -427.2001      -0.31722573    -0.20441681    -0.54284358    -0.20441681     3.3748283e-11 -1.5869394e-11 -3.4591431e-11  6.3303952      9.4955938      12.66079       761.05102    
        34   0             -427.2001      -0.31722573    -0.20441681    -0.54284358    -0.20441681    -4.1762068e-11 -3.0292609e-11 -1.4023553e-11  6.3303952      9.4955938      12.66079       761.05102    
        35   0             -427.2001      -0.31722573    -0.20441681    -0.54284358    -0.20441681     2.147174e-11   1.9429377e-11 -6.5443248e-12  6.3303952      9.4955938      12.66079       761.05102    
        36   0             -427.2001      -0.31722573    -0.20441681    -0.54284358    -0.20441681    -2.5569247e-11  3.6369939e-11  7.9466801e-12  6.3303952      9.4955938      12.66079       761.05102    
        37   0             -427.2001      -0.31722573    -0.20441681    -0.54284358    -0.20441681    -1.3553819e-11 -3.640623e-11  -2.8514558e-11  6.3303952      9.4955938      12.66079       761.05102    
        38   0             -427.2001      -0.31722573    -0.20441681    -0.54284358    -0.20441681     2.1379984e-11  3.6244631e-11 -2.8514558e-11  6.3303952      9.4955938      12.66079       761.05102    
        39   0             -427.2001      -0.31722573    -0.20441681    -0.54284358    -0.20441681    -3.9540075e-11 -1.9628866e-11  2.8514558e-11  6.3303952      9.4955938      12.66079       761.05102    
        40   0             -427.2001      -0.31722573    -0.20441681    -0.54284358    -0.20441681     4.6564861e-11  4.3100971e-11 -3.2721624e-12  6.3303952      9.4955938      12.66079       761.05102    
        41   0             -427.2001      -0.31722573    -0.20441681    -0.54284358    -0.20441681    -2.6235046e-11 -3.4742759e-11  2.1502782e-11  6.3303952      9.4955938      12.66079       761.05102    
Loop time of 0.001109 on 1 procs for 22 steps with 48 atoms

0.0% CPU use with 1 MPI tasks x 1 OpenMP threads

Minimization stats:
  Stopping criterion = force tolerance
  Energy initial, next-to-last, final = 
     -427.200100267283  -427.200100306384  -427.200100306384
  Force two-norm initial, final = 0.00132143 3.3691448e-11
  Force max component initial, final = 0.00030740253 9.6984087e-12
  Final line search alpha, max atom move = 1 9.6984087e-12
  Iterations, force evaluations = 22 44

MPI task timing breakdown:
Section |  min time  |  avg time  |  max time  |%varavg| %total
---------------------------------------------------------------
Pair    | 0.000826   | 0.000826   | 0.000826   |   0.0 | 74.48
Neigh   | 0          | 0          | 0          |   0.0 |  0.00
Comm    | 5.7e-05    | 5.7e-05    | 5.7e-05    |   0.0 |  5.14
Output  | 0.000165   | 0.000165   | 0.000165   |   0.0 | 14.88
Modify  | 0          | 0          | 0          |   0.0 |  0.00
Other   |            | 6.1e-05    |            |       |  5.50

Nlocal:             48 ave          48 max          48 min
Histogram: 1 0 0 0 0 0 0 0 0 0
Nghost:            498 ave         498 max         498 min
Histogram: 1 0 0 0 0 0 0 0 0 0
Neighs:           1200 ave        1200 max        1200 min
Histogram: 1 0 0 0 0 0 0 0 0 0

Total # of neighbors = 1200
Ave neighs/atom = 25
Neighbor list builds = 0
Dangerous builds = 0
OMP_NUM_THREADS environment is not set. Defaulting to 1 thread. (src/comm.cpp:98)
  using 1 OpenMP thread(s) per MPI task
Loaded 1 plugins from F:\Lammps\LAMMPS 64-bit 2Aug2023\plugins

The 'box' command has been removed and will be ignored

Reading restart file ...
  restart file = 2 Aug 2023, LAMMPS = 2 Aug 2023
  restoring atom style atomic from restart
  triclinic box = (0.0048023897 0.0072035845 0.0096047793) to (6.3351976 9.5027964 12.670395) with tilt (0 0 0)
  1 by 1 by 1 MPI processor grid
  pair style eam/alloy stores no restart info
  48 atoms
  read_restart CPU = 0.000 seconds
Changing box ...
  triclinic box = (0.0048023897 0.0072035845 0.0096047793) to (6.3351976 9.5027964 12.670394) with tilt (0 0 0)
Neighbor list info ...
  update: every = 1 steps, delay = 0 steps, check = yes
  max neighbors/atom: 2000, page size: 100000
  master list distance cutoff = 5.403
  ghost atom cutoff = 5.403
  1 neighbor lists, perpetual/occasional/extra = 1 0 0
  (1) pair eam/alloy, perpetual
      attributes: half, newton on
      pair build: half/nsq/newton
      stencil: none
      bin: none
Setting up cg style minimization ...
  Unit style    : metal
  Current step  : 19
Per MPI rank memory allocation (min/avg/max) = 4.428 | 4.428 | 4.428 Mbytes
   Step          Temp          PotEng         Press           Pxx            Pyy            Pzz            Pxy            Pxz            Pyz             Lx             Ly             Lz           Volume    
        19   0             -427.2001       0.31055375     0.19740638     0.19712132     0.53713354     6.6406109e-05  2.5174798e-05 -2.3434429e-05  6.3303952      9.4955928      12.660789      761.05087    
        20   0             -427.2001       0.31799488     0.20496454     0.20521106     0.54380906     1.4496293e-06 -1.215375e-05   3.5643139e-06  6.3303952      9.4955928      12.660789      761.05087    
        21   0             -427.2001       0.3173229      0.20446896     0.2045386      0.54296116    -7.3986258e-07  5.2181134e-07  5.6830975e-07  6.3303952      9.4955928      12.660789      761.05087    
        22   0             -427.2001       0.31724672     0.20442467     0.20442801     0.54288748    -4.4454687e-07  1.3657929e-07  7.5680924e-08  6.3303952      9.4955928      12.660789      761.05087    
        23   0             -427.2001       0.31723938     0.20442212     0.2044195      0.54287653    -2.7492609e-07  2.967174e-08  -3.9653942e-09  6.3303952      9.4955928      12.660789      761.05087    
        24   0             -427.2001       0.31723733     0.20441824     0.20441848     0.54287528    -9.240479e-08  -1.2343061e-08  2.4363591e-09  6.3303952      9.4955928      12.660789      761.05087    
        25   0             -427.2001       0.31723625     0.20441731     0.2044175      0.54287395    -2.7918628e-08 -1.2908067e-09  6.2512338e-09  6.3303952      9.4955928      12.660789      761.05087    
        26   0             -427.2001       0.31723596     0.20441707     0.20441715     0.54287367    -1.0496783e-08 -1.4612025e-10  1.3948764e-09  6.3303952      9.4955928      12.660789      761.05087    
        27   0             -427.2001       0.31723586     0.204417       0.20441705     0.54287353    -1.4777683e-09  5.1333975e-10 -6.6845617e-11  6.3303952      9.4955928      12.660789      761.05087    
        28   0             -427.2001       0.31723581     0.20441698     0.20441699     0.54287348    -4.7066103e-11  3.6345524e-11  5.7029128e-11  6.3303952      9.4955928      12.660789      761.05087    
        29   0             -427.2001       0.3172358      0.20441697     0.20441697     0.54287347     5.3456134e-11 -5.2202596e-12  4.0668312e-11  6.3303952      9.4955928      12.660789      761.05087    
        30   0             -427.2001       0.3172358      0.20441696     0.20441696     0.54287347     2.4119877e-11  2.4362048e-11 -3.1319275e-11  6.3303952      9.4955928      12.660789      761.05087    
        31   0             -427.2001       0.3172358      0.20441696     0.20441696     0.54287347    -3.6331829e-11  1.1124807e-11  3.5993794e-11  6.3303952      9.4955928      12.660789      761.05087    
        32   0             -427.2001       0.3172358      0.20441696     0.20441696     0.54287347    -6.4799602e-13  2.4616545e-11  5.9833839e-11  6.3303952      9.4955928      12.660789      761.05087    
        33   0             -427.2001       0.3172358      0.20441696     0.20441696     0.54287347     5.0908201e-11 -2.7001051e-11 -1.4023556e-11  6.3303952      9.4955928      12.660789      761.05087    
        34   0             -427.2001       0.3172358      0.20441696     0.20441696     0.54287347    -5.5143114e-11  6.8647863e-12  7.011778e-12   6.3303952      9.4955928      12.660789      761.05087    
        35   0             -427.2001       0.3172358      0.20441696     0.20441696     0.54287347    -1.6861135e-11 -6.7864972e-12  5.2354609e-11  6.3303952      9.4955928      12.660789      761.05087    
        36   0             -427.2001       0.3172358      0.20441696     0.20441696     0.54287347     1.1622387e-12  3.9002102e-11 -3.4123986e-11  6.3303952      9.4955928      12.660789      761.05087    
        37   0             -427.2001       0.3172358      0.20441696     0.20441696     0.54287347    -5.0159776e-12 -7.1663019e-12  7.8531913e-11  6.3303952      9.4955928      12.660789      761.05087    
        38   0             -427.2001       0.3172358      0.20441696     0.20441696     0.54287347    -5.1991466e-11  7.856752e-12  -7.8999365e-11  6.3303952      9.4955928      12.660789      761.05087    
        39   0             -427.2001       0.3172358      0.20441696     0.20441696     0.54287347     2.5734275e-11  4.5033327e-12 -4.6745187e-13  6.3303952      9.4955928      12.660789      761.05087    
        40   0             -427.2001       0.3172358      0.20441696     0.20441696     0.54287347     2.5870767e-11 -2.1622159e-11  9.3490373e-12  6.3303952      9.4955928      12.660789      761.05087    
        41   0             -427.2001       0.3172358      0.20441696     0.20441696     0.54287347     6.353739e-12  -3.4022188e-11 -1.8230623e-11  6.3303952      9.4955928      12.660789      761.05087    
Loop time of 0.001132 on 1 procs for 22 steps with 48 atoms

0.0% CPU use with 1 MPI tasks x 1 OpenMP threads

Minimization stats:
  Stopping criterion = force tolerance
  Energy initial, next-to-last, final = 
     -427.200100267284  -427.200100306384  -427.200100306384
  Force two-norm initial, final = 0.0013214084 3.3696824e-11
  Force max component initial, final = 0.00030740279 9.7235553e-12
  Final line search alpha, max atom move = 1 9.7235553e-12
  Iterations, force evaluations = 22 44

MPI task timing breakdown:
Section |  min time  |  avg time  |  max time  |%varavg| %total
---------------------------------------------------------------
Pair    | 0.000841   | 0.000841   | 0.000841   |   0.0 | 74.29
Neigh   | 0          | 0          | 0          |   0.0 |  0.00
Comm    | 6.7e-05    | 6.7e-05    | 6.7e-05    |   0.0 |  5.92
Output  | 0.000173   | 0.000173   | 0.000173   |   0.0 | 15.28
Modify  | 0          | 0          | 0          |   0.0 |  0.00
Other   |            | 5.1e-05    |            |       |  4.51

Nlocal:             48 ave          48 max          48 min
Histogram: 1 0 0 0 0 0 0 0 0 0
Nghost:            498 ave         498 max         498 min
Histogram: 1 0 0 0 0 0 0 0 0 0
Neighs:           1200 ave        1200 max        1200 min
Histogram: 1 0 0 0 0 0 0 0 0 0

Total # of neighbors = 1200
Ave neighs/atom = 25
Neighbor list builds = 0
Dangerous builds = 0
OMP_NUM_THREADS environment is not set. Defaulting to 1 thread. (src/comm.cpp:98)
  using 1 OpenMP thread(s) per MPI task
Loaded 1 plugins from F:\Lammps\LAMMPS 64-bit 2Aug2023\plugins

The 'box' command has been removed and will be ignored

Reading restart file ...
  restart file = 2 Aug 2023, LAMMPS = 2 Aug 2023
  restoring atom style atomic from restart
  triclinic box = (0.0048023897 0.0072035845 0.0096047793) to (6.3351976 9.5027964 12.670395) with tilt (0 0 0)
  1 by 1 by 1 MPI processor grid
  pair style eam/alloy stores no restart info
  48 atoms
  read_restart CPU = 0.000 seconds
Changing box ...
  triclinic box = (0.0048023897 0.0072035845 0.0096047793) to (6.3351976 9.5027964 12.670396) with tilt (0 0 0)
Neighbor list info ...
  update: every = 1 steps, delay = 0 steps, check = yes
  max neighbors/atom: 2000, page size: 100000
  master list distance cutoff = 5.403
  ghost atom cutoff = 5.403
  1 neighbor lists, perpetual/occasional/extra = 1 0 0
  (1) pair eam/alloy, perpetual
      attributes: half, newton on
      pair build: half/nsq/newton
      stencil: none
      bin: none
Setting up cg style minimization ...
  Unit style    : metal
  Current step  : 19
Per MPI rank memory allocation (min/avg/max) = 4.428 | 4.428 | 4.428 Mbytes
   Step          Temp          PotEng         Press           Pxx            Pyy            Pzz            Pxy            Pxz            Pyz             Lx             Ly             Lz           Volume    
        19   0             -427.2001      -0.32327735    -0.21142794    -0.211713      -0.54669112     6.6335534e-05  2.5142943e-05 -2.3405404e-05  6.3303952      9.4955928      12.660792      761.05102    
        20   0             -427.2001      -0.31642423    -0.20386947    -0.20362294    -0.54178028     1.4465266e-06 -1.2125573e-05  3.556496e-06   6.3303952      9.4955928      12.660792      761.05102    
        21   0             -427.2001      -0.3171387     -0.20436489    -0.20429526    -0.54275595    -7.3424879e-07  5.158344e-07   5.6622153e-07  6.3303952      9.4955928      12.660792      761.05102    
        22   0             -427.2001      -0.31721485    -0.20440914    -0.2044058     -0.54282961    -4.3840597e-07  1.3397954e-07  7.4794153e-08  6.3303952      9.4955928      12.660792      761.05102    
        23   0             -427.2001      -0.31722217    -0.20441167    -0.20441429    -0.54284054    -2.6849489e-07  2.9308219e-08 -4.4795903e-09  6.3303952      9.4955928      12.660792      761.05102    
        24   0             -427.2001      -0.31722421    -0.20441554    -0.2044153     -0.54284178    -8.8017739e-08 -1.1374876e-08  2.4933878e-09  6.3303952      9.4955928      12.660792      761.05102    
        25   0             -427.2001      -0.31722528    -0.20441647    -0.20441627    -0.5428431     -2.5207236e-08 -1.2743555e-09  5.6126934e-09  6.3303952      9.4955928      12.660792      761.05102    
        26   0             -427.2001      -0.31722557    -0.20441671    -0.20441662    -0.54284338    -9.2174096e-09 -1.3093968e-10  1.1751738e-09  6.3303952      9.4955928      12.660792      761.05102    
        27   0             -427.2001      -0.31722567    -0.20441678    -0.20441672    -0.54284352    -1.1832177e-09  3.3118136e-10  2.6177299e-11  6.3303952      9.4955928      12.660792      761.05102    
        28   0             -427.2001      -0.31722571    -0.2044168     -0.20441678    -0.54284356    -3.4047516e-11  3.4183552e-11  5.001734e-11   6.3303952      9.4955928      12.660792      761.05102    
        29   0             -427.2001      -0.31722573    -0.20441681    -0.2044168     -0.54284357     5.4699846e-11  1.9459049e-11  9.489271e-11   6.3303952      9.4955928      12.660792      761.05102    
        30   0             -427.2001      -0.31722573    -0.20441681    -0.20441681    -0.54284358     2.5482741e-11 -5.0920288e-11  9.769742e-11   6.3303952      9.4955928      12.660792      761.05102    
        31   0             -427.2001      -0.31722573    -0.20441681    -0.20441681    -0.54284358    -4.2770239e-11 -2.5296262e-11 -1.9165523e-11  6.3303952      9.4955928      12.660792      761.05102    
        32   0             -427.2001      -0.31722573    -0.20441681    -0.20441681    -0.54284358    -5.261891e-11   5.7411203e-12 -3.178672e-11   6.3303952      9.4955928      12.660792      761.05102    
        33   0             -427.2001      -0.31722573    -0.20441681    -0.20441681    -0.54284358     1.2602482e-11  2.2647217e-11  4.5810274e-11  6.3303952      9.4955928      12.660792      761.05102    
        34   0             -427.2001      -0.31722573    -0.20441681    -0.20441681    -0.54284358     1.3012415e-12  3.1924126e-11 -1.7763167e-11  6.3303952      9.4955928      12.660792      761.05102    
        35   0             -427.2001      -0.31722573    -0.20441681    -0.20441681    -0.54284358    -2.3184056e-11 -6.5773295e-11  1.2153746e-11  6.3303952      9.4955928      12.660792      761.05102    
        36   0             -427.2001      -0.31722573    -0.20441681    -0.20441681    -0.54284358    -5.5301051e-11 -1.4995889e-12  3.1319269e-11  6.3303952      9.4955928      12.660792      761.05102    
        37   0             -427.2001      -0.31722573    -0.20441681    -0.20441681    -0.54284358    -2.1530171e-11 -2.7869301e-11 -2.9916913e-11  6.3303952      9.4955928      12.660792      761.05102    
        38   0             -427.2001      -0.31722573    -0.20441681    -0.20441681    -0.54284358     5.1716417e-11  3.2618912e-12 -6.2638537e-11  6.3303952      9.4955928      12.660792      761.05102    
        39   0             -427.2001      -0.31722573    -0.20441681    -0.20441681    -0.54284358     5.2022269e-11  2.0338717e-11  3.178672e-11   6.3303952      9.4955928      12.660792      761.05102    
        40   0             -427.2001      -0.31722573    -0.20441681    -0.20441681    -0.54284358    -1.0438006e-11  3.9731118e-12 -3.178672e-11   6.3303952      9.4955928      12.660792      761.05102    
        41   0             -427.2001      -0.31722573    -0.20441681    -0.20441681    -0.54284358    -3.3746457e-12 -6.4915539e-11  2.3372589e-12  6.3303952      9.4955928      12.660792      761.05102    
Loop time of 0.001193 on 1 procs for 22 steps with 48 atoms

0.0% CPU use with 1 MPI tasks x 1 OpenMP threads

Minimization stats:
  Stopping criterion = force tolerance
  Energy initial, next-to-last, final = 
     -427.200100267284  -427.200100306384  -427.200100306384
  Force two-norm initial, final = 0.0013214258 3.3710245e-11
  Force max component initial, final = 0.00030740252 9.711898e-12
  Final line search alpha, max atom move = 1 9.711898e-12
  Iterations, force evaluations = 22 44

MPI task timing breakdown:
Section |  min time  |  avg time  |  max time  |%varavg| %total
---------------------------------------------------------------
Pair    | 0.000915   | 0.000915   | 0.000915   |   0.0 | 76.70
Neigh   | 0          | 0          | 0          |   0.0 |  0.00
Comm    | 6e-05      | 6e-05      | 6e-05      |   0.0 |  5.03
Output  | 0.000167   | 0.000167   | 0.000167   |   0.0 | 14.00
Modify  | 0          | 0          | 0          |   0.0 |  0.00
Other   |            | 5.1e-05    |            |       |  4.27

Nlocal:             48 ave          48 max          48 min
Histogram: 1 0 0 0 0 0 0 0 0 0
Nghost:            498 ave         498 max         498 min
Histogram: 1 0 0 0 0 0 0 0 0 0
Neighs:           1200 ave        1200 max        1200 min
Histogram: 1 0 0 0 0 0 0 0 0 0

Total # of neighbors = 1200
Ave neighs/atom = 25
Neighbor list builds = 0
Dangerous builds = 0
OMP_NUM_THREADS environment is not set. Defaulting to 1 thread. (src/comm.cpp:98)
  using 1 OpenMP thread(s) per MPI task
Loaded 1 plugins from F:\Lammps\LAMMPS 64-bit 2Aug2023\plugins

The 'box' command has been removed and will be ignored

Reading restart file ...
  restart file = 2 Aug 2023, LAMMPS = 2 Aug 2023
  restoring atom style atomic from restart
  triclinic box = (0.0048023897 0.0072035845 0.0096047793) to (6.3351976 9.5027964 12.670395) with tilt (0 0 0)
  1 by 1 by 1 MPI processor grid
  pair style eam/alloy stores no restart info
  48 atoms
  read_restart CPU = 0.000 seconds
Changing box ...
  triclinic box = (0.0048023897 0.0072035845 0.0096047793) to (6.3351976 9.5027964 12.670395) with tilt (0 0 -1.266079e-06)
Neighbor list info ...
  update: every = 1 steps, delay = 0 steps, check = yes
  max neighbors/atom: 2000, page size: 100000
  master list distance cutoff = 5.403
  ghost atom cutoff = 5.403
  1 neighbor lists, perpetual/occasional/extra = 1 0 0
  (1) pair eam/alloy, perpetual
      attributes: half, newton on
      pair build: half/nsq/newton
      stencil: none
      bin: none
Setting up cg style minimization ...
  Unit style    : metal
  Current step  : 19
Per MPI rank memory allocation (min/avg/max) = 4.428 | 4.428 | 4.428 Mbytes
   Step          Temp          PotEng         Press           Pxx            Pyy            Pzz            Pxy            Pxz            Pyz             Lx             Ly             Lz           Volume    
        19   0             -427.2001      -0.006347501   -0.0070108192  -0.0072959051  -0.0047357785   6.6386176e-05  2.5194078e-05  0.16059055     6.3303952      9.4955928      12.66079       761.05094    
        20   0             -427.2001       0.00078050953  0.00054751114  0.00079400531  0.0010000121   1.434021e-06  -1.2138576e-05  0.16061736     6.3303952      9.4955928      12.66079       761.05094    
        21   0             -427.2001       8.7108946e-05  5.2010142e-05  0.00012161519  8.7701504e-05 -7.341178e-07   5.1603615e-07  0.1606143      6.3303952      9.4955928      12.66079       761.05094    
        22   0             -427.2001       1.0942788e-05  7.7464072e-06  1.1051411e-05  1.4030547e-05 -4.401216e-07   1.3225943e-07  0.16061379     6.3303952      9.4955928      12.66079       761.05094    
        23   0             -427.2001       3.6139046e-06  5.2030112e-06  2.5510033e-06  3.0876994e-06 -2.7149101e-07  2.6199857e-08  0.1606137      6.3303952      9.4955928      12.66079       761.05094    
        24   0             -427.2001       1.5689328e-06  1.3266926e-06  1.5348547e-06  1.8452511e-06 -9.0699313e-08 -1.4045538e-08  0.1606137      6.3303952      9.4955928      12.66079       761.05094    
        25   0             -427.2001       4.936833e-07   4.0052244e-07  5.6099033e-07  5.1953712e-07 -2.6535604e-08 -2.5934186e-09  0.1606137      6.3303952      9.4955928      12.66079       761.05094    
        26   0             -427.2001       2.0169688e-07  1.5725996e-07  2.0889206e-07  2.3893863e-07 -9.8131044e-09 -8.3244085e-10  0.16061369     6.3303952      9.4955928      12.66079       761.05094    
        27   0             -427.2001       9.8426516e-08  8.7974566e-08  1.0947722e-07  9.7827765e-08 -1.268816e-09   2.4729297e-10  0.16061369     6.3303952      9.4955928      12.66079       761.05094    
        28   0             -427.2001       5.657403e-08   6.7868055e-08  4.7486093e-08  5.4367941e-08 -2.4214598e-11 -4.709714e-11   0.16061369     6.3303952      9.4955928      12.66079       761.05094    
        29   0             -427.2001       4.3507865e-08  5.784267e-08   2.7398286e-08  4.5282638e-08  4.9248149e-11  6.7226328e-11  0.16061369     6.3303952      9.4955928      12.66079       761.05094    
        30   0             -427.2001       4.0449562e-08  5.6328434e-08  2.4766532e-08  4.0253721e-08  5.2562994e-11  4.7235915e-12  0.16061369     6.3303952      9.4955928      12.66079       761.05094    
        31   0             -427.2001       3.988294e-08   5.6015132e-08  2.3934468e-08  3.9699222e-08 -1.6303523e-11 -2.8216013e-11  0.16061369     6.3303952      9.4955928      12.66079       761.05094    
        32   0             -427.2001       3.9813251e-08  5.5956648e-08  2.3878841e-08  3.9604266e-08 -6.0065048e-11 -5.1093077e-11  0.16061369     6.3303952      9.4955928      12.66079       761.05094    
        33   0             -427.2001       3.9854177e-08  5.5916269e-08  2.3853131e-08  3.9793129e-08  4.4633203e-11  3.8323973e-11  0.16061369     6.3303952      9.4955928      12.66079       761.05094    
        34   0             -427.2001       3.9849333e-08  5.593783e-08   2.3877439e-08  3.9732731e-08  5.6388658e-12  1.4375056e-12  0.16061369     6.3303952      9.4955928      12.66079       761.05094    
        35   0             -427.2001       3.979881e-08   5.5953907e-08  2.3844717e-08  3.9597805e-08  2.9136308e-11  3.0162968e-12  0.16061369     6.3303952      9.4955928      12.66079       761.05094    
        36   0             -427.2001       3.977294e-08   5.5904431e-08  2.3854066e-08  3.9560321e-08  1.4711494e-11 -1.7293891e-11  0.16061369     6.3303952      9.4955928      12.66079       761.05094    
        37   0             -427.2001       3.9795108e-08  5.5918448e-08  2.3752162e-08  3.9714714e-08 -3.1152423e-11  5.6568974e-11  0.16061369     6.3303952      9.4955928      12.66079       761.05094    
        38   0             -427.2001       3.9785468e-08  5.5928342e-08  2.383864e-08   3.9589421e-08  1.9628183e-11  7.1697933e-11  0.16061369     6.3303952      9.4955928      12.66079       761.05094    
        39   0             -427.2001       3.980065e-08   5.5924427e-08  2.3848457e-08  3.9629065e-08  7.4942706e-11  2.2064502e-11  0.16061369     6.3303952      9.4955928      12.66079       761.05094    
        40   0             -427.2001       3.9857287e-08  5.5997608e-08  2.3818073e-08  3.9756179e-08  1.242171e-11   3.8955079e-12  0.16061369     6.3303952      9.4955928      12.66079       761.05094    
        41   0             -427.2001       3.9798505e-08  5.5951874e-08  2.3825084e-08  3.9618557e-08 -3.0695242e-11 -5.4674516e-12  0.16061369     6.3303952      9.4955928      12.66079       761.05094    
Loop time of 0.00112 on 1 procs for 22 steps with 48 atoms

0.0% CPU use with 1 MPI tasks x 1 OpenMP threads

Minimization stats:
  Stopping criterion = force tolerance
  Energy initial, next-to-last, final = 
     -427.200100267293  -427.200100306393  -427.200100306393
  Force two-norm initial, final = 0.0013214173 3.3706323e-11
  Force max component initial, final = 0.00030740267 9.7326036e-12
  Final line search alpha, max atom move = 1 9.7326036e-12
  Iterations, force evaluations = 22 44

MPI task timing breakdown:
Section |  min time  |  avg time  |  max time  |%varavg| %total
---------------------------------------------------------------
Pair    | 0.000826   | 0.000826   | 0.000826   |   0.0 | 73.75
Neigh   | 0          | 0          | 0          |   0.0 |  0.00
Comm    | 5.2e-05    | 5.2e-05    | 5.2e-05    |   0.0 |  4.64
Output  | 0.000174   | 0.000174   | 0.000174   |   0.0 | 15.54
Modify  | 0          | 0          | 0          |   0.0 |  0.00
Other   |            | 6.8e-05    |            |       |  6.07

Nlocal:             48 ave          48 max          48 min
Histogram: 1 0 0 0 0 0 0 0 0 0
Nghost:            498 ave         498 max         498 min
Histogram: 1 0 0 0 0 0 0 0 0 0
Neighs:           1200 ave        1200 max        1200 min
Histogram: 1 0 0 0 0 0 0 0 0 0

Total # of neighbors = 1200
Ave neighs/atom = 25
Neighbor list builds = 0
Dangerous builds = 0
OMP_NUM_THREADS environment is not set. Defaulting to 1 thread. (src/comm.cpp:98)
  using 1 OpenMP thread(s) per MPI task
Loaded 1 plugins from F:\Lammps\LAMMPS 64-bit 2Aug2023\plugins

The 'box' command has been removed and will be ignored

Reading restart file ...
  restart file = 2 Aug 2023, LAMMPS = 2 Aug 2023
  restoring atom style atomic from restart
  triclinic box = (0.0048023897 0.0072035845 0.0096047793) to (6.3351976 9.5027964 12.670395) with tilt (0 0 0)
  1 by 1 by 1 MPI processor grid
  pair style eam/alloy stores no restart info
  48 atoms
  read_restart CPU = 0.000 seconds
Changing box ...
  triclinic box = (0.0048023897 0.0072035845 0.0096047793) to (6.3351976 9.5027964 12.670395) with tilt (0 0 1.266079e-06)
Neighbor list info ...
  update: every = 1 steps, delay = 0 steps, check = yes
  max neighbors/atom: 2000, page size: 100000
  master list distance cutoff = 5.403
  ghost atom cutoff = 5.403
  1 neighbor lists, perpetual/occasional/extra = 1 0 0
  (1) pair eam/alloy, perpetual
      attributes: half, newton on
      pair build: half/nsq/newton
      stencil: none
      bin: none
Setting up cg style minimization ...
  Unit style    : metal
  Current step  : 19
Per MPI rank memory allocation (min/avg/max) = 4.428 | 4.428 | 4.428 Mbytes
   Step          Temp          PotEng         Press           Pxx            Pyy            Pzz            Pxy            Pxz            Pyz             Lx             Ly             Lz           Volume    
        19   0             -427.2001      -0.0063474715  -0.0070107894  -0.0072958755  -0.0047357497   6.6355526e-05  2.5123458e-05 -0.16063739     6.3303952      9.4955928      12.66079       761.05094    
        20   0             -427.2001       0.00078050261  0.00054750601  0.00079399741  0.0010000044   1.4619459e-06 -1.214079e-05  -0.16061024     6.3303952      9.4955928      12.66079       761.05094    
        21   0             -427.2001       8.7106634e-05  5.2007846e-05  0.00012161294  8.769912e-05  -7.4001351e-07  5.2163414e-07 -0.16061316     6.3303952      9.4955928      12.66079       761.05094    
        22   0             -427.2001       1.0941956e-05  7.7455851e-06  1.1050528e-05  1.4029755e-05 -4.4282596e-07  1.3837085e-07 -0.16061364     6.3303952      9.4955928      12.66079       761.05094    
        23   0             -427.2001       3.6133309e-06  5.202469e-06   2.5503512e-06  3.0871726e-06 -2.7193145e-07  3.2621207e-08 -0.16061371     6.3303952      9.4955928      12.66079       761.05094    
        24   0             -427.2001       1.5687731e-06  1.3265152e-06  1.534756e-06   1.845048e-06  -8.9755787e-08 -9.6065291e-09 -0.16061369     6.3303952      9.4955928      12.66079       761.05094    
        25   0             -427.2001       4.9305499e-07  3.9993174e-07  5.6040134e-07  5.1883187e-07 -2.6561025e-08  4.5612844e-11 -0.16061369     6.3303952      9.4955928      12.66079       761.05094    
        26   0             -427.2001       2.0134823e-07  1.5692888e-07  2.0857373e-07  2.3854207e-07 -9.8585956e-09  5.3873799e-10 -0.16061369     6.3303952      9.4955928      12.66079       761.05094    
        27   0             -427.2001       9.8515394e-08  8.8055264e-08  1.0959174e-07  9.7899177e-08 -1.4411218e-09  5.7130076e-10 -0.16061369     6.3303952      9.4955928      12.66079       761.05094    
        28   0             -427.2001       5.6496236e-08  6.7840943e-08  4.7339781e-08  5.4307985e-08 -1.0633251e-10  7.7015426e-12 -0.16061369     6.3303952      9.4955928      12.66079       761.05094    
        29   0             -427.2001       4.3617105e-08  5.7837879e-08  2.7501593e-08  4.5511843e-08  3.2697661e-11  2.2386331e-11 -0.16061369     6.3303952      9.4955928      12.66079       761.05094    
        30   0             -427.2001       4.0436232e-08  5.6327177e-08  2.4778219e-08  4.02033e-08    2.038163e-11   3.9824932e-11 -0.16061369     6.3303952      9.4955928      12.66079       761.05094    
        31   0             -427.2001       3.9799909e-08  5.5962644e-08  2.3893332e-08  3.954375e-08   1.7032319e-11  1.8949145e-11 -0.16061369     6.3303952      9.4955928      12.66079       761.05094    
        32   0             -427.2001       3.9770612e-08  5.5936785e-08  2.3825552e-08  3.9549498e-08 -7.5319544e-12 -2.1147173e-12 -0.16061369     6.3303952      9.4955928      12.66079       761.05094    
        33   0             -427.2001       3.9786341e-08  5.5871541e-08  2.3826019e-08  3.9661462e-08 -2.8581209e-12  6.3939101e-12 -0.16061369     6.3303952      9.4955928      12.66079       761.05094    
        34   0             -427.2001       3.9842181e-08  5.604547e-08   2.3819007e-08  3.9662067e-08  5.3573448e-11  9.1755679e-12 -0.16061369     6.3303952      9.4955928      12.66079       761.05094    
        35   0             -427.2001       3.9795621e-08  5.5923877e-08  2.3828824e-08  3.9634162e-08 -3.6451427e-11 -2.8581894e-11 -0.16061369     6.3303952      9.4955928      12.66079       761.05094    
        36   0             -427.2001       3.9737339e-08  5.5865495e-08  2.3755901e-08  3.9590621e-08 -1.9247009e-11 -1.8816305e-11 -0.16061369     6.3303952      9.4955928      12.66079       761.05094    
        37   0             -427.2001       3.9669546e-08  5.5798862e-08  2.3685784e-08  3.9523991e-08  1.7611612e-11  6.3942296e-11 -0.16061369     6.3303952      9.4955928      12.66079       761.05094    
        38   0             -427.2001       3.9859596e-08  5.5986751e-08  2.386248e-08   3.9729556e-08  1.1081667e-11  1.2972244e-11 -0.16061369     6.3303952      9.4955928      12.66079       761.05094    
        39   0             -427.2001       3.9816631e-08  5.5988929e-08  2.3851262e-08  3.9609701e-08  3.3148907e-11 -2.0240116e-11 -0.16061369     6.3303952      9.4955928      12.66079       761.05094    
        40   0             -427.2001       3.968518e-08   5.5795292e-08  2.3664748e-08  3.9595499e-08 -6.2048523e-11 -3.0506481e-11 -0.16061369     6.3303952      9.4955928      12.66079       761.05094    
        41   0             -427.2001       3.9920005e-08  5.6044789e-08  2.3959243e-08  3.9755981e-08 -1.9175111e-11 -7.677782e-11  -0.16061369     6.3303952      9.4955928      12.66079       761.05094    
Loop time of 0.001147 on 1 procs for 22 steps with 48 atoms

0.0% CPU use with 1 MPI tasks x 1 OpenMP threads

Minimization stats:
  Stopping criterion = force tolerance
  Energy initial, next-to-last, final = 
     -427.200100267293  -427.200100306393  -427.200100306393
  Force two-norm initial, final = 0.0013214173 3.3714953e-11
  Force max component initial, final = 0.00030740264 9.7228892e-12
  Final line search alpha, max atom move = 1 9.7228892e-12
  Iterations, force evaluations = 22 44

MPI task timing breakdown:
Section |  min time  |  avg time  |  max time  |%varavg| %total
---------------------------------------------------------------
Pair    | 0.000851   | 0.000851   | 0.000851   |   0.0 | 74.19
Neigh   | 0          | 0          | 0          |   0.0 |  0.00
Comm    | 6.2e-05    | 6.2e-05    | 6.2e-05    |   0.0 |  5.41
Output  | 0.000173   | 0.000173   | 0.000173   |   0.0 | 15.08
Modify  | 0          | 0          | 0          |   0.0 |  0.00
Other   |            | 6.1e-05    |            |       |  5.32

Nlocal:             48 ave          48 max          48 min
Histogram: 1 0 0 0 0 0 0 0 0 0
Nghost:            498 ave         498 max         498 min
Histogram: 1 0 0 0 0 0 0 0 0 0
Neighs:           1200 ave        1200 max        1200 min
Histogram: 1 0 0 0 0 0 0 0 0 0

Total # of neighbors = 1200
Ave neighs/atom = 25
Neighbor list builds = 0
Dangerous builds = 0
OMP_NUM_THREADS environment is not set. Defaulting to 1 thread. (src/comm.cpp:98)
  using 1 OpenMP thread(s) per MPI task
Loaded 1 plugins from F:\Lammps\LAMMPS 64-bit 2Aug2023\plugins

The 'box' command has been removed and will be ignored

Reading restart file ...
  restart file = 2 Aug 2023, LAMMPS = 2 Aug 2023
  restoring atom style atomic from restart
  triclinic box = (0.0048023897 0.0072035845 0.0096047793) to (6.3351976 9.5027964 12.670395) with tilt (0 0 0)
  1 by 1 by 1 MPI processor grid
  pair style eam/alloy stores no restart info
  48 atoms
  read_restart CPU = 0.000 seconds
Changing box ...
  triclinic box = (0.0048023897 0.0072035845 0.0096047793) to (6.3351976 9.5027964 12.670395) with tilt (0 -1.266079e-06 0)
Neighbor list info ...
  update: every = 1 steps, delay = 0 steps, check = yes
  max neighbors/atom: 2000, page size: 100000
  master list distance cutoff = 5.403
  ghost atom cutoff = 5.403
  1 neighbor lists, perpetual/occasional/extra = 1 0 0
  (1) pair eam/alloy, perpetual
      attributes: half, newton on
      pair build: half/nsq/newton
      stencil: none
      bin: none
Setting up cg style minimization ...
  Unit style    : metal
  Current step  : 19
Per MPI rank memory allocation (min/avg/max) = 4.428 | 4.428 | 4.428 Mbytes
   Step          Temp          PotEng         Press           Pxx            Pyy            Pzz            Pxy            Pxz            Pyz             Lx             Ly             Lz           Volume    
        19   0             -427.2001      -0.0063474706  -0.0070108208  -0.0072958429  -0.004735748    6.6355954e-05  0.16063912    -2.3384752e-05  6.3303952      9.4955928      12.66079       761.05094    
        20   0             -427.2001       0.00078049199  0.00054746227  0.00079401923  0.00099999446  1.4515253e-06  0.16060166     3.5614303e-06  6.3303952      9.4955928      12.66079       761.05094    
        21   0             -427.2001       8.7110632e-05  5.1979677e-05  0.00012164907  8.7703147e-05 -7.3592695e-07  0.16061425     5.6450744e-07  6.3303952      9.4955928      12.66079       761.05094    
        22   0             -427.2001       1.0943789e-05  7.7153347e-06  1.1084484e-05  1.4031548e-05 -4.4102607e-07  0.16061385     7.2093692e-08  6.3303952      9.4955928      12.66079       761.05094    
        23   0             -427.2001       3.6137099e-06  5.1707276e-06  2.5828704e-06  3.0875317e-06 -2.7143179e-07  0.16061373    -7.5442049e-09  6.3303952      9.4955928      12.66079       761.05094    
        24   0             -427.2001       1.5683082e-06  1.2938571e-06  1.5664731e-06  1.8445943e-06 -9.0219922e-08  0.16061369     3.4170728e-10  6.3303952      9.4955928      12.66079       761.05094    
        25   0             -427.2001       4.9336248e-07  3.6804793e-07  5.9281258e-07  5.1922694e-07 -2.622229e-08   0.16061369     4.5824302e-09  6.3303952      9.4955928      12.66079       761.05094    
        26   0             -427.2001       2.0161379e-07  1.2508399e-07  2.4095879e-07  2.3879858e-07 -9.73623e-09    0.16061369     5.4645118e-10  6.3303952      9.4955928      12.66079       761.05094    
        27   0             -427.2001       9.8636475e-08  5.6056365e-08  1.418174e-07   9.8035657e-08 -1.3225223e-09  0.16061369    -1.6220578e-10  6.3303952      9.4955928      12.66079       761.05094    
        28   0             -427.2001       5.6541743e-08  3.5720938e-08  7.9514022e-08  5.439027e-08  -7.9795486e-11  0.16061369     1.0985118e-10  6.3303952      9.4955928      12.66079       761.05094    
        29   0             -427.2001       4.3609784e-08  2.5733622e-08  5.9653864e-08  4.5441865e-08  5.5092666e-11  0.16061369     4.627773e-11   6.3303952      9.4955928      12.66079       761.05094    
        30   0             -427.2001       4.0494845e-08  2.4332146e-08  5.6973963e-08  4.0178428e-08  2.2781429e-11  0.16061369    -7.4792291e-12  6.3303952      9.4955928      12.66079       761.05094    
        31   0             -427.2001       3.9841199e-08  2.389621e-08   5.6064301e-08  3.9563085e-08  1.6194649e-11  0.16061369     5.3289507e-11  6.3303952      9.4955928      12.66079       761.05094    
        32   0             -427.2001       3.9748278e-08  2.3780627e-08  5.5945569e-08  3.9518637e-08  1.4750981e-11  0.16061369     1.4958458e-11  6.3303952      9.4955928      12.66079       761.05094    
        33   0             -427.2001       3.9924001e-08  2.3945342e-08  5.6032982e-08  3.9793679e-08 -1.3046882e-11  0.16061369     4.8614989e-11  6.3303952      9.4955928      12.66079       761.05094    
        34   0             -427.2001       3.9701097e-08  2.3709964e-08  5.588667e-08   3.9506657e-08  1.1190541e-11  0.16061369     1.9165525e-11  6.3303952      9.4955928      12.66079       761.05094    
        35   0             -427.2001       3.9858261e-08  2.3890095e-08  5.6025035e-08  3.9659653e-08  5.9224411e-11  0.16061369     3.9265953e-11  6.3303952      9.4955928      12.66079       761.05094    
        36   0             -427.2001       3.9725931e-08  2.3772715e-08  5.5846936e-08  3.9558143e-08  3.1138728e-11  0.16061369     6.1236188e-11  6.3303952      9.4955928      12.66079       761.05094    
        37   0             -427.2001       3.9752461e-08  2.3756235e-08  5.586283e-08   3.9638317e-08 -3.8607457e-11  0.16061369    -1.3976809e-10  6.3303952      9.4955928      12.66079       761.05094    
        38   0             -427.2001       3.9862703e-08  2.3907328e-08  5.595258e-08   3.9728201e-08 -7.7152375e-12  0.16061369     4.9549893e-11  6.3303952      9.4955928      12.66079       761.05094    
        39   0             -427.2001       3.9807044e-08  2.3795448e-08  5.5971278e-08  3.9654406e-08 -2.0968683e-11  0.16061369     4.6745182e-11  6.3303952      9.4955928      12.66079       761.05094    
        40   0             -427.2001       3.9789633e-08  2.3840692e-08  5.5914717e-08  3.9613491e-08  8.165799e-12   0.16061369     6.5443255e-12  6.3303952      9.4955928      12.66079       761.05094    
        41   0             -427.2001       3.9819522e-08  2.3807324e-08  5.6017556e-08  3.9633685e-08  4.2908334e-12  0.16061369     5.6094218e-12  6.3303952      9.4955928      12.66079       761.05094    
Loop time of 0.001153 on 1 procs for 22 steps with 48 atoms

1355.2% CPU use with 1 MPI tasks x 1 OpenMP threads

Minimization stats:
  Stopping criterion = force tolerance
  Energy initial, next-to-last, final = 
     -427.200100267293  -427.200100306393  -427.200100306393
  Force two-norm initial, final = 0.0013214174 3.3720452e-11
  Force max component initial, final = 0.00030740266 9.7303277e-12
  Final line search alpha, max atom move = 1 9.7303277e-12
  Iterations, force evaluations = 22 44

MPI task timing breakdown:
Section |  min time  |  avg time  |  max time  |%varavg| %total
---------------------------------------------------------------
Pair    | 0.000842   | 0.000842   | 0.000842   |   0.0 | 73.03
Neigh   | 0          | 0          | 0          |   0.0 |  0.00
Comm    | 6.3e-05    | 6.3e-05    | 6.3e-05    |   0.0 |  5.46
Output  | 0.000172   | 0.000172   | 0.000172   |   0.0 | 14.92
Modify  | 0          | 0          | 0          |   0.0 |  0.00
Other   |            | 7.6e-05    |            |       |  6.59

Nlocal:             48 ave          48 max          48 min
Histogram: 1 0 0 0 0 0 0 0 0 0
Nghost:            498 ave         498 max         498 min
Histogram: 1 0 0 0 0 0 0 0 0 0
Neighs:           1200 ave        1200 max        1200 min
Histogram: 1 0 0 0 0 0 0 0 0 0

Total # of neighbors = 1200
Ave neighs/atom = 25
Neighbor list builds = 0
Dangerous builds = 0
OMP_NUM_THREADS environment is not set. Defaulting to 1 thread. (src/comm.cpp:98)
  using 1 OpenMP thread(s) per MPI task
Loaded 1 plugins from F:\Lammps\LAMMPS 64-bit 2Aug2023\plugins

The 'box' command has been removed and will be ignored

Reading restart file ...
  restart file = 2 Aug 2023, LAMMPS = 2 Aug 2023
  restoring atom style atomic from restart
  triclinic box = (0.0048023897 0.0072035845 0.0096047793) to (6.3351976 9.5027964 12.670395) with tilt (0 0 0)
  1 by 1 by 1 MPI processor grid
  pair style eam/alloy stores no restart info
  48 atoms
  read_restart CPU = 0.000 seconds
Changing box ...
  triclinic box = (0.0048023897 0.0072035845 0.0096047793) to (6.3351976 9.5027964 12.670395) with tilt (0 1.266079e-06 0)
Neighbor list info ...
  update: every = 1 steps, delay = 0 steps, check = yes
  max neighbors/atom: 2000, page size: 100000
  master list distance cutoff = 5.403
  ghost atom cutoff = 5.403
  1 neighbor lists, perpetual/occasional/extra = 1 0 0
  (1) pair eam/alloy, perpetual
      attributes: half, newton on
      pair build: half/nsq/newton
      stencil: none
      bin: none
Setting up cg style minimization ...
  Unit style    : metal
  Current step  : 19
Per MPI rank memory allocation (min/avg/max) = 4.428 | 4.428 | 4.428 Mbytes
   Step          Temp          PotEng         Press           Pxx            Pyy            Pzz            Pxy            Pxz            Pyz             Lx             Ly             Lz           Volume    
        19   0             -427.2001      -0.0063475019  -0.0070108522  -0.0072958735  -0.00473578     6.6385789e-05 -0.16058881    -2.3455303e-05  6.3303952      9.4955928      12.66079       761.05094    
        20   0             -427.2001       0.00078052008  0.00054749052  0.0007940477   0.001000022    1.4444403e-06 -0.16062594     3.5591973e-06  6.3303952      9.4955928      12.66079       761.05094    
        21   0             -427.2001       8.7104767e-05  5.1973924e-05  0.00012164302  8.7697358e-05 -7.3824497e-07 -0.16061321     5.7006637e-07  6.3303952      9.4955928      12.66079       761.05094    
        22   0             -427.2001       1.0941061e-05  7.7125903e-06  1.1081757e-05  1.4028835e-05 -4.4184481e-07 -0.16061358     7.829444e-08   6.3303952      9.4955928      12.66079       761.05094    
        23   0             -427.2001       3.6134097e-06  5.1704854e-06  2.5825357e-06  3.087208e-06  -2.7195194e-07 -0.16061367    -1.0854231e-09  6.3303952      9.4955928      12.66079       761.05094    
        24   0             -427.2001       1.569248e-06   1.2948216e-06  1.5674099e-06  1.8455127e-06 -9.0211856e-08 -0.16061371     4.6735833e-09  6.3303952      9.4955928      12.66079       761.05094    
        25   0             -427.2001       4.9327403e-07  3.6796307e-07  5.9274714e-07  5.1911189e-07 -2.6871409e-08 -0.1606137      7.2296098e-09  6.3303952      9.4955928      12.66079       761.05094    
        26   0             -427.2001       2.0147849e-07  1.2494052e-07  2.4083211e-07  2.3866283e-07 -9.9654303e-09 -0.16061369     1.9474043e-09  6.3303952      9.4955928      12.66079       761.05094    
        27   0             -427.2001       9.8432763e-08  5.5878444e-08  1.4163884e-07  9.7781008e-08 -1.2890297e-09 -0.16061369     8.4608779e-11  6.3303952      9.4955928      12.66079       761.05094    
        28   0             -427.2001       5.6433237e-08  3.5650422e-08  7.9451383e-08  5.4197907e-08 -1.1993837e-10 -0.16061369     1.3462612e-10  6.3303952      9.4955928      12.66079       761.05094    
[...]
        34   0             -427.2001       3.975867e-08   2.3762448e-08  5.5906303e-08  3.9607259e-08 -1.6958823e-13 -0.16061369    -3.5058886e-11  6.3303952      9.4955928      12.66079       761.05094    
        35   0             -427.2001       3.9881207e-08  2.3913848e-08  5.6020361e-08  3.9709411e-08 -4.3771111e-12 -0.16061369     4.0200856e-11  6.3303952      9.4955928      12.66079       761.05094    
        36   0             -427.2001       3.9785531e-08  2.3803057e-08  5.5939024e-08  3.9614511e-08 -5.4249518e-11 -0.16061369     7.3857387e-11  6.3303952      9.4955928      12.66079       761.05094    
        37   0             -427.2001       3.9868081e-08  2.3873552e-08  5.6005402e-08  3.9725287e-08 -9.4006204e-12 -0.16061369     0              6.3303952      9.4955928      12.66079       761.05094    
        38   0             -427.2001       3.9727588e-08  2.3810904e-08  5.5867972e-08  3.9503888e-08  3.7062219e-11 -0.16061369     8.227152e-11   6.3303952      9.4955928      12.66079       761.05094    
        39   0             -427.2001       3.9827381e-08  2.3820706e-08  5.5923131e-08  3.9738306e-08  2.5435039e-11 -0.16061369    -8.8815846e-12  6.3303952      9.4955928      12.66079       761.05094    
        40   0             -427.2001       3.9733771e-08  2.3766444e-08  5.5850208e-08  3.9584661e-08  3.8573905e-12 -0.16061369     5.0017345e-11  6.3303952      9.4955928      12.66079       761.05094    
        41   0             -427.2001       3.9748565e-08  2.3834056e-08  5.5918924e-08  3.9492716e-08  4.6837622e-11 -0.16061369     2.4307495e-11  6.3303952      9.4955928      12.66079       761.05094    
Loop time of 0.001128 on 1 procs for 22 steps with 48 atoms

0.0% CPU use with 1 MPI tasks x 1 OpenMP threads

Minimization stats:
  Stopping criterion = force tolerance
  Energy initial, next-to-last, final = 
     -427.200100267293  -427.200100306393  -427.200100306393
  Force two-norm initial, final = 0.0013214173 3.3718625e-11
  Force max component initial, final = 0.00030740265 9.7202801e-12
  Final line search alpha, max atom move = 1 9.7202801e-12
  Iterations, force evaluations = 22 44

MPI task timing breakdown:
Section |  min time  |  avg time  |  max time  |%varavg| %total
---------------------------------------------------------------
Pair    | 0.000852   | 0.000852   | 0.000852   |   0.0 | 75.53
Neigh   | 0          | 0          | 0          |   0.0 |  0.00
Comm    | 5.7e-05    | 5.7e-05    | 5.7e-05    |   0.0 |  5.05
Output  | 0.000167   | 0.000167   | 0.000167   |   0.0 | 14.80
Modify  | 0          | 0          | 0          |   0.0 |  0.00
Other   |            | 5.2e-05    |            |       |  4.61

Nlocal:             48 ave          48 max          48 min
Histogram: 1 0 0 0 0 0 0 0 0 0
Nghost:            498 ave         498 max         498 min
Histogram: 1 0 0 0 0 0 0 0 0 0
Neighs:           1200 ave        1200 max        1200 min
Histogram: 1 0 0 0 0 0 0 0 0 0

Total # of neighbors = 1200
Ave neighs/atom = 25
Neighbor list builds = 0
Dangerous builds = 0
OMP_NUM_THREADS environment is not set. Defaulting to 1 thread. (src/comm.cpp:98)
  using 1 OpenMP thread(s) per MPI task
Loaded 1 plugins from F:\Lammps\LAMMPS 64-bit 2Aug2023\plugins

The 'box' command has been removed and will be ignored

Reading restart file ...
  restart file = 2 Aug 2023, LAMMPS = 2 Aug 2023
  restoring atom style atomic from restart
  triclinic box = (0.0048023897 0.0072035845 0.0096047793) to (6.3351976 9.5027964 12.670395) with tilt (0 0 0)
  1 by 1 by 1 MPI processor grid
  pair style eam/alloy stores no restart info
  48 atoms
  read_restart CPU = 0.000 seconds
Changing box ...
  triclinic box = (0.0048023897 0.0072035845 0.0096047793) to (6.3351976 9.5027964 12.670395) with tilt (-9.4955928e-07 0 0)
Neighbor list info ...
  update: every = 1 steps, delay = 0 steps, check = yes
  max neighbors/atom: 2000, page size: 100000
  master list distance cutoff = 5.403
  ghost atom cutoff = 5.403
  1 neighbor lists, perpetual/occasional/extra = 1 0 0
  (1) pair eam/alloy, perpetual
      attributes: half, newton on
      pair build: half/nsq/newton
      stencil: none
      bin: none
Setting up cg style minimization ...
  Unit style    : metal
  Current step  : 19
Per MPI rank memory allocation (min/avg/max) = 4.428 | 4.428 | 4.428 Mbytes
   Step          Temp          PotEng         Press           Pxx            Pyy            Pzz            Pxy            Pxz            Pyz             Lx             Ly             Lz           Volume    
        19   0             -427.2001      -0.0063474508  -0.0070108007  -0.0072958397  -0.004735712    0.16068034     2.5143904e-05 -2.3404726e-05  6.3303952      9.4955928      12.66079       761.05094    
        20   0             -427.2001       0.0007805073   0.00054747733  0.00079401797  0.0010000266   0.16061525    -1.213617e-05   3.5463803e-06  6.3303952      9.4955928      12.66079       761.05094    
        21   0             -427.2001       8.7104977e-05  5.197418e-05   0.00012162639  8.7714359e-05  0.16061299     5.2001505e-07  5.7026457e-07  6.3303952      9.4955928      12.66079       761.05094    
        22   0             -427.2001       1.0939326e-05  7.7108829e-06  1.106313e-05   1.4043964e-05  0.16061327     1.3569167e-07  7.6596188e-08  6.3303952      9.4955928      12.66079       761.05094    
        23   0             -427.2001       3.6103962e-06  5.167413e-06   2.5626602e-06  3.1011155e-06  0.16061343     2.9629839e-08 -4.1210552e-09  6.3303952      9.4955928      12.66079       761.05094    
        24   0             -427.2001       1.5665818e-06  1.2921206e-06  1.5479134e-06  1.8597114e-06  0.16061361    -1.1844031e-08  2.042297e-09   6.3303952      9.4955928      12.66079       761.05094    
        25   0             -427.2001       4.9195313e-07  3.6662464e-07  5.7458056e-07  5.3465419e-07  0.16061367    -9.9372816e-10  5.9422475e-09  6.3303952      9.4955928      12.66079       761.05094    
        26   0             -427.2001       2.0076707e-07  1.2417287e-07  2.2317739e-07  2.5495094e-07  0.16061368    -2.5401259e-11  1.3504683e-09  6.3303952      9.4955928      12.66079       761.05094    
        27   0             -427.2001       9.8268289e-08  5.5710867e-08  1.2443614e-07  1.1465786e-07  0.16061369     3.6549871e-10  1.028394e-10   6.3303952      9.4955928      12.66079       761.05094    
        28   0             -427.2001       5.6600982e-08  3.5816935e-08  6.2631999e-08  7.1354011e-08  0.16061369     1.4050716e-11  1.2854925e-10  6.3303952      9.4955928      12.66079       761.05094    
        29   0             -427.2001       4.3483341e-08  2.5625334e-08  4.2564293e-08  6.2260397e-08  0.16061369     1.2322582e-10 -1.6360814e-11  6.3303952      9.4955928      12.66079       761.05094    
        30   0             -427.2001       4.0423927e-08  2.4219521e-08  3.999658e-08   5.705568e-08   0.16061369    -1.3132246e-11 -1.4491006e-11  6.3303952      9.4955928      12.66079       761.05094    
        31   0             -427.2001       3.9874966e-08  2.3897001e-08  3.9225752e-08  5.6502144e-08  0.16061369     9.6208797e-12  2.056788e-11   6.3303952      9.4955928      12.66079       761.05094    
        32   0             -427.2001       3.9717205e-08  2.374576e-08   3.9029422e-08  5.6376431e-08  0.16061369     1.4265269e-11  2.3372591e-12  6.3303952      9.4955928      12.66079       761.05094    
        33   0             -427.2001       3.9717754e-08  2.3707816e-08  3.9092061e-08  5.6353384e-08  0.16061369     1.6468775e-11  1.4491006e-11  6.3303952      9.4955928      12.66079       761.05094    
        34   0             -427.2001       3.9842306e-08  2.393046e-08   3.9199107e-08  5.6397352e-08  0.16061369    -1.1710718e-11 -2.2905139e-11  6.3303952      9.4955928      12.66079       761.05094    
        35   0             -427.2001       3.9829585e-08  2.382916e-08   3.9259876e-08  5.6399718e-08  0.16061369    -6.1519672e-11  7.8064454e-11  6.3303952      9.4955928      12.66079       761.05094    
        36   0             -427.2001       3.9769189e-08  2.3775175e-08  3.916919e-08   5.6363203e-08  0.16061369    -2.1227517e-11 -6.0301285e-11  6.3303952      9.4955928      12.66079       761.05094    
        37   0             -427.2001       3.9818083e-08  2.3762721e-08  3.9251462e-08  5.6440066e-08  0.16061369    -1.1034876e-11 -1.5893362e-11  6.3303952      9.4955928      12.66079       761.05094    
        38   0             -427.2001       3.9801825e-08  2.3749868e-08  3.922248e-08   5.6433128e-08  0.16061369     2.0308134e-11 -4.2538115e-11  6.3303952      9.4955928      12.66079       761.05094    
        39   0             -427.2001       3.9720454e-08  2.3780079e-08  3.9044848e-08  5.6336436e-08  0.16061369    -1.6794485e-11 -3.8331049e-11  6.3303952      9.4955928      12.66079       761.05094    
        40   0             -427.2001       3.9876923e-08  2.3863084e-08  3.927016e-08   5.6497525e-08  0.16061369     8.4618366e-12  3.9733405e-11  6.3303952      9.4955928      12.66079       761.05094    
        41   0             -427.2001       3.982648e-08   2.3875288e-08  3.9236036e-08  5.6368115e-08  0.16061369    -9.2043272e-12  3.1786724e-11  6.3303952      9.4955928      12.66079       761.05094    
Loop time of 0.001172 on 1 procs for 22 steps with 48 atoms

0.0% CPU use with 1 MPI tasks x 1 OpenMP threads

Minimization stats:
  Stopping criterion = force tolerance
  Energy initial, next-to-last, final = 
     -427.200100267293  -427.200100306393  -427.200100306393
  Force two-norm initial, final = 0.0013214174 3.371946e-11
  Force max component initial, final = 0.00030740264 9.7280517e-12
  Final line search alpha, max atom move = 1 9.7280517e-12
  Iterations, force evaluations = 22 44

MPI task timing breakdown:
Section |  min time  |  avg time  |  max time  |%varavg| %total
---------------------------------------------------------------
Pair    | 0.000863   | 0.000863   | 0.000863   |   0.0 | 73.63
Neigh   | 0          | 0          | 0          |   0.0 |  0.00
Comm    | 5.5e-05    | 5.5e-05    | 5.5e-05    |   0.0 |  4.69
Output  | 0.000185   | 0.000185   | 0.000185   |   0.0 | 15.78
Modify  | 0          | 0          | 0          |   0.0 |  0.00
Other   |            | 6.9e-05    |            |       |  5.89

Nlocal:             48 ave          48 max          48 min
Histogram: 1 0 0 0 0 0 0 0 0 0
Nghost:            498 ave         498 max         498 min
Histogram: 1 0 0 0 0 0 0 0 0 0
Neighs:           1200 ave        1200 max        1200 min
Histogram: 1 0 0 0 0 0 0 0 0 0

Total # of neighbors = 1200
Ave neighs/atom = 25
Neighbor list builds = 0
Dangerous builds = 0
OMP_NUM_THREADS environment is not set. Defaulting to 1 thread. (src/comm.cpp:98)
  using 1 OpenMP thread(s) per MPI task
Loaded 1 plugins from F:\Lammps\LAMMPS 64-bit 2Aug2023\plugins

The 'box' command has been removed and will be ignored

Reading restart file ...
  restart file = 2 Aug 2023, LAMMPS = 2 Aug 2023
  restoring atom style atomic from restart
  triclinic box = (0.0048023897 0.0072035845 0.0096047793) to (6.3351976 9.5027964 12.670395) with tilt (0 0 0)
  1 by 1 by 1 MPI processor grid
  pair style eam/alloy stores no restart info
  48 atoms
  read_restart CPU = 0.000 seconds
Changing box ...
  triclinic box = (0.0048023897 0.0072035845 0.0096047793) to (6.3351976 9.5027964 12.670395) with tilt (9.4955928e-07 0 0)
Neighbor list info ...
  update: every = 1 steps, delay = 0 steps, check = yes
  max neighbors/atom: 2000, page size: 100000
  master list distance cutoff = 5.403
  ghost atom cutoff = 5.403
  1 neighbor lists, perpetual/occasional/extra = 1 0 0
  (1) pair eam/alloy, perpetual
      attributes: half, newton on
      pair build: half/nsq/newton
      stencil: none
      bin: none
Setting up cg style minimization ...
  Unit style    : metal
  Current step  : 19
Per MPI rank memory allocation (min/avg/max) = 4.428 | 4.428 | 4.428 Mbytes
   Step          Temp          PotEng         Press           Pxx            Pyy            Pzz            Pxy            Pxz            Pyz             Lx             Ly             Lz           Volume    
        19   0             -427.2001      -0.0063475218  -0.0070108725  -0.0072959105  -0.0047357825  -0.16054759     2.5173741e-05 -2.3435361e-05  6.3303952      9.4955928      12.66079       761.05094    
        20   0             -427.2001       0.00078050493  0.00054747566  0.00079401529  0.0010000238  -0.16061235    -1.2143232e-05  3.5742843e-06  6.3303952      9.4955928      12.66079       761.05094    
        21   0             -427.2001       8.7110533e-05  5.1979476e-05  0.00012163211  8.7720013e-05 -0.16061447     5.1762081e-07  5.6428353e-07  6.3303952      9.4955928      12.66079       761.05094    
        22   0             -427.2001       1.0945543e-05  7.717074e-06   1.1069336e-05  1.405022e-05  -0.16061415     1.3477724e-07  7.3830743e-08  6.3303952      9.4955928      12.66079       761.05094    
        23   0             -427.2001       3.6168283e-06  5.1739437e-06  2.5690488e-06  3.1074924e-06 -0.16061398     2.919004e-08  -4.5254011e-09  6.3303952      9.4955928      12.66079       761.05094    
        24   0             -427.2001       1.5709583e-06  1.2965502e-06  1.552214e-06   1.8641106e-06 -0.16061379    -1.1793712e-08  2.9131597e-09  6.3303952      9.4955928      12.66079       761.05094    
        25   0             -427.2001       4.9457269e-07  3.6930726e-07  5.7717024e-07  5.3724058e-07 -0.16061372    -1.6473383e-09  5.8875557e-09  6.3303952      9.4955928      12.66079       761.05094    
        26   0             -427.2001       2.0212401e-07  1.2560185e-07  2.2452646e-07  2.562437e-07  -0.1606137     -1.875356e-10   1.2153747e-09  6.3303952      9.4955928      12.66079       761.05094    
        27   0             -427.2001       9.8500627e-08  5.6034007e-08  1.2468997e-07  1.1477791e-07 -0.16061369     3.8172896e-10 -2.2484432e-10  6.3303952      9.4955928      12.66079       761.05094    
        28   0             -427.2001       5.652989e-08   3.5775853e-08  6.2545988e-08  7.1267828e-08 -0.16061369    -5.1943529e-11  7.5259743e-11  6.3303952      9.4955928      12.66079       761.05094    
        29   0             -427.2001       4.3725695e-08  2.5900939e-08  4.2756883e-08  6.2519264e-08 -0.16061369     1.4247694e-11 -1.028394e-11   6.3303952      9.4955928      12.66079       761.05094    
        30   0             -427.2001       4.0481693e-08  2.4248605e-08  4.0062958e-08  5.7133517e-08 -0.16061369     2.517575e-12   8.5076231e-11  6.3303952      9.4955928      12.66079       761.05094    
        31   0             -427.2001       3.9791879e-08  2.3848179e-08  3.9081309e-08  5.6446147e-08 -0.16061369     3.460764e-11  -1.1218844e-11  6.3303952      9.4955928      12.66079       761.05094    
        32   0             -427.2001       3.9718691e-08  2.3764763e-08  3.9069156e-08  5.6322153e-08 -0.16061369     1.1775084e-11 -2.056788e-11   6.3303952      9.4955928      12.66079       761.05094    
        33   0             -427.2001       3.9895396e-08  2.3911097e-08  3.9296805e-08  5.6478287e-08 -0.16061369    -9.7913809e-12  2.0100428e-11  6.3303952      9.4955928      12.66079       761.05094    
        34   0             -427.2001       3.9815671e-08  2.3827743e-08  3.9154232e-08  5.6465039e-08 -0.16061369     6.4548523e-13 -2.570985e-11   6.3303952      9.4955928      12.66079       761.05094    
        35   0             -427.2001       3.9777444e-08  2.3782652e-08  3.921687e-08   5.6332809e-08 -0.16061369    -6.253743e-11  -2.8982013e-11  6.3303952      9.4955928      12.66079       761.05094    
        36   0             -427.2001       3.9787437e-08  2.3822359e-08  3.9158439e-08  5.6381514e-08 -0.16061369    -5.2552951e-11 -1.1686295e-11  6.3303952      9.4955928      12.66079       761.05094    
        37   0             -427.2001       3.978912e-08   2.3838364e-08  3.9136936e-08  5.639206e-08  -0.16061369    -5.7617773e-11  2.3372591e-12  6.3303952      9.4955928      12.66079       761.05094    
        38   0             -427.2001       3.9723654e-08  2.3721316e-08  3.9069156e-08  5.638049e-08  -0.16061369    -2.5519719e-11 -2.3372591e-11  6.3303952      9.4955928      12.66079       761.05094    
        39   0             -427.2001       3.9900375e-08  2.393179e-08   3.9261746e-08  5.650759e-08  -0.16061369    -7.0820548e-11 -7.9466809e-12  6.3303952      9.4955928      12.66079       761.05094    
        40   0             -427.2001       3.9902473e-08  2.3836527e-08  3.9325787e-08  5.6545106e-08 -0.16061369    -5.3471649e-11  7.4792291e-12  6.3303952      9.4955928      12.66079       761.05094    
        41   0             -427.2001       3.969034e-08   2.3699514e-08  3.9160309e-08  5.6211198e-08 -0.16061369    -5.1114761e-11 -2.8047109e-11  6.3303952      9.4955928      12.66079       761.05094    
Loop time of 0.001199 on 1 procs for 22 steps with 48 atoms

0.0% CPU use with 1 MPI tasks x 1 OpenMP threads

Minimization stats:
  Stopping criterion = force tolerance
  Energy initial, next-to-last, final = 
     -427.200100267293  -427.200100306393  -427.200100306393
  Force two-norm initial, final = 0.0013214172 3.3722582e-11
  Force max component initial, final = 0.00030740267 9.7098996e-12
  Final line search alpha, max atom move = 1 9.7098996e-12
  Iterations, force evaluations = 22 44

MPI task timing breakdown:
Section |  min time  |  avg time  |  max time  |%varavg| %total
---------------------------------------------------------------
Pair    | 0.000894   | 0.000894   | 0.000894   |   0.0 | 74.56
Neigh   | 0          | 0          | 0          |   0.0 |  0.00
Comm    | 6.1e-05    | 6.1e-05    | 6.1e-05    |   0.0 |  5.09
Output  | 0.000176   | 0.000176   | 0.000176   |   0.0 | 14.68
Modify  | 0          | 0          | 0          |   0.0 |  0.00
Other   |            | 6.8e-05    |            |       |  5.67

Nlocal:             48 ave          48 max          48 min
Histogram: 1 0 0 0 0 0 0 0 0 0
Nghost:            498 ave         498 max         498 min
Histogram: 1 0 0 0 0 0 0 0 0 0
Neighs:           1200 ave        1200 max        1200 min
Histogram: 1 0 0 0 0 0 0 0 0 0

Total # of neighbors = 1200
Ave neighs/atom = 25
Neighbor list builds = 0
Dangerous builds = 0
=========================================
Components of the Elastic Constant Tensor
=========================================
Elastic Constant C11all = 542.858523016707 GPa
Elastic Constant C22all = 542.858522814858 GPa
Elastic Constant C33all = 542.85852299621 GPa
Elastic Constant C12all = 204.416885542142 GPa
Elastic Constant C13all = 204.416885527742 GPa
Elastic Constant C23all = 204.416885524614 GPa
Elastic Constant C44all = 160.613690840522 GPa
Elastic Constant C55all = 160.613690824867 GPa
Elastic Constant C66all = 160.61369082424 GPa
Elastic Constant C14all = -4.9981161905362e-09 GPa
Elastic Constant C15all = -1.95523017084405e-09 GPa
Elastic Constant C16all = 2.4022868920551e-08 GPa
Elastic Constant C24all = -3.21373113084639e-08 GPa
Elastic Constant C25all = 2.73178554139132e-08 GPa
Elastic Constant C26all = 3.01892730760467e-08 GPa
Elastic Constant C34all = -3.94981954512756e-08 GPa
Elastic Constant C35all = 4.29656214385064e-08 GPa
Elastic Constant C36all = 4.16614151528803e-08 GPa
Elastic Constant C45all = 1.31530739050246e-08 GPa
Elastic Constant C46all = 1.20784254555188e-08 GPa
Elastic Constant C56all = -1.590888269114e-10 GPa
=========================================
Average properties for a cubic crystal
=========================================
Bulk Modulus = 317.23076466853 GPa
Shear Modulus 1 = 160.613690829876 GPa
Shear Modulus 2 = 169.220818705546 GPa
Poisson Ratio = 0.273549595254193
Total wall time: 0:00:00
