LAMMPS (2 Aug 2023 - Update 3)
OMP_NUM_THREADS environment is not set. Defaulting to 1 thread. (src/comm.cpp:98)
  using 1 OpenMP thread(s) per MPI task
Loaded 1 plugins from F:\Lammps\LAMMPS 64-bit 2Aug2023\plugins
Lattice spacing in x,y,z = 3.17 3.17 3.17
Created triclinic box = (0 0 0) to (6.34 9.51 12.68) with tilt (0 0 0)
  1 by 1 by 1 MPI processor grid
Created 48 atoms
  using lattice units in triclinic box = (0 0 0) to (6.34 9.51 12.68) with tilt (0 0 0)
  create_atoms CPU = 0.000 seconds
Neighbor list info ...
  update: every = 1 steps, delay = 0 steps, check = yes
  max neighbors/atom: 2000, page size: 100000
  master list distance cutoff = 5.403
  ghost atom cutoff = 5.403
  1 neighbor lists, perpetual/occasional/extra = 1 0 0
  (1) pair eam/alloy, perpetual
      attributes: half, newton on
      pair build: half/nsq/newton
      stencil: none
      bin: none
Setting up cg style minimization ...
  Unit style    : metal
  Current step  : 0
WARNING: Energy due to 3 extra global DOFs will be included in minimizer energies
 (src/min.cpp:228)
Per MPI rank memory allocation (min/avg/max) = 4.428 | 4.428 | 4.428 Mbytes
   Step          Temp          PotEng         Press           Pxx            Pyy            Pzz            Pxy            Pxz            Pyz             Lx             Ly             Lz           Volume    
         0   0             -427.18485     -14061.267     -14061.267     -14061.267     -14061.267      1.2563925e-11  9.7719413e-12 -1.1167933e-11  6.34           9.51           12.68          764.52031    
         1   0             -427.1868      -13140.267     -13140.267     -13140.267     -13140.267     -9.7749194e-12 -1.1171284e-11  2.9790091e-11  6.339366       9.509049       12.678732      764.29098    
         2   0             -427.18861     -12216.068     -12216.068     -12216.068     -12216.068      3.6317477e-11  8.8465871e-12  2.6074151e-11  6.338732       9.508098       12.677464      764.06169    
         3   0             -427.19029     -11288.515     -11288.515     -11288.515     -11288.515      5.588995e-12   8.8958171e-11 -2.235598e-11   6.338098       9.507147       12.676196      763.83245    
         4   0             -427.19184     -10360.866     -10360.866     -10360.866     -10360.866     -1.3510792e-11 -4.4259491e-11 -9.4109655e-11  6.337464       9.506196       12.674928      763.60325    
         5   0             -427.19326     -9433.9647     -9433.9647     -9433.9647     -9433.9647      3.4952192e-11  3.2622046e-11 -4.9399099e-11  6.33683        9.505245       12.67366       763.3741     
         6   0             -427.19454     -8505.9502     -8505.9502     -8505.9502     -8505.9502     -4.6616914e-13  2.5173134e-11 -9.3233828e-12  6.336196       9.504294       12.672392      763.145      
         7   0             -427.19569     -7577.4287     -7577.4287     -7577.4287     -7577.4287      3.7304728e-12 -2.7978546e-12  1.6787128e-11  6.335562       9.503343       12.671124      762.91594    
         8   0             -427.1967      -6648.3976     -6648.3976     -6648.3976     -6648.3976      2.9386295e-11 -2.4255354e-11  9.5155621e-11  6.334928       9.502392       12.669856      762.68693    
         9   0             -427.19759     -5718.8365     -5718.8365     -5718.8365     -5718.8365      3.8726903e-11 -2.332946e-12  -5.225799e-11   6.334294       9.501441       12.668588      762.45796    
        10   0             -427.19834     -4788.7687     -4788.7687     -4788.7687     -4788.7687      0             -2.2403008e-11  1.1201504e-11  6.33366        9.50049        12.66732       762.22904    
        11   0             -427.19896     -3858.211      -3858.211      -3858.211      -3858.211       5.9759298e-11  1.6340433e-11  2.9879649e-11  6.333026       9.499539       12.666052      762.00017    
        12   0             -427.19944     -2927.0361     -2927.0361     -2927.0361     -2927.0361     -6.5381366e-12 -4.1096859e-11  7.0051463e-11  6.332392       9.498588       12.664784      761.77134    
        13   0             -427.19979     -1993.6933     -1993.6933     -1993.6933     -1993.6933     -1.1211601e-11  4.0174905e-11 -2.8029003e-11  6.331758       9.497637       12.663516      761.54256    
        14   0             -427.20001     -1074.988      -1074.988      -1074.988      -1074.988       2.289723e-11  -3.2710329e-12 -4.9532784e-11  6.331124       9.496686       12.662248      761.31382    
        15   0             -427.2001      -142.13918     -142.13918     -142.13918     -142.13918      3.1317157e-11  3.9264189e-11 -2.4306403e-11  6.33049        9.495735       12.66098       761.08513    
        16   0             -427.2001       0.95789324     0.95789324     0.95789324     0.95789324    -3.7864317e-11  5.9833851e-11 -5.4224427e-11  6.3303946      9.4955919      12.660789      761.05071    
        17   0             -427.2001      -0.015746567   -0.015746567   -0.015746566   -0.015746567   -4.9083149e-11  1.6360814e-11  6.5443254e-12  6.3303952      9.4955928      12.66079       761.05095    
        18   0             -427.2001       3.994392e-05   3.9944049e-05  3.9943684e-05  3.9944027e-05 -5.3290215e-11 -4.6745182e-13  2.8982013e-11  6.3303952      9.4955928      12.66079       761.05094    
        19   0             -427.2001       5.0227698e-10  3.0664839e-10  4.7913811e-10  7.2104443e-10 -9.3631975e-13  6.0768736e-12 -3.2721627e-11  6.3303952      9.4955928      12.66079       761.05094    
Loop time of 0.001506 on 1 procs for 19 steps with 48 atoms

0.0% CPU use with 1 MPI tasks x 1 OpenMP threads

Minimization stats:
  Stopping criterion = force tolerance
  Energy initial, next-to-last, final = 
     -427.184848841919  -427.200100306399  -427.200100306395
  Force two-norm initial, final = 11.621542 7.650787e-13
  Force max component initial, final = 6.7097004 3.4302347e-13
  Final line search alpha, max atom move = 1 3.4302347e-13
  Iterations, force evaluations = 19 23

MPI task timing breakdown:
Section |  min time  |  avg time  |  max time  |%varavg| %total
---------------------------------------------------------------
Pair    | 0.00051    | 0.00051    | 0.00051    |   0.0 | 33.86
Neigh   | 0          | 0          | 0          |   0.0 |  0.00
Comm    | 3.2e-05    | 3.2e-05    | 3.2e-05    |   0.0 |  2.12
Output  | 0.000226   | 0.000226   | 0.000226   |   0.0 | 15.01
Modify  | 0          | 0          | 0          |   0.0 |  0.00
Other   |            | 0.000738   |            |       | 49.00

Nlocal:             48 ave          48 max          48 min
Histogram: 1 0 0 0 0 0 0 0 0 0
Nghost:            498 ave         498 max         498 min
Histogram: 1 0 0 0 0 0 0 0 0 0
Neighs:           1200 ave        1200 max        1200 min
Histogram: 1 0 0 0 0 0 0 0 0 0

Total # of neighbors = 1200
Ave neighs/atom = 25
Neighbor list builds = 0
Dangerous builds = 0
Displacing atoms ...
System init for write_restart ...
OMP_NUM_THREADS environment is not set. Defaulting to 1 thread. (src/comm.cpp:98)
  using 1 OpenMP thread(s) per MPI task
Loaded 1 plugins from F:\Lammps\LAMMPS 64-bit 2Aug2023\plugins

The 'box' command has been removed and will be ignored

Reading restart file ...
  restart file = 2 Aug 2023, LAMMPS = 2 Aug 2023
  restoring atom style atomic from restart
  triclinic box = (0.0048023897 0.0072035845 0.0096047793) to (6.3351976 9.5027964 12.670395) with tilt (0 0 0)
  1 by 1 by 1 MPI processor grid
  pair style eam/alloy stores no restart info
  48 atoms
  read_restart CPU = 0.000 seconds
Changing box ...
  triclinic box = (0.0048023897 0.0072035845 0.0096047793) to (6.3351975 9.5027964 12.670395) with tilt (0 0 0)
  triclinic box = (0.0048023897 0.0072035845 0.0096047793) to (6.3351975 9.5027964 12.670395) with tilt (0 0 0)
  triclinic box = (0.0048023897 0.0072035845 0.0096047793) to (6.3351975 9.5027964 12.670395) with tilt (0 0 0)
Neighbor list info ...
  update: every = 1 steps, delay = 0 steps, check = yes
  max neighbors/atom: 2000, page size: 100000
  master list distance cutoff = 5.403
  ghost atom cutoff = 5.403
  1 neighbor lists, perpetual/occasional/extra = 1 0 0
  (1) pair eam/alloy, perpetual
      attributes: half, newton on
      pair build: half/nsq/newton
      stencil: none
      bin: none
Setting up cg style minimization ...
  Unit style    : metal
  Current step  : 19
Per MPI rank memory allocation (min/avg/max) = 4.428 | 4.428 | 4.428 Mbytes
   Step          Temp          PotEng         Press           Pxx            Pyy            Pzz            Pxy            Pxz            Pyz             Lx             Ly             Lz           Volume    
        19   0             -427.2001       0.025334279    0.047151118    0.013145804    0.015705915    6.6374468e-05  2.5160135e-05 -2.3421487e-05  6.3303952      9.4955928      12.66079       761.05094    
        20   0             -427.2001       0.032497077    0.054813882    0.021235679    0.021441671    1.4481306e-06 -1.214105e-05   3.5606446e-06  6.3303952      9.4955928      12.66079       761.05094    
        21   0             -427.2001       0.0318102      0.054337961    0.020563283    0.020529355   -7.374958e-07   5.1922719e-07  5.6747997e-07  6.3303952      9.4955928      12.66079       761.05094    
        22   0             -427.2001       0.031734033    0.054293695    0.02045272     0.020455683   -4.4190296e-07  1.3542791e-07  7.5176537e-08  6.3303952      9.4955928      12.66079       761.05094    
        23   0             -427.2001       0.031726703    0.054291151    0.020444219    0.020444741   -2.7204373e-07  2.9424261e-08 -4.4585555e-09  6.3303952      9.4955928      12.66079       761.05094    
        24   0             -427.2001       0.031724658    0.054287274    0.020443202    0.020443497   -9.0472414e-08 -1.2046549e-08  2.5448077e-09  6.3303952      9.4955928      12.66079       761.05094    
        25   0             -427.2001       0.031723582    0.054286348    0.020442228    0.020442171   -2.6927625e-08 -1.213864e-09   6.1301632e-09  6.3303952      9.4955928      12.66079       761.05094    
        26   0             -427.2001       0.03172329     0.054286104    0.020441876    0.02044189    -1.0160212e-08 -4.3009676e-11  1.324291e-09   6.3303952      9.4955928      12.66079       761.05094    
        27   0             -427.2001       0.031723186    0.054286034    0.020441776    0.020441749   -1.4358349e-09  4.7450948e-10 -3.4123983e-11  6.3303952      9.4955928      12.66079       761.05094    
        28   0             -427.2001       0.031723144    0.054286014    0.020441713    0.020441705   -1.0842988e-10 -1.2028668e-12  7.3857388e-11  6.3303952      9.4955928      12.66079       761.05094    
        29   0             -427.2001       0.031723131    0.054286004    0.020441693    0.020441696    2.8156668e-11  1.006254e-11   1.2667944e-10  6.3303952      9.4955928      12.66079       761.05094    
        30   0             -427.2001       0.031723128    0.054286002    0.02044169     0.020441691    3.926641e-11  -1.4648269e-11  4.7212634e-11  6.3303952      9.4955928      12.66079       761.05094    
        31   0             -427.2001       0.031723127    0.054286002    0.02044169     0.02044169    -7.9430747e-11 -1.6125718e-11 -5.2822056e-11  6.3303952      9.4955928      12.66079       761.05094    
        32   0             -427.2001       0.031723127    0.054286002    0.020441689    0.02044169    -2.1027343e-11 -2.4831096e-11 -6.6378159e-11  6.3303952      9.4955928      12.66079       761.05094    
        33   0             -427.2001       0.031723127    0.054286002    0.020441689    0.02044169    -9.1433851e-12  7.7931842e-11  2.9449465e-11  6.3303952      9.4955928      12.66079       761.05094    
        34   0             -427.2001       0.031723127    0.054286002    0.02044169     0.02044169     1.066306e-11  -2.6188943e-11 -7.1052677e-11  6.3303952      9.4955928      12.66079       761.05094    
        35   0             -427.2001       0.031723127    0.054286002    0.020441689    0.02044169     2.0875558e-12 -4.8388568e-13 -3.5058887e-11  6.3303952      9.4955928      12.66079       761.05094    
        36   0             -427.2001       0.031723127    0.054286002    0.020441689    0.02044169    -1.4495571e-11 -9.3047564e-12  2.570985e-11   6.3303952      9.4955928      12.66079       761.05094    
        37   0             -427.2001       0.031723127    0.054286002    0.020441689    0.02044169    -3.2258741e-11  3.2785537e-12 -3.3656531e-11  6.3303952      9.4955928      12.66079       761.05094    
        38   0             -427.2001       0.031723127    0.054286002    0.020441689    0.02044169     3.4858029e-11 -4.3288823e-11  1.4958458e-11  6.3303952      9.4955928      12.66079       761.05094    
        39   0             -427.2001       0.031723127    0.054286002    0.020441689    0.02044169     1.5286679e-11 -5.0761662e-11  7.1520129e-11  6.3303952      9.4955928      12.66079       761.05094    
        40   0             -427.2001       0.031723127    0.054286002    0.020441689    0.02044169    -1.961038e-11   3.012622e-11   6.0301285e-11  6.3303952      9.4955928      12.66079       761.05094    
        41   0             -427.2001       0.031723127    0.054286002    0.020441689    0.02044169    -2.5734958e-11 -3.8664976e-11  4.4407923e-11  6.3303952      9.4955928      12.66079       761.05094    
Loop time of 0.001135 on 1 procs for 22 steps with 48 atoms

0.0% CPU use with 1 MPI tasks x 1 OpenMP threads

Minimization stats:
  Stopping criterion = force tolerance
  Energy initial, next-to-last, final = 
     -427.200100267297  -427.200100306397  -427.200100306396
  Force two-norm initial, final = 0.0013214159 3.3717389e-11
  Force max component initial, final = 0.00030740215 9.7315489e-12
  Final line search alpha, max atom move = 1 9.7315489e-12
  Iterations, force evaluations = 22 44

MPI task timing breakdown:
Section |  min time  |  avg time  |  max time  |%varavg| %total
---------------------------------------------------------------
Pair    | 0.000859   | 0.000859   | 0.000859   |   0.0 | 75.68
Neigh   | 0          | 0          | 0          |   0.0 |  0.00
Comm    | 5.9e-05    | 5.9e-05    | 5.9e-05    |   0.0 |  5.20
Output  | 0.000164   | 0.000164   | 0.000164   |   0.0 | 14.45
Modify  | 0          | 0          | 0          |   0.0 |  0.00
Other   |            | 5.3e-05    |            |       |  4.67

Nlocal:             48 ave          48 max          48 min
Histogram: 1 0 0 0 0 0 0 0 0 0
Nghost:            498 ave         498 max         498 min
Histogram: 1 0 0 0 0 0 0 0 0 0
Neighs:           1200 ave        1200 max        1200 min
Histogram: 1 0 0 0 0 0 0 0 0 0

Total # of neighbors = 1200
Ave neighs/atom = 25
Neighbor list builds = 0
Dangerous builds = 0
OMP_NUM_THREADS environment is not set. Defaulting to 1 thread. (src/comm.cpp:98)
  using 1 OpenMP thread(s) per MPI task
Loaded 1 plugins from F:\Lammps\LAMMPS 64-bit 2Aug2023\plugins

The 'box' command has been removed and will be ignored

Reading restart file ...
  restart file = 2 Aug 2023, LAMMPS = 2 Aug 2023
  restoring atom style atomic from restart
  triclinic box = (0.0048023897 0.0072035845 0.0096047793) to (6.3351976 9.5027964 12.670395) with tilt (0 0 0)
  1 by 1 by 1 MPI processor grid
  pair style eam/alloy stores no restart info
  48 atoms
  read_restart CPU = 0.000 seconds
Changing box ...
  triclinic box = (0.0048023897 0.0072035845 0.0096047793) to (6.3351977 9.5027964 12.670395) with tilt (0 0 0)
  triclinic box = (0.0048023897 0.0072035845 0.0096047793) to (6.3351977 9.5027964 12.670395) with tilt (0 0 0)
  triclinic box = (0.0048023897 0.0072035845 0.0096047793) to (6.3351977 9.5027964 12.670395) with tilt (0 0 0)
Neighbor list info ...
  update: every = 1 steps, delay = 0 steps, check = yes
  max neighbors/atom: 2000, page size: 100000
  master list distance cutoff = 5.403
  ghost atom cutoff = 5.403
  1 neighbor lists, perpetual/occasional/extra = 1 0 0
  (1) pair eam/alloy, perpetual
      attributes: half, newton on
      pair build: half/nsq/newton
      stencil: none
      bin: none
Setting up cg style minimization ...
  Unit style    : metal
  Current step  : 19
Per MPI rank memory allocation (min/avg/max) = 4.428 | 4.428 | 4.428 Mbytes
   Step          Temp          PotEng         Press           Pxx            Pyy            Pzz            Pxy            Pxz            Pyz             Lx             Ly             Lz           Volume    
        19   0             -427.2001      -0.038029281   -0.061172699   -0.027737628   -0.025177517    6.6367286e-05  2.5156966e-05 -2.341844e-05   6.3303953      9.4955928      12.66079       761.05095    
        20   0             -427.2001      -0.030936051   -0.053718705   -0.01964772    -0.019441728    1.4479275e-06 -1.2138329e-05  3.5599172e-06  6.3303953      9.4955928      12.66079       761.05095    
        21   0             -427.2001      -0.031635961   -0.054233754   -0.020320099   -0.020354029   -7.3693652e-07  5.1861839e-07  5.6728737e-07  6.3303953      9.4955928      12.66079       761.05095    
        22   0             -427.2001      -0.031712124   -0.054278014   -0.020430662   -0.020427698   -4.4134161e-07  1.3510534e-07  7.5081175e-08  6.3303953      9.4955928      12.66079       761.05095    
        23   0             -427.2001      -0.031719452   -0.054280556   -0.020439161   -0.020438639   -2.7140986e-07  2.9484044e-08 -4.4543483e-09  6.3303953      9.4955928      12.66079       761.05095    
        24   0             -427.2001      -0.031721496   -0.054284431   -0.020440176   -0.020439881   -8.9985562e-08 -1.1953182e-08  2.4943229e-09  6.3303953      9.4955928      12.66079       761.05095    
        25   0             -427.2001      -0.031722571   -0.054285358   -0.02044115    -0.020441207   -2.6541468e-08 -1.1900097e-09  5.9702946e-09  6.3303953      9.4955928      12.66079       761.05095    
        26   0             -427.2001      -0.031722863   -0.054285601   -0.020441502   -0.020441487   -1.0009575e-08 -9.2872039e-11  1.3345749e-09  6.3303953      9.4955928      12.66079       761.05095    
        27   0             -427.2001      -0.031722967   -0.05428567    -0.020441601   -0.020441628   -1.430479e-09   4.6216536e-10 -2.056788e-11   6.3303953      9.4955928      12.66079       761.05095    
        28   0             -427.2001      -0.031723009   -0.054285691   -0.020441664   -0.020441672   -7.4902077e-11  4.6417189e-11  1.1592805e-10  6.3303953      9.4955928      12.66079       761.05095    
        29   0             -427.2001      -0.031723022   -0.054285701   -0.020441684   -0.020441681    7.694444e-11   9.5705966e-11  8.2738971e-11  6.3303953      9.4955928      12.66079       761.05095    
        30   0             -427.2001      -0.031723025   -0.054285702   -0.020441687   -0.020441686   -1.7245274e-11  3.6769604e-11 -6.3573447e-11  6.3303953      9.4955928      12.66079       761.05095    
        31   0             -427.2001      -0.031723026   -0.054285703   -0.020441687   -0.020441687   -1.556012e-11  -4.2759744e-11  6.4975802e-11  6.3303953      9.4955928      12.66079       761.05095    
        32   0             -427.2001      -0.031723026   -0.054285703   -0.020441688   -0.020441687   -7.0958181e-11 -1.9841823e-11 -7.1520128e-11  6.3303953      9.4955928      12.66079       761.05095    
        33   0             -427.2001      -0.031723026   -0.054285703   -0.020441688   -0.020441687    3.6115674e-12 -5.7853096e-11 -9.536017e-11   6.3303953      9.4955928      12.66079       761.05095    
        34   0             -427.2001      -0.031723026   -0.054285703   -0.020441688   -0.020441687   -2.0852962e-11  2.8177895e-11  4.627773e-11   6.3303953      9.4955928      12.66079       761.05095    
        35   0             -427.2001      -0.031723026   -0.054285703   -0.020441688   -0.020441687    5.3061487e-11  4.2913811e-11 -4.6745181e-12  6.3303953      9.4955928      12.66079       761.05095    
        36   0             -427.2001      -0.031723026   -0.054285703   -0.020441687   -0.020441687   -9.4264123e-12 -4.108235e-12   1.0330685e-10  6.3303953      9.4955928      12.66079       761.05095    
        37   0             -427.2001      -0.031723026   -0.054285703   -0.020441688   -0.020441687    1.1739249e-11 -4.2985938e-12  6.6378158e-11  6.3303953      9.4955928      12.66079       761.05095    
        38   0             -427.2001      -0.031723026   -0.054285703   -0.020441688   -0.020441687   -8.2157852e-12 -1.2841915e-11  6.965032e-11   6.3303953      9.4955928      12.66079       761.05095    
        39   0             -427.2001      -0.031723026   -0.054285703   -0.020441688   -0.020441687   -1.1388204e-11 -1.2865881e-11 -2.8047109e-12  6.3303953      9.4955928      12.66079       761.05095    
        40   0             -427.2001      -0.031723026   -0.054285703   -0.020441688   -0.020441687    3.7810643e-11 -1.4672235e-11  5.6094218e-12  6.3303953      9.4955928      12.66079       761.05095    
        41   0             -427.2001      -0.031723026   -0.054285703   -0.020441688   -0.020441687   -7.2603392e-12 -1.2267415e-11 -1.4023554e-12  6.3303953      9.4955928      12.66079       761.05095    
Loop time of 0.00122 on 1 procs for 22 steps with 48 atoms

0.0% CPU use with 1 MPI tasks x 1 OpenMP threads

Minimization stats:
  Stopping criterion = force tolerance
  Energy initial, next-to-last, final = 
     -427.200100267297  -427.200100306397  -427.200100306396
  Force two-norm initial, final = 0.0013214187 3.370959e-11
  Force max component initial, final = 0.00030740316 9.7138964e-12
  Final line search alpha, max atom move = 1 9.7138964e-12
  Iterations, force evaluations = 22 44

MPI task timing breakdown:
Section |  min time  |  avg time  |  max time  |%varavg| %total
---------------------------------------------------------------
Pair    | 0.000923   | 0.000923   | 0.000923   |   0.0 | 75.66
Neigh   | 0          | 0          | 0          |   0.0 |  0.00
Comm    | 7.2e-05    | 7.2e-05    | 7.2e-05    |   0.0 |  5.90
Output  | 0.000172   | 0.000172   | 0.000172   |   0.0 | 14.10
Modify  | 0          | 0          | 0          |   0.0 |  0.00
Other   |            | 5.3e-05    |            |       |  4.34

Nlocal:             48 ave          48 max          48 min
Histogram: 1 0 0 0 0 0 0 0 0 0
Nghost:            498 ave         498 max         498 min
Histogram: 1 0 0 0 0 0 0 0 0 0
Neighs:           1200 ave        1200 max        1200 min
Histogram: 1 0 0 0 0 0 0 0 0 0

Total # of neighbors = 1200
Ave neighs/atom = 25
Neighbor list builds = 0
Dangerous builds = 0
OMP_NUM_THREADS environment is not set. Defaulting to 1 thread. (src/comm.cpp:98)
  using 1 OpenMP thread(s) per MPI task
Loaded 1 plugins from F:\Lammps\LAMMPS 64-bit 2Aug2023\plugins

The 'box' command has been removed and will be ignored

Reading restart file ...
  restart file = 2 Aug 2023, LAMMPS = 2 Aug 2023
  restoring atom style atomic from restart
  triclinic box = (0.0048023897 0.0072035845 0.0096047793) to (6.3351976 9.5027964 12.670395) with tilt (0 0 0)
  1 by 1 by 1 MPI processor grid
  pair style eam/alloy stores no restart info
  48 atoms
  read_restart CPU = 0.000 seconds
Changing box ...
  triclinic box = (0.0048023897 0.0072035845 0.0096047793) to (6.3351976 9.5027963 12.670395) with tilt (0 0 0)
  triclinic box = (0.0048023897 0.0072035845 0.0096047793) to (6.3351976 9.5027963 12.670395) with tilt (0 0 0)
Neighbor list info ...
  update: every = 1 steps, delay = 0 steps, check = yes
  max neighbors/atom: 2000, page size: 100000
  master list distance cutoff = 5.403
  ghost atom cutoff = 5.403
  1 neighbor lists, perpetual/occasional/extra = 1 0 0
  (1) pair eam/alloy, perpetual
      attributes: half, newton on
      pair build: half/nsq/newton
      stencil: none
      bin: none
Setting up cg style minimization ...
  Unit style    : metal
  Current step  : 19
Per MPI rank memory allocation (min/avg/max) = 4.428 | 4.428 | 4.428 Mbytes
   Step          Temp          PotEng         Press           Pxx            Pyy            Pzz            Pxy            Pxz            Pyz             Lx             Ly             Lz           Volume    
        19   0             -427.2001       0.025343793    0.013430857    0.046894606    0.015705915    6.6374392e-05  2.5160095e-05 -2.342145e-05   6.3303952      9.4955927      12.66079       761.05094    
        20   0             -427.2001       0.032501431    0.020989155    0.055073468    0.021441671    1.4481751e-06 -1.2140966e-05  3.5606553e-06  6.3303952      9.4955927      12.66079       761.05094    
        21   0             -427.2001       0.031810199    0.020493647    0.054407595    0.020529355   -7.3752609e-07  5.1917979e-07  5.6744585e-07  6.3303952      9.4955927      12.66079       761.05094    
        22   0             -427.2001       0.031734032    0.020449382    0.054297032    0.020455683   -4.4192396e-07  1.3541599e-07  7.5141478e-08  6.3303952      9.4955927      12.66079       761.05094    
        23   0             -427.2001       0.031726703    0.020446839    0.054288531    0.02044474    -2.7206643e-07  2.9492027e-08 -4.3458996e-09  6.3303952      9.4955927      12.66079       761.05094    
        24   0             -427.2001       0.031724658    0.020442962    0.054287515    0.020443497   -9.0498034e-08 -1.2017236e-08  2.4564593e-09  6.3303952      9.4955927      12.66079       761.05094    
        25   0             -427.2001       0.031723582    0.020442035    0.05428654     0.020442171   -2.6863657e-08 -1.2006721e-09  6.0764062e-09  6.3303952      9.4955927      12.66079       761.05094    
        26   0             -427.2001       0.03172329     0.020441792    0.054286188    0.02044189    -1.0100109e-08 -5.1375192e-11  1.3626221e-09  6.3303952      9.4955927      12.66079       761.05094    
        27   0             -427.2001       0.031723186    0.020441722    0.054286088    0.020441749   -1.4550579e-09  4.4847574e-10 -1.1218844e-11  6.3303952      9.4955927      12.66079       761.05094    
        28   0             -427.2001       0.031723144    0.020441701    0.054286025    0.020441705   -1.5005683e-10  1.8405916e-11  6.8247966e-11  6.3303952      9.4955927      12.66079       761.05094    
        29   0             -427.2001       0.031723131    0.020441691    0.054286005    0.020441696    1.8051675e-11  5.200995e-11   1.4491007e-11  6.3303952      9.4955927      12.66079       761.05094    
        30   0             -427.2001       0.031723127    0.02044169     0.054286002    0.02044169    -6.6587006e-11  1.5294896e-11 -1.8230621e-11  6.3303952      9.4955927      12.66079       761.05094    
        31   0             -427.2001       0.031723127    0.020441689    0.054286001    0.02044169    -1.5908883e-11 -2.4175339e-11  1.4023555e-12  6.3303952      9.4955927      12.66079       761.05094    
        32   0             -427.2001       0.031723127    0.020441689    0.054286001    0.02044169     2.9470692e-11  6.3270335e-12 -3.5526339e-11  6.3303952      9.4955927      12.66079       761.05094    
        33   0             -427.2001       0.031723127    0.020441689    0.054286001    0.02044169     1.5927143e-12 -4.3300236e-11  3.1319272e-11  6.3303952      9.4955927      12.66079       761.05094    
        34   0             -427.2001       0.031723127    0.020441689    0.054286001    0.02044169    -4.667899e-12   2.8249794e-11 -2.3840043e-11  6.3303952      9.4955927      12.66079       761.05094    
        35   0             -427.2001       0.031723127    0.020441689    0.054286001    0.02044169     7.9053681e-11  3.2244589e-11 -4.0668309e-11  6.3303952      9.4955927      12.66079       761.05094    
        36   0             -427.2001       0.031723127    0.020441689    0.054286001    0.02044169    -3.0870308e-11  4.9469778e-11 -2.2437688e-11  6.3303952      9.4955927      12.66079       761.05094    
        37   0             -427.2001       0.031723127    0.020441689    0.054286001    0.02044169    -6.4616998e-12  3.4826759e-11 -9.8164883e-12  6.3303952      9.4955927      12.66079       761.05094    
        38   0             -427.2001       0.031723127    0.020441689    0.054286001    0.02044169    -4.7952614e-12 -1.4996804e-11 -3.2721628e-12  6.3303952      9.4955927      12.66079       761.05094    
        39   0             -427.2001       0.031723127    0.020441689    0.054286001    0.02044169     2.0098374e-11 -9.4357707e-12 -2.3372591e-12  6.3303952      9.4955927      12.66079       761.05094    
        40   0             -427.2001       0.031723127    0.020441689    0.054286001    0.02044169     6.7650413e-12  2.5579292e-11  8.1804069e-11  6.3303952      9.4955927      12.66079       761.05094    
        41   0             -427.2001       0.031723127    0.020441689    0.054286001    0.02044169    -1.3022459e-11  7.3803978e-12  3.0384369e-11  6.3303952      9.4955927      12.66079       761.05094    
Loop time of 0.001203 on 1 procs for 22 steps with 48 atoms

0.0% CPU use with 1 MPI tasks x 1 OpenMP threads

Minimization stats:
  Stopping criterion = force tolerance
  Energy initial, next-to-last, final = 
     -427.200100267297  -427.200100306396  -427.200100306396
  Force two-norm initial, final = 0.001321416 3.3709362e-11
  Force max component initial, final = 0.00030740267 9.7279407e-12
  Final line search alpha, max atom move = 1 9.7279407e-12
  Iterations, force evaluations = 22 44

MPI task timing breakdown:
Section |  min time  |  avg time  |  max time  |%varavg| %total
---------------------------------------------------------------
Pair    | 0.00091    | 0.00091    | 0.00091    |   0.0 | 75.64
Neigh   | 0          | 0          | 0          |   0.0 |  0.00
Comm    | 7e-05      | 7e-05      | 7e-05      |   0.0 |  5.82
Output  | 0.000183   | 0.000183   | 0.000183   |   0.0 | 15.21
Modify  | 0          | 0          | 0          |   0.0 |  0.00
Other   |            | 4e-05      |            |       |  3.33

Nlocal:             48 ave          48 max          48 min
Histogram: 1 0 0 0 0 0 0 0 0 0
Nghost:            498 ave         498 max         498 min
Histogram: 1 0 0 0 0 0 0 0 0 0
Neighs:           1200 ave        1200 max        1200 min
Histogram: 1 0 0 0 0 0 0 0 0 0

Total # of neighbors = 1200
Ave neighs/atom = 25
Neighbor list builds = 0
Dangerous builds = 0
OMP_NUM_THREADS environment is not set. Defaulting to 1 thread. (src/comm.cpp:98)
  using 1 OpenMP thread(s) per MPI task
Loaded 1 plugins from F:\Lammps\LAMMPS 64-bit 2Aug2023\plugins

The 'box' command has been removed and will be ignored

Reading restart file ...
  restart file = 2 Aug 2023, LAMMPS = 2 Aug 2023
  restoring atom style atomic from restart
  triclinic box = (0.0048023897 0.0072035845 0.0096047793) to (6.3351976 9.5027964 12.670395) with tilt (0 0 0)
  1 by 1 by 1 MPI processor grid
  pair style eam/alloy stores no restart info
  48 atoms
  read_restart CPU = 0.000 seconds
Changing box ...
  triclinic box = (0.0048023897 0.0072035845 0.0096047793) to (6.3351976 9.5027965 12.670395) with tilt (0 0 0)
  triclinic box = (0.0048023897 0.0072035845 0.0096047793) to (6.3351976 9.5027965 12.670395) with tilt (0 0 0)
Neighbor list info ...
  update: every = 1 steps, delay = 0 steps, check = yes
  max neighbors/atom: 2000, page size: 100000
  master list distance cutoff = 5.403
  ghost atom cutoff = 5.403
  1 neighbor lists, perpetual/occasional/extra = 1 0 0
  (1) pair eam/alloy, perpetual
      attributes: half, newton on
      pair build: half/nsq/newton
      stencil: none
      bin: none
Setting up cg style minimization ...
  Unit style    : metal
  Current step  : 19
Per MPI rank memory allocation (min/avg/max) = 4.428 | 4.428 | 4.428 Mbytes
   Step          Temp          PotEng         Press           Pxx            Pyy            Pzz            Pxy            Pxz            Pyz             Lx             Ly             Lz           Volume    
        19   0             -427.2001      -0.038038782   -0.027452574   -0.061486254   -0.025177517    6.63673e-05    2.5157055e-05 -2.3418451e-05  6.3303952      9.4955929      12.66079       761.05095    
        20   0             -427.2001      -0.030940398   -0.019894245   -0.053485221   -0.019441728    1.4477957e-06 -1.2138473e-05  3.560006e-06   6.3303952      9.4955929      12.66079       761.05095    
        21   0             -427.2001      -0.03163596    -0.020389738   -0.054164114   -0.020354029   -7.369773e-07   5.1864758e-07  5.6727194e-07  6.3303952      9.4955929      12.66079       761.05095    
        22   0             -427.2001      -0.031712124   -0.020433998   -0.054274676   -0.020427697   -4.4131832e-07  1.3514397e-07  7.5042377e-08  6.3303952      9.4955929      12.66079       761.05095    
        23   0             -427.2001      -0.031719452   -0.020436541   -0.054283176   -0.020438639   -2.7138949e-07  2.9414874e-08 -4.4679044e-09  6.3303952      9.4955929      12.66079       761.05095    
        24   0             -427.2001      -0.031721496   -0.020440416   -0.054284191   -0.020439881   -8.9963183e-08 -1.1972252e-08  2.5032045e-09  6.3303952      9.4955929      12.66079       761.05095    
        25   0             -427.2001      -0.031722571   -0.020441342   -0.054285164   -0.020441206   -2.648348e-08  -1.1938153e-09  6.077341e-09   6.3303952      9.4955929      12.66079       761.05095    
        26   0             -427.2001      -0.031722863   -0.020441585   -0.054285516   -0.020441487   -9.9676325e-09 -6.6421296e-11  1.3069953e-09  6.3303952      9.4955929      12.66079       761.05095    
        27   0             -427.2001      -0.031722966   -0.020441655   -0.054285616   -0.020441628   -1.4532908e-09  4.9283595e-10  8.8815845e-12  6.3303952      9.4955929      12.66079       761.05095    
        28   0             -427.2001      -0.031723009   -0.020441675   -0.054285679   -0.020441672   -6.0767138e-11  2.4093854e-12  1.3322377e-10  6.3303952      9.4955929      12.66079       761.05095    
        29   0             -427.2001      -0.031723022   -0.020441685   -0.054285698   -0.020441681    2.3435131e-11  7.8569337e-11  5.0017344e-11  6.3303952      9.4955929      12.66079       761.05095    
        30   0             -427.2001      -0.031723025   -0.020441687   -0.054285701   -0.020441686    4.8224228e-12  2.0487537e-11 -3.1786723e-11  6.3303952      9.4955929      12.66079       761.05095    
        31   0             -427.2001      -0.031723025   -0.020441687   -0.054285702   -0.020441687   -4.3657443e-11  2.3817902e-11 -2.8047109e-12  6.3303952      9.4955929      12.66079       761.05095    
        32   0             -427.2001      -0.031723025   -0.020441687   -0.054285702   -0.020441687    8.0797722e-11  5.0118458e-11  7.0117772e-12  6.3303952      9.4955929      12.66079       761.05095    
        33   0             -427.2001      -0.031723025   -0.020441687   -0.054285702   -0.020441687   -5.010385e-11   4.4430747e-12 -5.6094218e-12  6.3303952      9.4955929      12.66079       761.05095    
        34   0             -427.2001      -0.031723025   -0.020441687   -0.054285702   -0.020441687    2.9505385e-11  4.0608735e-11 -8.6478586e-11  6.3303952      9.4955929      12.66079       761.05095    
        35   0             -427.2001      -0.031723025   -0.020441687   -0.054285702   -0.020441687   -2.7757462e-11  8.882292e-11  -9.8164881e-12  6.3303952      9.4955929      12.66079       761.05095    
        36   0             -427.2001      -0.031723025   -0.020441687   -0.054285702   -0.020441687    2.3864922e-11 -6.2510496e-11  1.8698073e-12  6.3303952      9.4955929      12.66079       761.05095    
        37   0             -427.2001      -0.031723025   -0.020441687   -0.054285702   -0.020441687    5.5297861e-11  6.5116859e-12 -3.9265952e-11  6.3303952      9.4955929      12.66079       761.05095    
        38   0             -427.2001      -0.031723026   -0.020441687   -0.054285702   -0.020441687   -1.8597415e-11 -1.5412671e-11 -4.113576e-11   6.3303952      9.4955929      12.66079       761.05095    
        39   0             -427.2001      -0.031723025   -0.020441687   -0.054285702   -0.020441687   -2.8304116e-11 -6.3598097e-11 -1.6360813e-11  6.3303952      9.4955929      12.66079       761.05095    
        40   0             -427.2001      -0.031723025   -0.020441687   -0.054285702   -0.020441687    6.3398152e-12 -3.8224913e-11 -1.5893362e-11  6.3303952      9.4955929      12.66079       761.05095    
        41   0             -427.2001      -0.031723025   -0.020441687   -0.054285702   -0.020441687    7.6536105e-12 -6.6309227e-11 -3.7396145e-11  6.3303952      9.4955929      12.66079       761.05095    
Loop time of 0.001128 on 1 procs for 22 steps with 48 atoms

0.0% CPU use with 1 MPI tasks x 1 OpenMP threads

Minimization stats:
  Stopping criterion = force tolerance
  Energy initial, next-to-last, final = 
     -427.200100267297  -427.200100306397  -427.200100306397
  Force two-norm initial, final = 0.0013214186 3.3714674e-11
  Force max component initial, final = 0.00030740264 9.7184483e-12
  Final line search alpha, max atom move = 1 9.7184483e-12
  Iterations, force evaluations = 22 44

MPI task timing breakdown:
Section |  min time  |  avg time  |  max time  |%varavg| %total
---------------------------------------------------------------
Pair    | 0.000843   | 0.000843   | 0.000843   |   0.0 | 74.73
Neigh   | 0          | 0          | 0          |   0.0 |  0.00
Comm    | 6.1e-05    | 6.1e-05    | 6.1e-05    |   0.0 |  5.41
Output  | 0.000167   | 0.000167   | 0.000167   |   0.0 | 14.80
Modify  | 0          | 0          | 0          |   0.0 |  0.00
Other   |            | 5.7e-05    |            |       |  5.05

Nlocal:             48 ave          48 max          48 min
Histogram: 1 0 0 0 0 0 0 0 0 0
Nghost:            498 ave         498 max         498 min
Histogram: 1 0 0 0 0 0 0 0 0 0
Neighs:           1200 ave        1200 max        1200 min
Histogram: 1 0 0 0 0 0 0 0 0 0

Total # of neighbors = 1200
Ave neighs/atom = 25
Neighbor list builds = 0
Dangerous builds = 0
OMP_NUM_THREADS environment is not set. Defaulting to 1 thread. (src/comm.cpp:98)
  using 1 OpenMP thread(s) per MPI task
Loaded 1 plugins from F:\Lammps\LAMMPS 64-bit 2Aug2023\plugins

The 'box' command has been removed and will be ignored

Reading restart file ...
  restart file = 2 Aug 2023, LAMMPS = 2 Aug 2023
  restoring atom style atomic from restart
  triclinic box = (0.0048023897 0.0072035845 0.0096047793) to (6.3351976 9.5027964 12.670395) with tilt (0 0 0)
  1 by 1 by 1 MPI processor grid
  pair style eam/alloy stores no restart info
  48 atoms
  read_restart CPU = 0.000 seconds
Changing box ...
  triclinic box = (0.0048023897 0.0072035845 0.0096047793) to (6.3351976 9.5027964 12.670395) with tilt (0 0 0)
Neighbor list info ...
  update: every = 1 steps, delay = 0 steps, check = yes
  max neighbors/atom: 2000, page size: 100000
  master list distance cutoff = 5.403
  ghost atom cutoff = 5.403
  1 neighbor lists, perpetual/occasional/extra = 1 0 0
  (1) pair eam/alloy, perpetual
      attributes: half, newton on
      pair build: half/nsq/newton
      stencil: none
      bin: none
Setting up cg style minimization ...
  Unit style    : metal
  Current step  : 19
Per MPI rank memory allocation (min/avg/max) = 4.428 | 4.428 | 4.428 Mbytes
   Step          Temp          PotEng         Press           Pxx            Pyy            Pzz            Pxy            Pxz            Pyz             Lx             Ly             Lz           Volume    
        19   0             -427.2001       0.025343034    0.013430858    0.013145804    0.04945244     6.6374382e-05  2.5160198e-05 -2.3421419e-05  6.3303952      9.4955928      12.66079       761.05094    
        20   0             -427.2001       0.032501472    0.020989155    0.02123568     0.055279579    1.4481884e-06 -1.2141085e-05  3.5606245e-06  6.3303952      9.4955928      12.66079       761.05094    
        21   0             -427.2001       0.0318102      0.020493647    0.020563285    0.054373667   -7.3749829e-07  5.1922032e-07  5.6744631e-07  6.3303952      9.4955928      12.66079       761.05094    
        22   0             -427.2001       0.031734033    0.020449383    0.02045272     0.054299996   -4.4197323e-07  1.3539813e-07  7.5174667e-08  6.3303952      9.4955928      12.66079       761.05094    
        23   0             -427.2001       0.031726703    0.020446839    0.020444219    0.054289053   -2.7199953e-07  2.9463781e-08 -4.4674371e-09  6.3303952      9.4955928      12.66079       761.05094    
        24   0             -427.2001       0.031724658    0.020442962    0.020443203    0.05428781    -9.0408509e-08 -1.2050816e-08  2.473755e-09   6.3303952      9.4955928      12.66079       761.05094    
        25   0             -427.2001       0.031723582    0.020442035    0.020442228    0.054286484   -2.6892552e-08 -1.1818743e-09  6.06472e-09    6.3303952      9.4955928      12.66079       761.05094    
        26   0             -427.2001       0.03172329     0.020441792    0.020441875    0.054286203   -1.0198771e-08 -1.4909408e-10  1.3944088e-09  6.3303952      9.4955928      12.66079       761.05094    
        27   0             -427.2001       0.031723186    0.020441722    0.020441776    0.054286061   -1.4520797e-09  5.2617295e-10 -6.4508352e-11  6.3303952      9.4955928      12.66079       761.05094    
        28   0             -427.2001       0.031723144    0.020441701    0.020441713    0.054286017   -9.5747965e-11  1.7651556e-11  1.4677987e-10  6.3303952      9.4955928      12.66079       761.05094    
        29   0             -427.2001       0.031723131    0.020441691    0.020441693    0.054286008    5.5017801e-11  6.0125078e-11  9.9567238e-11  6.3303952      9.4955928      12.66079       761.05094    
        30   0             -427.2001       0.031723128    0.02044169     0.02044169     0.054286003   -6.3200491e-11 -3.3677987e-11  6.0768737e-12  6.3303952      9.4955928      12.66079       761.05094    
        31   0             -427.2001       0.031723127    0.020441689    0.02044169     0.054286002   -1.0726285e-11 -1.6999452e-11  8.7413491e-11  6.3303952      9.4955928      12.66079       761.05094    
        32   0             -427.2001       0.031723127    0.020441689    0.02044169     0.054286002    6.0080798e-11 -4.8274444e-12 -5.375696e-11   6.3303952      9.4955928      12.66079       761.05094    
        33   0             -427.2001       0.031723127    0.020441689    0.020441689    0.054286002    2.4333743e-11  7.635328e-11   1.9165525e-11  6.3303952      9.4955928      12.66079       761.05094    
        34   0             -427.2001       0.031723127    0.020441689    0.020441689    0.054286002    7.4833376e-12  1.2644481e-11  7.4792292e-12  6.3303952      9.4955928      12.66079       761.05094    
        35   0             -427.2001       0.031723127    0.020441689    0.020441689    0.054286002   -1.3157125e-11 -5.6756138e-12 -7.4792292e-12  6.3303952      9.4955928      12.66079       761.05094    
        36   0             -427.2001       0.031723127    0.020441689    0.020441689    0.054286002   -3.2870445e-11  1.7326303e-12 -5.1419701e-11  6.3303952      9.4955928      12.66079       761.05094    
        37   0             -427.2001       0.031723127    0.020441689    0.020441689    0.054286002    5.2286358e-11 -2.0827855e-11  2.1502784e-11  6.3303952      9.4955928      12.66079       761.05094    
        38   0             -427.2001       0.031723127    0.020441689    0.020441689    0.054286002   -3.780471e-12  -2.9752578e-11 -3.7396146e-12  6.3303952      9.4955928      12.66079       761.05094    
        39   0             -427.2001       0.031723127    0.020441689    0.020441689    0.054286002   -1.6149228e-11  3.7843284e-11 -2.1970236e-11  6.3303952      9.4955928      12.66079       761.05094    
        40   0             -427.2001       0.031723127    0.020441689    0.020441689    0.054286002   -1.1302383e-11  4.2994612e-11  1.4491007e-11  6.3303952      9.4955928      12.66079       761.05094    
        41   0             -427.2001       0.031723127    0.020441689    0.020441689    0.054286002   -4.923765e-12  -2.1471742e-11  4.7680086e-11  6.3303952      9.4955928      12.66079       761.05094    
Loop time of 0.001132 on 1 procs for 22 steps with 48 atoms

0.0% CPU use with 1 MPI tasks x 1 OpenMP threads

Minimization stats:
  Stopping criterion = force tolerance
  Energy initial, next-to-last, final = 
     -427.200100267297  -427.200100306396  -427.200100306396
  Force two-norm initial, final = 0.0013214164 3.3708636e-11
  Force max component initial, final = 0.00030740267 9.7357677e-12
  Final line search alpha, max atom move = 1 9.7357677e-12
  Iterations, force evaluations = 22 44

MPI task timing breakdown:
Section |  min time  |  avg time  |  max time  |%varavg| %total
---------------------------------------------------------------
Pair    | 0.000838   | 0.000838   | 0.000838   |   0.0 | 74.03
Neigh   | 0          | 0          | 0          |   0.0 |  0.00
Comm    | 5.6e-05    | 5.6e-05    | 5.6e-05    |   0.0 |  4.95
Output  | 0.000174   | 0.000174   | 0.000174   |   0.0 | 15.37
Modify  | 0          | 0          | 0          |   0.0 |  0.00
Other   |            | 6.4e-05    |            |       |  5.65

Nlocal:             48 ave          48 max          48 min
Histogram: 1 0 0 0 0 0 0 0 0 0
Nghost:            498 ave         498 max         498 min
Histogram: 1 0 0 0 0 0 0 0 0 0
Neighs:           1200 ave        1200 max        1200 min
Histogram: 1 0 0 0 0 0 0 0 0 0

Total # of neighbors = 1200
Ave neighs/atom = 25
Neighbor list builds = 0
Dangerous builds = 0
OMP_NUM_THREADS environment is not set. Defaulting to 1 thread. (src/comm.cpp:98)
  using 1 OpenMP thread(s) per MPI task
Loaded 1 plugins from F:\Lammps\LAMMPS 64-bit 2Aug2023\plugins

The 'box' command has been removed and will be ignored

Reading restart file ...
  restart file = 2 Aug 2023, LAMMPS = 2 Aug 2023
  restoring atom style atomic from restart
  triclinic box = (0.0048023897 0.0072035845 0.0096047793) to (6.3351976 9.5027964 12.670395) with tilt (0 0 0)
  1 by 1 by 1 MPI processor grid
  pair style eam/alloy stores no restart info
  48 atoms
  read_restart CPU = 0.000 seconds
Changing box ...
  triclinic box = (0.0048023897 0.0072035845 0.0096047793) to (6.3351976 9.5027964 12.670395) with tilt (0 0 0)
Neighbor list info ...
  update: every = 1 steps, delay = 0 steps, check = yes
  max neighbors/atom: 2000, page size: 100000
  master list distance cutoff = 5.403
  ghost atom cutoff = 5.403
  1 neighbor lists, perpetual/occasional/extra = 1 0 0
  (1) pair eam/alloy, perpetual
      attributes: half, newton on
      pair build: half/nsq/newton
      stencil: none
      bin: none
Setting up cg style minimization ...
  Unit style    : metal
  Current step  : 19
Per MPI rank memory allocation (min/avg/max) = 4.428 | 4.428 | 4.428 Mbytes
   Step          Temp          PotEng         Press           Pxx            Pyy            Pzz            Pxy            Pxz            Pyz             Lx             Ly             Lz           Volume    
        19   0             -427.2001      -0.038038026   -0.027452574   -0.027737628   -0.058923877    6.6367309e-05  2.5157001e-05 -2.3418526e-05  6.3303952      9.4955928      12.660791      761.05095    
        20   0             -427.2001      -0.030940439   -0.019894246   -0.01964772    -0.053279349    1.4478125e-06 -1.2138349e-05  3.5599485e-06  6.3303952      9.4955928      12.660791      761.05095    
        21   0             -427.2001      -0.031635961   -0.020389738   -0.020320101   -0.054198044   -7.369697e-07   5.1862776e-07  5.6727521e-07  6.3303952      9.4955928      12.660791      761.05095    
        22   0             -427.2001      -0.031712124   -0.020433999   -0.020430661   -0.054271713   -4.4127343e-07  1.3515263e-07  7.5042377e-08  6.3303952      9.4955928      12.660791      761.05095    
        23   0             -427.2001      -0.031719452   -0.020436541   -0.020439161   -0.054282654   -2.7136722e-07  2.9415184e-08 -4.4917445e-09  6.3303952      9.4955928      12.660791      761.05095    
        24   0             -427.2001      -0.031721496   -0.020440416   -0.020440176   -0.054283896   -8.9996053e-08 -1.191121e-08   2.4793644e-09  6.3303952      9.4955928      12.660791      761.05095    
        25   0             -427.2001      -0.031722571   -0.020441343   -0.02044115    -0.054285222   -2.649995e-08  -1.2228555e-09  6.0376076e-09  6.3303952      9.4955928      12.660791      761.05095    
        26   0             -427.2001      -0.031722863   -0.020441585   -0.020441502   -0.054285502   -9.9549371e-09 -1.2204578e-10  1.3972135e-09  6.3303952      9.4955928      12.660791      761.05095    
        27   0             -427.2001      -0.031722967   -0.020441655   -0.020441601   -0.054285643   -1.4909099e-09  5.2600266e-10 -5.0952248e-11  6.3303952      9.4955928      12.660791      761.05095    
        28   0             -427.2001      -0.031723009   -0.020441675   -0.020441664   -0.054285687   -4.7465532e-11  4.6360355e-11  7.0117772e-11  6.3303952      9.4955928      12.660791      761.05095    
        29   0             -427.2001      -0.031723022   -0.020441686   -0.020441684   -0.054285696    9.4457906e-11  5.0365879e-11  6.5910706e-11  6.3303952      9.4955928      12.660791      761.05095    
        30   0             -427.2001      -0.031723025   -0.020441687   -0.020441687   -0.054285702    4.7654978e-11  4.2417372e-11  1.1218844e-11  6.3303952      9.4955928      12.660791      761.05095    
        31   0             -427.2001      -0.031723026   -0.020441687   -0.020441687   -0.054285702   -2.2964712e-11  8.0774669e-12  9.3490363e-12  6.3303952      9.4955928      12.660791      761.05095    
        32   0             -427.2001      -0.031723026   -0.020441688   -0.020441688   -0.054285702   -4.2492009e-11  5.3122429e-12 -1.9165524e-11  6.3303952      9.4955928      12.660791      761.05095    
        33   0             -427.2001      -0.031723026   -0.020441688   -0.020441688   -0.054285702    1.9332602e-12  5.8244085e-11 -5.8431477e-11  6.3303952      9.4955928      12.660791      761.05095    
        34   0             -427.2001      -0.031723026   -0.020441688   -0.020441688   -0.054285702   -3.4323928e-11  2.6567149e-11 -1.8230621e-11  6.3303952      9.4955928      12.660791      761.05095    
        35   0             -427.2001      -0.031723026   -0.020441688   -0.020441688   -0.054285702    1.9651236e-11 -4.1599559e-11 -3.9733404e-11  6.3303952      9.4955928      12.660791      761.05095    
        36   0             -427.2001      -0.031723026   -0.020441687   -0.020441688   -0.054285702    2.8779785e-11  4.0285308e-11 -1.7763169e-11  6.3303952      9.4955928      12.660791      761.05095    
        37   0             -427.2001      -0.031723026   -0.020441688   -0.020441687   -0.054285702    1.2556833e-11 -6.6948093e-11  1.4023554e-12  6.3303952      9.4955928      12.660791      761.05095    
        38   0             -427.2001      -0.031723026   -0.020441688   -0.020441688   -0.054285702   -3.4093397e-11  2.5055463e-11 -7.479229e-12   6.3303952      9.4955928      12.660791      761.05095    
        39   0             -427.2001      -0.031723026   -0.020441687   -0.020441688   -0.054285702   -1.2942116e-11 -7.7106724e-12 -3.2721627e-12  6.3303952      9.4955928      12.660791      761.05095    
        40   0             -427.2001      -0.031723026   -0.020441688   -0.020441688   -0.054285702   -2.5060484e-11  7.8615443e-12 -1.2153747e-11  6.3303952      9.4955928      12.660791      761.05095    
        41   0             -427.2001      -0.031723026   -0.020441688   -0.020441688   -0.054285702    5.2360994e-11 -3.9767413e-11 -2.6177302e-11  6.3303952      9.4955928      12.660791      761.05095    
Loop time of 0.001115 on 1 procs for 22 steps with 48 atoms

0.0% CPU use with 1 MPI tasks x 1 OpenMP threads

Minimization stats:
  Stopping criterion = force tolerance
  Energy initial, next-to-last, final = 
     -427.200100267297  -427.200100306397  -427.200100306397
  Force two-norm initial, final = 0.0013214182 3.3712524e-11
  Force max component initial, final = 0.00030740264 9.7434283e-12
  Final line search alpha, max atom move = 1 9.7434283e-12
  Iterations, force evaluations = 22 44

MPI task timing breakdown:
Section |  min time  |  avg time  |  max time  |%varavg| %total
---------------------------------------------------------------
Pair    | 0.000841   | 0.000841   | 0.000841   |   0.0 | 75.43
Neigh   | 0          | 0          | 0          |   0.0 |  0.00
Comm    | 6e-05      | 6e-05      | 6e-05      |   0.0 |  5.38
Output  | 0.000158   | 0.000158   | 0.000158   |   0.0 | 14.17
Modify  | 0          | 0          | 0          |   0.0 |  0.00
Other   |            | 5.6e-05    |            |       |  5.02

Nlocal:             48 ave          48 max          48 min
Histogram: 1 0 0 0 0 0 0 0 0 0
Nghost:            498 ave         498 max         498 min
Histogram: 1 0 0 0 0 0 0 0 0 0
Neighs:           1200 ave        1200 max        1200 min
Histogram: 1 0 0 0 0 0 0 0 0 0

Total # of neighbors = 1200
Ave neighs/atom = 25
Neighbor list builds = 0
Dangerous builds = 0
OMP_NUM_THREADS environment is not set. Defaulting to 1 thread. (src/comm.cpp:98)
  using 1 OpenMP thread(s) per MPI task
Loaded 1 plugins from F:\Lammps\LAMMPS 64-bit 2Aug2023\plugins

The 'box' command has been removed and will be ignored

Reading restart file ...
  restart file = 2 Aug 2023, LAMMPS = 2 Aug 2023
  restoring atom style atomic from restart
  triclinic box = (0.0048023897 0.0072035845 0.0096047793) to (6.3351976 9.5027964 12.670395) with tilt (0 0 0)
  1 by 1 by 1 MPI processor grid
  pair style eam/alloy stores no restart info
  48 atoms
  read_restart CPU = 0.000 seconds
Changing box ...
  triclinic box = (0.0048023897 0.0072035845 0.0096047793) to (6.3351976 9.5027964 12.670395) with tilt (0 0 -1.266079e-07)
Neighbor list info ...
  update: every = 1 steps, delay = 0 steps, check = yes
  max neighbors/atom: 2000, page size: 100000
  master list distance cutoff = 5.403
  ghost atom cutoff = 5.403
  1 neighbor lists, perpetual/occasional/extra = 1 0 0
  (1) pair eam/alloy, perpetual
      attributes: half, newton on
      pair build: half/nsq/newton
      stencil: none
      bin: none
Setting up cg style minimization ...
  Unit style    : metal
  Current step  : 19
Per MPI rank memory allocation (min/avg/max) = 4.428 | 4.428 | 4.428 Mbytes
   Step          Temp          PotEng         Press           Pxx            Pyy            Pzz            Pxy            Pxz            Pyz             Lx             Ly             Lz           Volume    
        19   0             -427.2001      -0.0063475257  -0.0070108599  -0.0072959142  -0.004735803    6.6372466e-05  2.5162133e-05  0.016037976    6.3303952      9.4955928      12.66079       761.05094    
        20   0             -427.2001       0.00078046851  0.00054745472  0.00079397948  0.00099997134  1.4465665e-06 -1.2139553e-05  0.01606494     6.3303952      9.4955928      12.66079       761.05094    
        21   0             -427.2001       8.7069754e-05  5.1954846e-05  0.00012159158  8.7662833e-05 -7.369695e-07   5.1859977e-07  0.01606194     6.3303952      9.4955928      12.66079       761.05094    
        22   0             -427.2001       1.090436e-05   7.6918312e-06  1.1028541e-05  1.3992708e-05 -4.4149051e-07  1.350242e-07   0.016061446    6.3303952      9.4955928      12.66079       761.05094    
        23   0             -427.2001       3.5758084e-06  5.148805e-06   2.5284675e-06  3.0501528e-06 -2.717112e-07   2.9147839e-08  0.016061366    6.3303952      9.4955928      12.66079       761.05094    
        24   0             -427.2001       1.5310707e-06  1.2726032e-06  1.512683e-06   1.8079259e-06 -9.0273172e-08 -1.2316755e-08  0.016061372    6.3303952      9.4955928      12.66079       761.05094    
        25   0             -427.2001       4.5546689e-07  3.4608143e-07  5.3850917e-07  4.8181006e-07 -2.672017e-08  -1.4394608e-09  0.016061375    6.3303952      9.4955928      12.66079       761.05094    
        26   0             -427.2001       1.6355698e-07  1.0299325e-07  1.8646139e-07  2.0121632e-07 -1.0024016e-08 -2.0702295e-10  0.01606137     6.3303952      9.4955928      12.66079       761.05094    
        27   0             -427.2001       5.9966927e-08  3.3299645e-08  8.6582361e-08  6.0018774e-08 -1.4558378e-09  4.6875146e-10  0.016061369    6.3303952      9.4955928      12.66079       761.05094    
        28   0             -427.2001       1.7557342e-08  1.2712402e-08  2.4006456e-08  1.595317e-08  -7.16815e-11    6.0920293e-11  0.016061369    6.3303952      9.4955928      12.66079       761.05094    
        29   0             -427.2001       4.5670966e-09  2.6344877e-09  4.0878662e-09  6.978936e-09   4.0555325e-11  4.3264172e-11  0.016061369    6.3303952      9.4955928      12.66079       761.05094    
        30   0             -427.2001       1.3343968e-09  1.0800835e-09  1.348131e-09   1.5749757e-09 -2.8785263e-11  5.4261615e-11  0.016061369    6.3303952      9.4955928      12.66079       761.05094    
        31   0             -427.2001       6.8243933e-10  6.9744953e-10  4.6698437e-10  8.828841e-10  -2.1429744e-11 -6.6126857e-11  0.016061369    6.3303952      9.4955928      12.66079       761.05094    
        32   0             -427.2001       7.1327586e-10  7.3844309e-10  4.2584861e-10  9.7553588e-10 -9.4881307e-11 -6.3065596e-11  0.016061369    6.3303952      9.4955928      12.66079       761.05094    
        33   0             -427.2001       6.0271567e-10  6.7174196e-10  3.5292612e-10  7.8347892e-10 -1.8761526e-11 -3.857322e-11   0.016061369    6.3303952      9.4955928      12.66079       761.05094    
        34   0             -427.2001       7.1770973e-10  7.8902489e-10  4.3613255e-10  9.2797175e-10  4.9316852e-11 -6.7707474e-12  0.016061369    6.3303952      9.4955928      12.66079       761.05094    
        35   0             -427.2001       6.5230527e-10  7.477709e-10   3.6461242e-10  8.4453251e-10 -2.8610882e-12  2.8881127e-11  0.016061369    6.3303952      9.4955928      12.66079       761.05094    
        36   0             -427.2001       7.1344157e-10  7.3679148e-10  4.5857023e-10  9.4496298e-10  3.5529077e-12 -7.3971283e-11  0.016061369    6.3303952      9.4955928      12.66079       761.05094    
        37   0             -427.2001       7.1318585e-10  7.5380166e-10  4.4314432e-10  9.4261157e-10 -1.7404135e-11 -6.7089607e-11  0.016061369    6.3303952      9.4955928      12.66079       761.05094    
        38   0             -427.2001       6.4793357e-10  7.3309592e-10  3.7489636e-10  8.3580842e-10 -2.4159818e-11 -2.5742718e-11  0.016061369    6.3303952      9.4955928      12.66079       761.05094    
        39   0             -427.2001       6.703498e-10   7.1029532e-10  4.2210899e-10  8.7864508e-10 -4.7850358e-11 -5.2464163e-11  0.016061369    6.3303952      9.4955928      12.66079       761.05094    
        40   0             -427.2001       5.9271339e-10  5.8388247e-10  2.9355974e-10  9.0069794e-10 -2.018488e-11   8.6465805e-11  0.016061369    6.3303952      9.4955928      12.66079       761.05094    
        41   0             -427.2001       5.9707992e-10  7.045065e-10   3.6227516e-10  7.2445811e-10 -2.5221399e-12 -3.0422942e-11  0.016061369    6.3303952      9.4955928      12.66079       761.05094    
Loop time of 0.001128 on 1 procs for 22 steps with 48 atoms

0.0% CPU use with 1 MPI tasks x 1 OpenMP threads

Minimization stats:
  Stopping criterion = force tolerance
  Energy initial, next-to-last, final = 
     -427.200100267296  -427.200100306397  -427.200100306397
  Force two-norm initial, final = 0.0013214173 3.3705285e-11
  Force max component initial, final = 0.00030740266 9.7084563e-12
  Final line search alpha, max atom move = 1 9.7084563e-12
  Iterations, force evaluations = 22 44

MPI task timing breakdown:
Section |  min time  |  avg time  |  max time  |%varavg| %total
---------------------------------------------------------------
Pair    | 0.000836   | 0.000836   | 0.000836   |   0.0 | 74.11
Neigh   | 0          | 0          | 0          |   0.0 |  0.00
Comm    | 6.1e-05    | 6.1e-05    | 6.1e-05    |   0.0 |  5.41
Output  | 0.000177   | 0.000177   | 0.000177   |   0.0 | 15.69
Modify  | 0          | 0          | 0          |   0.0 |  0.00
Other   |            | 5.4e-05    |            |       |  4.79

Nlocal:             48 ave          48 max          48 min
Histogram: 1 0 0 0 0 0 0 0 0 0
Nghost:            498 ave         498 max         498 min
Histogram: 1 0 0 0 0 0 0 0 0 0
Neighs:           1200 ave        1200 max        1200 min
Histogram: 1 0 0 0 0 0 0 0 0 0

Total # of neighbors = 1200
Ave neighs/atom = 25
Neighbor list builds = 0
Dangerous builds = 0
OMP_NUM_THREADS environment is not set. Defaulting to 1 thread. (src/comm.cpp:98)
  using 1 OpenMP thread(s) per MPI task
Loaded 1 plugins from F:\Lammps\LAMMPS 64-bit 2Aug2023\plugins

The 'box' command has been removed and will be ignored

Reading restart file ...
  restart file = 2 Aug 2023, LAMMPS = 2 Aug 2023
  restoring atom style atomic from restart
  triclinic box = (0.0048023897 0.0072035845 0.0096047793) to (6.3351976 9.5027964 12.670395) with tilt (0 0 0)
  1 by 1 by 1 MPI processor grid
  pair style eam/alloy stores no restart info
  48 atoms
  read_restart CPU = 0.000 seconds
Changing box ...
  triclinic box = (0.0048023897 0.0072035845 0.0096047793) to (6.3351976 9.5027964 12.670395) with tilt (0 0 1.266079e-07)
Neighbor list info ...
  update: every = 1 steps, delay = 0 steps, check = yes
  max neighbors/atom: 2000, page size: 100000
  master list distance cutoff = 5.403
  ghost atom cutoff = 5.403
  1 neighbor lists, perpetual/occasional/extra = 1 0 0
  (1) pair eam/alloy, perpetual
      attributes: half, newton on
      pair build: half/nsq/newton
      stencil: none
      bin: none
Setting up cg style minimization ...
  Unit style    : metal
  Current step  : 19
Per MPI rank memory allocation (min/avg/max) = 4.428 | 4.428 | 4.428 Mbytes
   Step          Temp          PotEng         Press           Pxx            Pyy            Pzz            Pxy            Pxz            Pyz             Lx             Ly             Lz           Volume    
        19   0             -427.2001      -0.0063475228  -0.007010857   -0.0072959112  -0.0047358001   6.6369295e-05  2.5155026e-05 -0.016084817    6.3303952      9.4955928      12.66079       761.05094    
        20   0             -427.2001       0.00078046789  0.00054745431  0.00079397868  0.00099997069  1.4494282e-06 -1.2139839e-05 -0.01605782     6.3303952      9.4955928      12.66079       761.05094    
        21   0             -427.2001       8.7069523e-05  5.1954532e-05  0.00012159136  8.7662679e-05 -7.3750773e-07  5.1918648e-07 -0.016060805    6.3303952      9.4955928      12.66079       761.05094    
        22   0             -427.2001       1.0904224e-05  7.6916878e-06  1.1028481e-05  1.3992504e-05 -4.41736e-07    1.3553448e-07 -0.016061296    6.3303952      9.4955928      12.66079       761.05094    
        23   0             -427.2001       3.5757524e-06  5.1486947e-06  2.5284478e-06  3.0501148e-06 -2.7173541e-07  2.9751632e-08 -0.016061375    6.3303952      9.4955928      12.66079       761.05094    
        24   0             -427.2001       1.5310888e-06  1.2726048e-06  1.5127335e-06  1.8079281e-06 -9.0152916e-08 -1.1830789e-08 -0.016061367    6.3303952      9.4955928      12.66079       761.05094    
        25   0             -427.2001       4.5546928e-07  3.4609128e-07  5.3847598e-07  4.8184059e-07 -2.6727807e-08 -1.0411665e-09 -0.016061363    6.3303952      9.4955928      12.66079       761.05094    
        26   0             -427.2001       1.6350278e-07  1.0296446e-07  1.8637117e-07  2.0117272e-07 -1.00268e-08   -1.183945e-11  -0.016061368    6.3303952      9.4955928      12.66079       761.05094    
        27   0             -427.2001       6.0027432e-08  3.334819e-08   8.6645934e-08  6.0088172e-08 -1.4488566e-09  5.0396282e-10 -0.016061369    6.3303952      9.4955928      12.66079       761.05094    
        28   0             -427.2001       1.7616797e-08  1.2750675e-08  2.415978e-08   1.5939937e-08 -3.6303523e-11 -1.112549e-11  -0.016061369    6.3303952      9.4955928      12.66079       761.05094    
        29   0             -427.2001       4.5433675e-09  2.648519e-09   4.0925407e-09  6.8890429e-09  6.173491e-11   2.2771386e-11 -0.016061369    6.3303952      9.4955928      12.66079       761.05094    
        30   0             -427.2001       1.3137697e-09  1.0406044e-09  1.3069953e-09  1.5937094e-09 -2.0789052e-11  2.7765679e-11 -0.016061369    6.3303952      9.4955928      12.66079       761.05094    
        31   0             -427.2001       7.4332592e-10  7.7539917e-10  5.2822055e-10  9.2635803e-10  3.8549711e-11 -2.2133661e-11 -0.016061369    6.3303952      9.4955928      12.66079       761.05094    
        32   0             -427.2001       7.4768964e-10  7.4665705e-10  4.9409657e-10  1.0023153e-09 -2.5074408e-11 -6.0689078e-11 -0.016061369    6.3303952      9.4955928      12.66079       761.05094    
        33   0             -427.2001       4.9540991e-10  5.4740617e-10  2.454122e-10   6.9341136e-10  3.799872e-12  -9.0543683e-12 -0.016061369    6.3303952      9.4955928      12.66079       761.05094    
        34   0             -427.2001       7.2585613e-10  7.8877907e-10  4.5483062e-10  9.3395869e-10 -5.5689078e-11  4.7005613e-11 -0.016061369    6.3303952      9.4955928      12.66079       761.05094    
        35   0             -427.2001       5.4811807e-10  6.2665774e-10  3.1552998e-10  7.021665e-10   4.8229478e-11  1.7248698e-11 -0.016061369    6.3303952      9.4955928      12.66079       761.05094    
        36   0             -427.2001       7.0536007e-10  7.7013669e-10  4.5623297e-10  8.8971054e-10  2.9454714e-11 -9.7346841e-11 -0.016061369    6.3303952      9.4955928      12.66079       761.05094    
        37   0             -427.2001       7.6182785e-10  8.0570457e-10  4.7025653e-10  1.0095225e-09 -6.1398701e-14 -8.0439145e-12 -0.016061369    6.3303952      9.4955928      12.66079       761.05094    
        38   0             -427.2001       6.7776953e-10  7.5387333e-10  4.0481327e-10  8.7462198e-10  7.8022e-12     1.4474116e-11 -0.016061369    6.3303952      9.4955928      12.66079       761.05094    
        39   0             -427.2001       6.0327054e-10  6.662793e-10   3.2861863e-10  8.1491369e-10  1.4431205e-11 -6.079818e-11  -0.016061369    6.3303952      9.4955928      12.66079       761.05094    
        40   0             -427.2001       7.0760839e-10  7.5059067e-10  4.1836938e-10  9.5386511e-10  1.3690997e-11  1.8186797e-11 -0.016061369    6.3303952      9.4955928      12.66079       761.05094    
        41   0             -427.2001       7.1465387e-10  8.1878546e-10  4.3893726e-10  8.8623889e-10 -4.8636444e-11 -2.3384232e-11 -0.016061369    6.3303952      9.4955928      12.66079       761.05094    
Loop time of 0.001247 on 1 procs for 22 steps with 48 atoms

0.0% CPU use with 1 MPI tasks x 1 OpenMP threads

Minimization stats:
  Stopping criterion = force tolerance
  Energy initial, next-to-last, final = 
     -427.200100267297  -427.200100306397  -427.200100306396
  Force two-norm initial, final = 0.0013214173 3.3722065e-11
  Force max component initial, final = 0.00030740265 9.7237218e-12
  Final line search alpha, max atom move = 1 9.7237218e-12
  Iterations, force evaluations = 22 44

MPI task timing breakdown:
Section |  min time  |  avg time  |  max time  |%varavg| %total
---------------------------------------------------------------
Pair    | 0.000959   | 0.000959   | 0.000959   |   0.0 | 76.90
Neigh   | 0          | 0          | 0          |   0.0 |  0.00
Comm    | 6.3e-05    | 6.3e-05    | 6.3e-05    |   0.0 |  5.05
Output  | 0.000172   | 0.000172   | 0.000172   |   0.0 | 13.79
Modify  | 0          | 0          | 0          |   0.0 |  0.00
Other   |            | 5.3e-05    |            |       |  4.25

Nlocal:             48 ave          48 max          48 min
Histogram: 1 0 0 0 0 0 0 0 0 0
Nghost:            498 ave         498 max         498 min
Histogram: 1 0 0 0 0 0 0 0 0 0
Neighs:           1200 ave        1200 max        1200 min
Histogram: 1 0 0 0 0 0 0 0 0 0

Total # of neighbors = 1200
Ave neighs/atom = 25
Neighbor list builds = 0
Dangerous builds = 0
OMP_NUM_THREADS environment is not set. Defaulting to 1 thread. (src/comm.cpp:98)
  using 1 OpenMP thread(s) per MPI task
Loaded 1 plugins from F:\Lammps\LAMMPS 64-bit 2Aug2023\plugins

The 'box' command has been removed and will be ignored

Reading restart file ...
  restart file = 2 Aug 2023, LAMMPS = 2 Aug 2023
  restoring atom style atomic from restart
  triclinic box = (0.0048023897 0.0072035845 0.0096047793) to (6.3351976 9.5027964 12.670395) with tilt (0 0 0)
  1 by 1 by 1 MPI processor grid
  pair style eam/alloy stores no restart info
  48 atoms
  read_restart CPU = 0.000 seconds
Changing box ...
  triclinic box = (0.0048023897 0.0072035845 0.0096047793) to (6.3351976 9.5027964 12.670395) with tilt (0 -1.266079e-07 0)
Neighbor list info ...
  update: every = 1 steps, delay = 0 steps, check = yes
  max neighbors/atom: 2000, page size: 100000
  master list distance cutoff = 5.403
  ghost atom cutoff = 5.403
  1 neighbor lists, perpetual/occasional/extra = 1 0 0
  (1) pair eam/alloy, perpetual
      attributes: half, newton on
      pair build: half/nsq/newton
      stencil: none
      bin: none
Setting up cg style minimization ...
  Unit style    : metal
  Current step  : 19
Per MPI rank memory allocation (min/avg/max) = 4.428 | 4.428 | 4.428 Mbytes
   Step          Temp          PotEng         Press           Pxx            Pyy            Pzz            Pxy            Pxz            Pyz             Lx             Ly             Lz           Volume    
        19   0             -427.2001      -0.0063475228  -0.0070108574  -0.0072959109  -0.0047358001   6.6369399e-05  0.016086555   -2.3416414e-05  6.3303952      9.4955928      12.66079       761.05094    
        20   0             -427.2001       0.00078046685  0.00054745285  0.00079397806  0.00099996964  1.4483446e-06  0.01604924     3.5603412e-06  6.3303952      9.4955928      12.66079       761.05094    
        21   0             -427.2001       8.7069896e-05  5.1954679e-05  0.00012159205  8.7662958e-05 -7.3711672e-07  0.016061892    5.6703729e-07  6.3303952      9.4955928      12.66079       761.05094    
        22   0             -427.2001       1.09045e-05    7.691591e-06   1.1029011e-05  1.3992897e-05 -4.4157388e-07  0.016061506    7.4747416e-08  6.3303952      9.4955928      12.66079       761.05094    
        23   0             -427.2001       3.575788e-06   5.1484236e-06  2.5287404e-06  3.0502e-06    -2.7166456e-07  0.0160614     -4.7703458e-09  6.3303952      9.4955928      12.66079       761.05094    
        24   0             -427.2001       1.5311199e-06  1.2723736e-06  1.5131214e-06  1.8078646e-06 -9.0256468e-08  0.016061358    2.3031351e-09  6.3303952      9.4955928      12.66079       761.05094    
        25   0             -427.2001       4.5552376e-07  3.4581982e-07  5.38885e-07    4.8186646e-07 -2.6670769e-08  0.016061368    5.8366034e-09  6.3303952      9.4955928      12.66079       761.05094    
        26   0             -427.2001       1.6353559e-07  1.0251831e-07  1.8677131e-07  2.0131714e-07 -1.0043633e-08  0.016061369    1.2882972e-09  6.3303952      9.4955928      12.66079       761.05094    
        27   0             -427.2001       5.9916217e-08  3.2870323e-08  8.6900695e-08  5.9977633e-08 -1.4365664e-09  0.016061369    1.2153747e-11  6.3303952      9.4955928      12.66079       761.05094    
        28   0             -427.2001       1.7543577e-08  1.2442578e-08  2.4304222e-08  1.5883929e-08 -5.1007712e-11  0.016061369    8.2738972e-11  6.3303952      9.4955928      12.66079       761.05094    
        29   0             -427.2001       4.6106683e-09  2.3803007e-09  4.4571531e-09  6.9945509e-09  6.0567878e-11  0.016061369    7.8999357e-11  6.3303952      9.4955928      12.66079       761.05094    
        30   0             -427.2001       1.4601231e-09  8.6606565e-10  1.8006244e-09  1.7136793e-09  1.677691e-11   0.016061369    1.8698073e-12  6.3303952      9.4955928      12.66079       761.05094    
        31   0             -427.2001       7.0429499e-10  3.6204235e-10  8.0962655e-10  9.4121606e-10  3.0826713e-11  0.016061369    1.1686295e-11  6.3303952      9.4955928      12.66079       761.05094    
        32   0             -427.2001       6.9741133e-10  4.7503787e-10  7.2034325e-10  8.9685288e-10  7.2302106e-12  0.016061369   -1.2153747e-11  6.3303952      9.4955928      12.66079       761.05094    
        33   0             -427.2001       6.5468537e-10  3.7430542e-10  6.7359807e-10  9.1615261e-10 -1.1688121e-11  0.016061369    5.5159315e-11  6.3303952      9.4955928      12.66079       761.05094    
        34   0             -427.2001       6.0653045e-10  3.423514e-10   6.4181135e-10  8.3542861e-10 -3.3837303e-11  0.016061369    7.5259743e-11  6.3303952      9.4955928      12.66079       761.05094    
        35   0             -427.2001       5.9211477e-10  3.2526932e-10  6.946334e-10   7.5644158e-10  6.1608004e-11  0.016061369    5.14197e-12    6.3303952      9.4955928      12.66079       761.05094    
        36   0             -427.2001       6.9412015e-10  4.1443484e-10  7.0912441e-10  9.588012e-10   1.030608e-11   0.016061369   -1.8698073e-12  6.3303952      9.4955928      12.66079       761.05094    
        37   0             -427.2001       7.4354998e-10  4.9521727e-10  7.5493469e-10  9.8049799e-10  1.6237332e-11  0.016061369   -9.255546e-11   6.3303952      9.4955928      12.66079       761.05094    
        38   0             -427.2001       6.4055614e-10  4.0946406e-10  6.7313062e-10  8.3907373e-10 -3.5125078e-12  0.016061369    2.6177302e-11  6.3303952      9.4955928      12.66079       761.05094    
        39   0             -427.2001       6.4469237e-10  4.2324316e-10  6.9182869e-10  8.1900526e-10 -3.9866473e-11  0.016061369    1.028394e-11   6.3303952      9.4955928      12.66079       761.05094    
        40   0             -427.2001       5.5995767e-10  2.8980506e-10  5.77303e-10    8.1276496e-10  4.0133067e-11  0.016061369    7.5727195e-11  6.3303952      9.4955928      12.66079       761.05094    
        41   0             -427.2001       7.3771186e-10  5.4636581e-10  7.839167e-10   8.8285306e-10 -1.6934629e-11  0.016061369   -2.570985e-11   6.3303952      9.4955928      12.66079       761.05094    
Loop time of 0.001124 on 1 procs for 22 steps with 48 atoms

0.0% CPU use with 1 MPI tasks x 1 OpenMP threads

Minimization stats:
  Stopping criterion = force tolerance
  Energy initial, next-to-last, final = 
     -427.200100267297  -427.200100306397  -427.200100306397
  Force two-norm initial, final = 0.0013214173 3.3712451e-11
  Force max component initial, final = 0.00030740266 9.7064579e-12
  Final line search alpha, max atom move = 1 9.7064579e-12
  Iterations, force evaluations = 22 44

MPI task timing breakdown:
Section |  min time  |  avg time  |  max time  |%varavg| %total
---------------------------------------------------------------
Pair    | 0.000848   | 0.000848   | 0.000848   |   0.0 | 75.44
Neigh   | 0          | 0          | 0          |   0.0 |  0.00
Comm    | 6.4e-05    | 6.4e-05    | 6.4e-05    |   0.0 |  5.69
Output  | 0.000165   | 0.000165   | 0.000165   |   0.0 | 14.68
Modify  | 0          | 0          | 0          |   0.0 |  0.00
Other   |            | 4.7e-05    |            |       |  4.18

Nlocal:             48 ave          48 max          48 min
Histogram: 1 0 0 0 0 0 0 0 0 0
Nghost:            498 ave         498 max         498 min
Histogram: 1 0 0 0 0 0 0 0 0 0
Neighs:           1200 ave        1200 max        1200 min
Histogram: 1 0 0 0 0 0 0 0 0 0

Total # of neighbors = 1200
Ave neighs/atom = 25
Neighbor list builds = 0
Dangerous builds = 0
OMP_NUM_THREADS environment is not set. Defaulting to 1 thread. (src/comm.cpp:98)
  using 1 OpenMP thread(s) per MPI task
Loaded 1 plugins from F:\Lammps\LAMMPS 64-bit 2Aug2023\plugins

The 'box' command has been removed and will be ignored

Reading restart file ...
  restart file = 2 Aug 2023, LAMMPS = 2 Aug 2023
  restoring atom style atomic from restart
  triclinic box = (0.0048023897 0.0072035845 0.0096047793) to (6.3351976 9.5027964 12.670395) with tilt (0 0 0)
  1 by 1 by 1 MPI processor grid
  pair style eam/alloy stores no restart info
  48 atoms
  read_restart CPU = 0.000 seconds
Changing box ...
  triclinic box = (0.0048023897 0.0072035845 0.0096047793) to (6.3351976 9.5027964 12.670395) with tilt (0 1.266079e-07 0)
Neighbor list info ...
  update: every = 1 steps, delay = 0 steps, check = yes
  max neighbors/atom: 2000, page size: 100000
  master list distance cutoff = 5.403
  ghost atom cutoff = 5.403
  1 neighbor lists, perpetual/occasional/extra = 1 0 0
  (1) pair eam/alloy, perpetual
      attributes: half, newton on
      pair build: half/nsq/newton
      stencil: none
      bin: none
Setting up cg style minimization ...
  Unit style    : metal
  Current step  : 19
Per MPI rank memory allocation (min/avg/max) = 4.428 | 4.428 | 4.428 Mbytes
   Step          Temp          PotEng         Press           Pxx            Pyy            Pzz            Pxy            Pxz            Pyz             Lx             Ly             Lz           Volume    
        19   0             -427.2001      -0.0063475258  -0.0070108604  -0.0072959139  -0.0047358031   6.6372337e-05 -0.016036238   -2.3423488e-05  6.3303952      9.4955928      12.66079       761.05094    
        20   0             -427.2001       0.00078046961  0.00054745561  0.00079398087  0.00099997234  1.447658e-06  -0.016073519    3.5602042e-06  6.3303952      9.4955928      12.66079       761.05094    
        21   0             -427.2001       8.7069287e-05  5.1953974e-05  0.00012159146  8.7662429e-05 -7.3732873e-07 -0.016060854    5.676618e-07   6.3303952      9.4955928      12.66079       761.05094    
        22   0             -427.2001       1.0904189e-05  7.6914397e-06  1.1028681e-05  1.3992446e-05 -4.4169571e-07 -0.016061236    7.5390162e-08  6.3303952      9.4955928      12.66079       761.05094    
        23   0             -427.2001       3.5757174e-06  5.1482732e-06  2.52874e-06    3.0501389e-06 -2.7172919e-07 -0.016061341   -4.0757124e-09  6.3303952      9.4955928      12.66079       761.05094    
        24   0             -427.2001       1.5312161e-06  1.272455e-06   1.5131789e-06  1.8080142e-06 -9.0186684e-08 -0.016061382    2.6845758e-09  6.3303952      9.4955928      12.66079       761.05094    
        25   0             -427.2001       4.5545422e-07  3.4574281e-07  5.3878777e-07  4.8183208e-07 -2.6695823e-08 -0.016061371    6.2376771e-09  6.3303952      9.4955928      12.66079       761.05094    
        26   0             -427.2001       1.6344409e-07  1.0263809e-07  1.8659601e-07  2.0109817e-07 -1.0045607e-08 -0.016061369    1.4280653e-09  6.3303952      9.4955928      12.66079       761.05094    
        27   0             -427.2001       5.9959761e-08  3.3002758e-08  8.6924068e-08  5.9952456e-08 -1.4506285e-09 -0.016061369   -8.6011135e-11  6.3303952      9.4955928      12.66079       761.05094    
        28   0             -427.2001       1.7638718e-08  1.2436293e-08  2.4431369e-08  1.6048491e-08 -1.0804916e-10 -0.016061369    1.0891627e-10  6.3303952      9.4955928      12.66079       761.05094    
[...]
        34   0             -427.2001       5.730006e-10   3.4852756e-10  6.3433212e-10  7.3614212e-10 -1.2478316e-12 -0.016061369    2.570985e-11   6.3303952      9.4955928      12.66079       761.05094    
        35   0             -427.2001       6.0359488e-10  2.5843695e-10  6.9182869e-10  8.60519e-10    4.2399341e-12 -0.016061369    8.4141327e-12  6.3303952      9.4955928      12.66079       761.05094    
        36   0             -427.2001       6.3995463e-10  3.1966035e-10  6.8154475e-10  9.1865877e-10  1.2886195e-11 -0.016061369    4.9082441e-11  6.3303952      9.4955928      12.66079       761.05094    
        37   0             -427.2001       7.3701958e-10  4.0311443e-10  7.9373319e-10  1.0142111e-09 -2.5706883e-11 -0.016061369   -4.8147537e-11  6.3303952      9.4955928      12.66079       761.05094    
        38   0             -427.2001       6.5361945e-10  4.1833035e-10  6.7126081e-10  8.7126719e-10  2.3185428e-11 -0.016061369   -3.7396145e-12  6.3303952      9.4955928      12.66079       761.05094    
        39   0             -427.2001       6.4679423e-10  4.4604741e-10  6.8668672e-10  8.0764855e-10 -6.9261615e-11 -0.016061369   -2.056788e-11   6.3303952      9.4955928      12.66079       761.05094    
        40   0             -427.2001       6.8445484e-10  4.2333354e-10  7.6101156e-10  8.6901941e-10 -3.218456e-11  -0.016061369   -2.8047109e-12  6.3303952      9.4955928      12.66079       761.05094    
        41   0             -427.2001       6.0121075e-10  3.6699076e-10  7.2408287e-10  7.1255863e-10 -4.7764309e-11 -0.016061369   -3.2721627e-12  6.3303952      9.4955928      12.66079       761.05094    
Loop time of 0.00112 on 1 procs for 22 steps with 48 atoms

0.0% CPU use with 1 MPI tasks x 1 OpenMP threads

Minimization stats:
  Stopping criterion = force tolerance
  Energy initial, next-to-last, final = 
     -427.200100267297  -427.200100306397  -427.200100306397
  Force two-norm initial, final = 0.0013214173 3.3718033e-11
  Force max component initial, final = 0.00030740265 9.7092334e-12
  Final line search alpha, max atom move = 1 9.7092334e-12
  Iterations, force evaluations = 22 44

MPI task timing breakdown:
Section |  min time  |  avg time  |  max time  |%varavg| %total
---------------------------------------------------------------
Pair    | 0.000837   | 0.000837   | 0.000837   |   0.0 | 74.73
Neigh   | 0          | 0          | 0          |   0.0 |  0.00
Comm    | 6.3e-05    | 6.3e-05    | 6.3e-05    |   0.0 |  5.63
Output  | 0.000161   | 0.000161   | 0.000161   |   0.0 | 14.37
Modify  | 0          | 0          | 0          |   0.0 |  0.00
Other   |            | 5.9e-05    |            |       |  5.27

Nlocal:             48 ave          48 max          48 min
Histogram: 1 0 0 0 0 0 0 0 0 0
Nghost:            498 ave         498 max         498 min
Histogram: 1 0 0 0 0 0 0 0 0 0
Neighs:           1200 ave        1200 max        1200 min
Histogram: 1 0 0 0 0 0 0 0 0 0

Total # of neighbors = 1200
Ave neighs/atom = 25
Neighbor list builds = 0
Dangerous builds = 0
OMP_NUM_THREADS environment is not set. Defaulting to 1 thread. (src/comm.cpp:98)
  using 1 OpenMP thread(s) per MPI task
Loaded 1 plugins from F:\Lammps\LAMMPS 64-bit 2Aug2023\plugins

The 'box' command has been removed and will be ignored

Reading restart file ...
  restart file = 2 Aug 2023, LAMMPS = 2 Aug 2023
  restoring atom style atomic from restart
  triclinic box = (0.0048023897 0.0072035845 0.0096047793) to (6.3351976 9.5027964 12.670395) with tilt (0 0 0)
  1 by 1 by 1 MPI processor grid
  pair style eam/alloy stores no restart info
  48 atoms
  read_restart CPU = 0.000 seconds
Changing box ...
  triclinic box = (0.0048023897 0.0072035845 0.0096047793) to (6.3351976 9.5027964 12.670395) with tilt (-9.4955928e-08 0 0)
Neighbor list info ...
  update: every = 1 steps, delay = 0 steps, check = yes
  max neighbors/atom: 2000, page size: 100000
  master list distance cutoff = 5.403
  ghost atom cutoff = 5.403
  1 neighbor lists, perpetual/occasional/extra = 1 0 0
  (1) pair eam/alloy, perpetual
      attributes: half, newton on
      pair build: half/nsq/newton
      stencil: none
      bin: none
Setting up cg style minimization ...
  Unit style    : metal
  Current step  : 19
Per MPI rank memory allocation (min/avg/max) = 4.428 | 4.428 | 4.428 Mbytes
   Step          Temp          PotEng         Press           Pxx            Pyy            Pzz            Pxy            Pxz            Pyz             Lx             Ly             Lz           Volume    
        19   0             -427.2001      -0.0063475207  -0.0070108552  -0.0072959091  -0.0047357978   0.016127767    2.5157102e-05 -2.3418477e-05  6.3303952      9.4955928      12.66079       761.05094    
        20   0             -427.2001       0.00078046839  0.00054745429  0.00079397947  0.00099997142  0.016062828   -1.2139352e-05  3.5589538e-06  6.3303952      9.4955928      12.66079       761.05094    
        21   0             -427.2001       8.7069267e-05  5.1954018e-05  0.00012159131  8.7662471e-05  0.016060636    5.1904733e-07  5.6768798e-07  6.3303952      9.4955928      12.66079       761.05094    
        22   0             -427.2001       1.0904035e-05  7.6912453e-06  1.1028421e-05  1.3992438e-05  0.016060929    1.3531763e-07  7.5267689e-08  6.3303952      9.4955928      12.66079       761.05094    
        23   0             -427.2001       3.5754823e-06  5.1481372e-06  2.5283515e-06  3.0499582e-06  0.016061099    2.9423909e-08 -4.351509e-09   6.3303952      9.4955928      12.66079       761.05094    
        24   0             -427.2001       1.5309988e-06  1.2721649e-06  1.5128517e-06  1.80798e-06    0.01606128    -1.1989392e-08  2.4148561e-09  6.3303952      9.4955928      12.66079       761.05094    
        25   0             -427.2001       4.5537446e-07  3.4567196e-07  5.3861809e-07  4.8183332e-07  0.016061343   -1.2235471e-09  6.0488265e-09  6.3303952      9.4955928      12.66079       761.05094    
        26   0             -427.2001       1.6336701e-07  1.0246269e-07  1.8639922e-07  2.0123913e-07  0.016061359   -7.6156757e-11  1.3850597e-09  6.3303952      9.4955928      12.66079       761.05094    
        27   0             -427.2001       6.0013364e-08  3.3058445e-08  8.6834317e-08  6.014733e-08   0.016061368    4.8907626e-10 -6.7313062e-11  6.3303952      9.4955928      12.66079       761.05094    
        28   0             -427.2001       1.7630868e-08  1.245101e-08   2.4291601e-08  1.6149992e-08  0.016061369   -2.6022778e-11  1.3369122e-10  6.3303952      9.4955928      12.66079       761.05094    
        29   0             -427.2001       4.5724688e-09  2.3475485e-09  4.1790193e-09  7.1908387e-09  0.016061369   -2.8142517e-11  1.5893362e-11  6.3303952      9.4955928      12.66079       761.05094    
        30   0             -427.2001       1.401678e-09   8.124413e-10   1.4472308e-09  1.9453619e-09  0.016061369   -5.1482012e-11 -2.4774946e-11  6.3303952      9.4955928      12.66079       761.05094    
        31   0             -427.2001       6.7469123e-10  4.0136034e-10  4.2164154e-10  1.2010718e-09  0.016061369   -2.340523e-11  -3.9265953e-11  6.3303952      9.4955928      12.66079       761.05094    
        32   0             -427.2001       7.6074915e-10  4.8025767e-10  5.1700171e-10  1.2849881e-09  0.016061369   -3.8762894e-11 -1.4023555e-12  6.3303952      9.4955928      12.66079       761.05094    
        33   0             -427.2001       5.8045578e-10  3.3415113e-10  2.8280835e-10  1.1244079e-09  0.016061369    4.975212e-11   4.6745182e-12  6.3303952      9.4955928      12.66079       761.05094    
        34   0             -427.2001       6.6383408e-10  4.7642881e-10  3.473167e-10   1.1677567e-09  0.016061369    1.290765e-11   2.7579657e-11  6.3303952      9.4955928      12.66079       761.05094    
        35   0             -427.2001       6.2143086e-10  3.1546447e-10  3.6694968e-10  1.1818784e-09  0.016061369    1.5397379e-11 -1.6360814e-11  6.3303952      9.4955928      12.66079       761.05094    
        36   0             -427.2001       5.6776299e-10  2.952958e-10   2.6270792e-10  1.1452853e-09  0.016061369    7.5723543e-12  7.4792291e-12  6.3303952      9.4955928      12.66079       761.05094    
        37   0             -427.2001       6.896315e-10   4.4872476e-10  3.9219208e-10  1.2279777e-09  0.016061369   -7.0439374e-11 -1.542591e-11   6.3303952      9.4955928      12.66079       761.05094    
        38   0             -427.2001       7.2576711e-10  4.5153312e-10  3.7536381e-10  1.3504044e-09  0.016061369   -6.205149e-12  -3.6928694e-11  6.3303952      9.4955928      12.66079       761.05094    
        39   0             -427.2001       6.4778924e-10  3.4667692e-10  3.6507987e-10  1.2316109e-09  0.016061369    2.035424e-11   1.6828265e-11  6.3303952      9.4955928      12.66079       761.05094    
        40   0             -427.2001       6.3401759e-10  3.3608508e-10  3.978015e-10   1.1681662e-09  0.016061369    2.6431342e-11  4.9082441e-11  6.3303952      9.4955928      12.66079       761.05094    
        41   0             -427.2001       6.2359937e-10  4.311766e-10   3.4077238e-10  1.0988491e-09  0.016061369    1.8981328e-11  9.3490364e-13  6.3303952      9.4955928      12.66079       761.05094    
Loop time of 0.0012 on 1 procs for 22 steps with 48 atoms

0.0% CPU use with 1 MPI tasks x 1 OpenMP threads

Minimization stats:
  Stopping criterion = force tolerance
  Energy initial, next-to-last, final = 
     -427.200100267297  -427.200100306397  -427.200100306396
  Force two-norm initial, final = 0.0013214173 3.3718161e-11
  Force max component initial, final = 0.00030740265 9.7107877e-12
  Final line search alpha, max atom move = 1 9.7107877e-12
  Iterations, force evaluations = 22 44

MPI task timing breakdown:
Section |  min time  |  avg time  |  max time  |%varavg| %total
---------------------------------------------------------------
Pair    | 0.000872   | 0.000872   | 0.000872   |   0.0 | 72.67
Neigh   | 0          | 0          | 0          |   0.0 |  0.00
Comm    | 6.5e-05    | 6.5e-05    | 6.5e-05    |   0.0 |  5.42
Output  | 0.000198   | 0.000198   | 0.000198   |   0.0 | 16.50
Modify  | 0          | 0          | 0          |   0.0 |  0.00
Other   |            | 6.5e-05    |            |       |  5.42

Nlocal:             48 ave          48 max          48 min
Histogram: 1 0 0 0 0 0 0 0 0 0
Nghost:            498 ave         498 max         498 min
Histogram: 1 0 0 0 0 0 0 0 0 0
Neighs:           1200 ave        1200 max        1200 min
Histogram: 1 0 0 0 0 0 0 0 0 0

Total # of neighbors = 1200
Ave neighs/atom = 25
Neighbor list builds = 0
Dangerous builds = 0
OMP_NUM_THREADS environment is not set. Defaulting to 1 thread. (src/comm.cpp:98)
  using 1 OpenMP thread(s) per MPI task
Loaded 1 plugins from F:\Lammps\LAMMPS 64-bit 2Aug2023\plugins

The 'box' command has been removed and will be ignored

Reading restart file ...
  restart file = 2 Aug 2023, LAMMPS = 2 Aug 2023
  restoring atom style atomic from restart
  triclinic box = (0.0048023897 0.0072035845 0.0096047793) to (6.3351976 9.5027964 12.670395) with tilt (0 0 0)
  1 by 1 by 1 MPI processor grid
  pair style eam/alloy stores no restart info
  48 atoms
  read_restart CPU = 0.000 seconds
Changing box ...
  triclinic box = (0.0048023897 0.0072035845 0.0096047793) to (6.3351976 9.5027964 12.670395) with tilt (9.4955928e-08 0 0)
Neighbor list info ...
  update: every = 1 steps, delay = 0 steps, check = yes
  max neighbors/atom: 2000, page size: 100000
  master list distance cutoff = 5.403
  ghost atom cutoff = 5.403
  1 neighbor lists, perpetual/occasional/extra = 1 0 0
  (1) pair eam/alloy, perpetual
      attributes: half, newton on
      pair build: half/nsq/newton
      stencil: none
      bin: none
Setting up cg style minimization ...
  Unit style    : metal
  Current step  : 19
Per MPI rank memory allocation (min/avg/max) = 4.428 | 4.428 | 4.428 Mbytes
   Step          Temp          PotEng         Press           Pxx            Pyy            Pzz            Pxy            Pxz            Pyz             Lx             Ly             Lz           Volume    
        19   0             -427.2001      -0.0063475278  -0.0070108624  -0.0072959161  -0.0047358048  -0.015995026    2.516007e-05  -2.3421535e-05  6.3303952      9.4955928      12.66079       761.05094    
        20   0             -427.2001       0.00078046808  0.0005474541   0.00079397911  0.00099997102 -0.016059932   -1.2140115e-05  3.5616683e-06  6.3303952      9.4955928      12.66079       761.05094    
        21   0             -427.2001       8.7069909e-05  5.1954583e-05  0.00012159189  8.7663249e-05 -0.01606211     5.187476e-07   5.6702467e-07  6.3303952      9.4955928      12.66079       761.05094    
        22   0             -427.2001       1.090461e-05   7.6917639e-06  1.1028995e-05  1.3993072e-05 -0.016061813    1.3525307e-07  7.4984414e-08  6.3303952      9.4955928      12.66079       761.05094    
        23   0             -427.2001       3.5760418e-06  5.1487383e-06  2.5288166e-06  3.0505705e-06 -0.016061642    2.9444207e-08 -4.4136801e-09  6.3303952      9.4955928      12.66079       761.05094    
        24   0             -427.2001       1.531375e-06   1.272527e-06   1.5132434e-06  1.8083545e-06 -0.01606146    -1.2034473e-08  2.5443402e-09  6.3303952      9.4955928      12.66079       761.05094    
        25   0             -427.2001       4.5570768e-07  3.4598214e-07  5.3888874e-07  4.8225216e-07 -0.016061396   -1.2359059e-09  6.0404124e-09  6.3303952      9.4955928      12.66079       761.05094    
        26   0             -427.2001       1.6356963e-07  1.0260744e-07  1.8659835e-07  2.015031e-07  -0.016061379   -1.391395e-10   1.3518707e-09  6.3303952      9.4955928      12.66079       761.05094    
        27   0             -427.2001       5.9924994e-08  3.2947146e-08  8.6756253e-08  6.0071584e-08 -0.01606137     4.847731e-10  -4.7212634e-11  6.3303952      9.4955928      12.66079       761.05094    
        28   0             -427.2001       1.7564159e-08  1.2354526e-08  2.4180815e-08  1.6157137e-08 -0.016061369    4.7090978e-11  1.3743083e-10  6.3303952      9.4955928      12.66079       761.05094    
        29   0             -427.2001       4.5574534e-09  2.2146765e-09  4.3113081e-09  7.1463756e-09 -0.016061369   -4.1650687e-12  9.0685653e-11  6.3303952      9.4955928      12.66079       761.05094    
        30   0             -427.2001       1.5052689e-09  8.1179285e-10  1.6860987e-09  2.0179151e-09 -0.016061369    4.1185746e-11  1.4958458e-11  6.3303952      9.4955928      12.66079       761.05094    
        31   0             -427.2001       7.6925542e-10  4.7802426e-10  5.4645118e-10  1.2832908e-09 -0.016061369    2.7502509e-11 -5.7964025e-11  6.3303952      9.4955928      12.66079       761.05094    
        32   0             -427.2001       6.6110149e-10  4.2903951e-10  3.7770107e-10  1.1765639e-09 -0.016061369    3.0817583e-11  3.1319272e-11  6.3303952      9.4955928      12.66079       761.05094    
        33   0             -427.2001       6.0795297e-10  3.0233291e-10  3.5806809e-10  1.1634579e-09 -0.016061369   -4.90813e-11    2.570985e-11   6.3303952      9.4955928      12.66079       761.05094    
        34   0             -427.2001       6.3949638e-10  4.427474e-10   2.9075503e-10  1.1849867e-09 -0.016061369    5.6662327e-11  2.0100428e-11  6.3303952      9.4955928      12.66079       761.05094    
        35   0             -427.2001       5.4369896e-10  2.8268373e-10  3.1693233e-10  1.0314808e-09 -0.016061369    1.0536382e-11 -4.9549893e-11  6.3303952      9.4955928      12.66079       761.05094    
        36   0             -427.2001       6.6732681e-10  4.1121129e-10  4.1836938e-10  1.1723997e-09 -0.016061369   -5.7871357e-11 -3.6928694e-11  6.3303952      9.4955928      12.66079       761.05094    
        37   0             -427.2001       6.1140872e-10  3.6245502e-10  3.0477859e-10  1.1669926e-09 -0.016061369   -5.0221627e-11  2.4774946e-11  6.3303952      9.4955928      12.66079       761.05094    
        38   0             -427.2001       5.715987e-10   3.53843e-10    2.7205696e-10  1.0888961e-09 -0.016061369   -2.9784076e-12 -3.7396145e-12  6.3303952      9.4955928      12.66079       761.05094    
        39   0             -427.2001       6.5406819e-10  3.9256754e-10  3.4310963e-10  1.2265274e-09 -0.016061369    2.9684788e-11  3.1786724e-11  6.3303952      9.4955928      12.66079       761.05094    
        40   0             -427.2001       7.2014125e-10  5.0225895e-10  4.4174197e-10  1.2164228e-09 -0.016061369    4.0041539e-12  1.8698073e-11  6.3303952      9.4955928      12.66079       761.05094    
        41   0             -427.2001       5.9553674e-10  3.2687185e-10  3.211394e-10   1.138599e-09  -0.016061369   -7.8236781e-11  1.9165525e-11  6.3303952      9.4955928      12.66079       761.05094    
Loop time of 0.001105 on 1 procs for 22 steps with 48 atoms

0.0% CPU use with 1 MPI tasks x 1 OpenMP threads

Minimization stats:
  Stopping criterion = force tolerance
  Energy initial, next-to-last, final = 
     -427.200100267297  -427.200100306396  -427.200100306397
  Force two-norm initial, final = 0.0013214173 3.3710638e-11
  Force max component initial, final = 0.00030740266 9.7165609e-12
  Final line search alpha, max atom move = 1 9.7165609e-12
  Iterations, force evaluations = 22 44

MPI task timing breakdown:
Section |  min time  |  avg time  |  max time  |%varavg| %total
---------------------------------------------------------------
Pair    | 0.000823   | 0.000823   | 0.000823   |   0.0 | 74.48
Neigh   | 0          | 0          | 0          |   0.0 |  0.00
Comm    | 6.7e-05    | 6.7e-05    | 6.7e-05    |   0.0 |  6.06
Output  | 0.000166   | 0.000166   | 0.000166   |   0.0 | 15.02
Modify  | 0          | 0          | 0          |   0.0 |  0.00
Other   |            | 4.9e-05    |            |       |  4.43

Nlocal:             48 ave          48 max          48 min
Histogram: 1 0 0 0 0 0 0 0 0 0
Nghost:            498 ave         498 max         498 min
Histogram: 1 0 0 0 0 0 0 0 0 0
Neighs:           1200 ave        1200 max        1200 min
Histogram: 1 0 0 0 0 0 0 0 0 0

Total # of neighbors = 1200
Ave neighs/atom = 25
Neighbor list builds = 0
Dangerous builds = 0
=========================================
Components of the Elastic Constant Tensor
=========================================
Elastic Constant C11all = 542.858522320995 GPa
Elastic Constant C22all = 542.858517346765 GPa
Elastic Constant C33all = 542.858523361769 GPa
Elastic Constant C12all = 204.416883946886 GPa
Elastic Constant C13all = 204.41688483618 GPa
Elastic Constant C23all = 204.416884123223 GPa
Elastic Constant C44all = 160.6136901529 GPa
Elastic Constant C55all = 160.613689786047 GPa
Elastic Constant C66all = 160.613689900536 GPa
Elastic Constant C14all = -1.71171702126948e-07 GPa
Elastic Constant C15all = 3.82443718298721e-07 GPa
Elastic Constant C16all = 2.14575334121065e-07 GPa
Elastic Constant C24all = -2.22039615554075e-08 GPa
Elastic Constant C25all = 3.33808643151496e-07 GPa
Elastic Constant C26all = -2.60773305741e-09 GPa
Elastic Constant C34all = -2.1980848947152e-07 GPa
Elastic Constant C35all = 4.7147525788207e-07 GPa
Elastic Constant C36all = -2.42586493818298e-07 GPa
Elastic Constant C45all = -7.36909945659615e-08 GPa
Elastic Constant C46all = 6.97092089340112e-08 GPa
Elastic Constant C56all = 3.20119473327716e-07 GPa
=========================================
Average properties for a cubic crystal
=========================================
Bulk Modulus = 317.230763204678 GPa
Shear Modulus 1 = 160.613689946494 GPa
Shear Modulus 2 = 169.220818353873 GPa
Poisson Ratio = 0.273549594766558
Total wall time: 0:00:00
