LAMMPS (2 Aug 2023 - Update 3)
OMP_NUM_THREADS environment is not set. Defaulting to 1 thread. (src/comm.cpp:98)
  using 1 OpenMP thread(s) per MPI task
Loaded 1 plugins from F:\Lammps\LAMMPS 64-bit 2Aug2023\plugins
Lattice spacing in x,y,z = 4.05 4.05 4.05
Created triclinic box = (0 0 0) to (8.1 12.15 16.2) with tilt (0 0 0)
  1 by 1 by 1 MPI processor grid
Created 96 atoms
  using lattice units in triclinic box = (0 0 0) to (8.1 12.15 16.2) with tilt (0 0 0)
  create_atoms CPU = 0.000 seconds
Neighbor list info ...
  update: every = 1 steps, delay = 0 steps, check = yes
  max neighbors/atom: 2000, page size: 100000
  master list distance cutoff = 7.28721
  ghost atom cutoff = 7.28721
  1 neighbor lists, perpetual/occasional/extra = 1 0 0
  (1) pair eam/alloy, perpetual
      attributes: half, newton on
      pair build: half/nsq/newton
      stencil: none
      bin: none
Setting up cg style minimization ...
  Unit style    : metal
  Current step  : 0
WARNING: Energy due to 3 extra global DOFs will be included in minimizer energies
 (src/min.cpp:228)
Per MPI rank memory allocation (min/avg/max) = 4.452 | 4.452 | 4.452 Mbytes
   Step          Temp          PotEng         Press           Pxx            Pyy            Pzz            Pxy            Pxz            Pyz             Lx             Ly             Lz           Volume    
         0   0             -322.56         2.726913       2.726913       2.726913       2.726913       2.2732222e-12  5.6691094e-12  8.2700661e-12  8.1            12.15          16.2           1594.323     
         1   0             -322.56        -0.00024358028 -0.00024358023 -0.00024358039 -0.00024358023  3.6538783e-12 -1.8548314e-12  3.8351776e-12  8.1000093      12.150014      16.200019      1594.3285    
         2   0             -322.56         4.4066656e-10  4.3579472e-10  4.388001e-10   4.4740485e-10 -2.2216138e-11 -2.0291576e-12 -5.2995182e-13  8.1000093      12.150014      16.200019      1594.3285    
Loop time of 0.000861 on 1 procs for 2 steps with 96 atoms

0.0% CPU use with 1 MPI tasks x 1 OpenMP threads

Minimization stats:
  Stopping criterion = force tolerance
  Energy initial, next-to-last, final = 
     -322.559998860994  -322.559998865621  -322.559998865637
  Force two-norm initial, final = 0.0047000001 7.6230766e-13
  Force max component initial, final = 0.0027135463 4.452128e-13
  Final line search alpha, max atom move = 1 4.452128e-13
  Iterations, force evaluations = 2 4

MPI task timing breakdown:
Section |  min time  |  avg time  |  max time  |%varavg| %total
---------------------------------------------------------------
Pair    | 0.000682   | 0.000682   | 0.000682   |   0.0 | 79.21
Neigh   | 0          | 0          | 0          |   0.0 |  0.00
Comm    | 1.5e-05    | 1.5e-05    | 1.5e-05    |   0.0 |  1.74
Output  | 1.2e-05    | 1.2e-05    | 1.2e-05    |   0.0 |  1.39
Modify  | 0          | 0          | 0          |   0.0 |  0.00
Other   |            | 0.000152   |            |       | 17.65

Nlocal:             96 ave          96 max          96 min
Histogram: 1 0 0 0 0 0 0 0 0 0
Nghost:            976 ave         976 max         976 min
Histogram: 1 0 0 0 0 0 0 0 0 0
Neighs:           4128 ave        4128 max        4128 min
Histogram: 1 0 0 0 0 0 0 0 0 0

Total # of neighbors = 4128
Ave neighs/atom = 43
Neighbor list builds = 0
Dangerous builds = 0
Displacing atoms ...
System init for write_restart ...
OMP_NUM_THREADS environment is not set. Defaulting to 1 thread. (src/comm.cpp:98)
  using 1 OpenMP thread(s) per MPI task
Loaded 1 plugins from F:\Lammps\LAMMPS 64-bit 2Aug2023\plugins

The 'box' command has been removed and will be ignored

Reading restart file ...
  restart file = 2 Aug 2023, LAMMPS = 2 Aug 2023
  restoring atom style atomic from restart
  triclinic box = (-4.6617854e-06 -6.9926781e-06 -9.3235709e-06) to (8.1000047 12.150007 16.200009) with tilt (0 0 0)
  1 by 1 by 1 MPI processor grid
  pair style eam/alloy stores no restart info
  96 atoms
  read_restart CPU = 0.000 seconds
Changing box ...
  triclinic box = (-4.6617854e-06 -6.9926781e-06 -9.3235709e-06) to (8.0190046 12.150007 16.200009) with tilt (0 0 0)
  triclinic box = (-4.6617854e-06 -6.9926781e-06 -9.3235709e-06) to (8.0190046 12.150007 16.200009) with tilt (0 0 0)
  triclinic box = (-4.6617854e-06 -6.9926781e-06 -9.3235709e-06) to (8.0190046 12.150007 16.200009) with tilt (0 0 0)
Neighbor list info ...
  update: every = 1 steps, delay = 0 steps, check = yes
  max neighbors/atom: 2000, page size: 100000
  master list distance cutoff = 7.28721
  ghost atom cutoff = 7.28721
  1 neighbor lists, perpetual/occasional/extra = 1 0 0
  (1) pair eam/alloy, perpetual
      attributes: half, newton on
      pair build: half/nsq/newton
      stencil: none
      bin: none
Setting up cg style minimization ...
  Unit style    : metal
  Current step  : 2
Per MPI rank memory allocation (min/avg/max) = 4.447 | 4.447 | 4.447 Mbytes
   Step          Temp          PotEng         Press           Pxx            Pyy            Pzz            Pxy            Pxz            Pyz             Lx             Ly             Lz           Volume    
         2   0             -322.50284      7950.6003      11548.581      6151.6098      6151.6098      1.0003083e-06  2.6322516e-06  1.4783166e-06  8.0190092      12.150014      16.200019      1578.3852    
         3   0             -322.50284      7950.6003      11548.581      6151.6097      6151.6097     -1.4239938e-07 -4.6037546e-07 -3.8567414e-07  8.0190092      12.150014      16.200019      1578.3852    
         4   0             -322.50284      7950.6003      11548.581      6151.6097      6151.6097     -9.1823424e-08  8.5723567e-08  8.2393762e-08  8.0190092      12.150014      16.200019      1578.3852    
         5   0             -322.50284      7950.6003      11548.581      6151.6097      6151.6097     -3.1897564e-08 -7.5352149e-09  7.9187156e-09  8.0190092      12.150014      16.200019      1578.3852    
         6   0             -322.50284      7950.6003      11548.581      6151.6097      6151.6097     -4.3222879e-08 -3.4607998e-09  1.4565152e-09  8.0190092      12.150014      16.200019      1578.3852    
         7   0             -322.50284      7950.6003      11548.581      6151.6097      6151.6097     -2.9039883e-08  2.9646463e-10 -4.3981634e-10  8.0190092      12.150014      16.200019      1578.3852    
         8   0             -322.50284      7950.6003      11548.581      6151.6097      6151.6097     -1.4499115e-08 -8.1908135e-10 -1.4518384e-10  8.0190092      12.150014      16.200019      1578.3852    
         9   0             -322.50284      7950.6003      11548.581      6151.6097      6151.6097     -6.5238644e-09  1.695414e-11  -5.4286253e-10  8.0190092      12.150014      16.200019      1578.3852    
        10   0             -322.50284      7950.6003      11548.581      6151.6097      6151.6097     -2.2238732e-09  4.5792897e-10 -3.9944308e-10  8.0190092      12.150014      16.200019      1578.3852    
        11   0             -322.50284      7950.6003      11548.581      6151.6097      6151.6097     -6.5072562e-10  3.3481434e-11 -8.207421e-11   8.0190092      12.150014      16.200019      1578.3852    
        12   0             -322.50284      7950.6003      11548.581      6151.6097      6151.6097     -2.87337e-10   -1.3636009e-11  2.3021631e-11  8.0190092      12.150014      16.200019      1578.3852    
        13   0             -322.50284      7950.6003      11548.581      6151.6097      6151.6097     -4.7657456e-11  1.8538007e-12  4.145091e-12   8.0190092      12.150014      16.200019      1578.3852    
        14   0             -322.50284      7950.6003      11548.581      6151.6097      6151.6097      6.0184781e-12  1.1435964e-11  2.4652198e-14  8.0190092      12.150014      16.200019      1578.3852    
        15   0             -322.50284      7950.6003      11548.581      6151.6097      6151.6097      6.7644641e-12 -9.9633224e-12 -6.0503537e-12  8.0190092      12.150014      16.200019      1578.3852    
        16   0             -322.50284      7950.6003      11548.581      6151.6097      6151.6097     -5.5763895e-14 -3.7384942e-12  1.2238055e-11  8.0190092      12.150014      16.200019      1578.3852    
        17   0             -322.50284      7950.6003      11548.581      6151.6097      6151.6097     -8.4069099e-12 -6.0152711e-12  3.2019683e-11  8.0190092      12.150014      16.200019      1578.3852    
        18   0             -322.50284      7950.6003      11548.581      6151.6097      6151.6097      2.9792206e-12  1.5569426e-11 -4.3563955e-12  8.0190092      12.150014      16.200019      1578.3852    
        19   0             -322.50284      7950.6003      11548.581      6151.6097      6151.6097      4.6194171e-12 -2.2005107e-11 -3.1449161e-11  8.0190092      12.150014      16.200019      1578.3852    
        20   0             -322.50284      7950.6003      11548.581      6151.6097      6151.6097      1.1620925e-11  4.473236e-13   5.4974401e-12  8.0190092      12.150014      16.200019      1578.3852    
        21   0             -322.50284      7950.6003      11548.581      6151.6097      6151.6097     -1.002063e-11   1.5367081e-12 -1.3794666e-11  8.0190092      12.150014      16.200019      1578.3852    
        22   0             -322.50284      7950.6003      11548.581      6151.6097      6151.6097      3.9090639e-12  6.7055087e-12 -8.5754431e-12  8.0190092      12.150014      16.200019      1578.3852    
        23   0             -322.50284      7950.6003      11548.581      6151.6097      6151.6097     -3.3265059e-12 -1.4576848e-11 -1.6661364e-11  8.0190092      12.150014      16.200019      1578.3852    
        24   0             -322.50284      7950.6003      11548.581      6151.6097      6151.6097     -1.2445542e-11  1.8147738e-11  5.3097312e-11  8.0190092      12.150014      16.200019      1578.3852    
        25   0             -322.50284      7950.6003      11548.581      6151.6097      6151.6097     -5.2642664e-12  8.546061e-13   2.3771762e-12  8.0190092      12.150014      16.200019      1578.3852    
        26   0             -322.50284      7950.6003      11548.581      6151.6097      6151.6097     -2.2404932e-11 -2.3893233e-11 -3.1463248e-11  8.0190092      12.150014      16.200019      1578.3852    
        27   0             -322.50284      7950.6003      11548.581      6151.6097      6151.6097     -1.3158749e-11 -2.4468715e-11  2.9230463e-12  8.0190092      12.150014      16.200019      1578.3852    
        28   0             -322.50284      7950.6003      11548.581      6151.6097      6151.6097      8.3813754e-12  1.6645187e-11 -6.1630494e-13  8.0190092      12.150014      16.200019      1578.3852    
        29   0             -322.50284      7950.6003      11548.581      6151.6097      6151.6097     -4.0725275e-12 -1.2853656e-11 -1.1498489e-11  8.0190092      12.150014      16.200019      1578.3852    
        30   0             -322.50284      7950.6003      11548.581      6151.6097      6151.6097      9.2322275e-12 -1.3419846e-11  3.389325e-11   8.0190092      12.150014      16.200019      1578.3852    
Loop time of 0.008279 on 1 procs for 28 steps with 96 atoms

188.7% CPU use with 1 MPI tasks x 1 OpenMP threads

Minimization stats:
  Stopping criterion = force tolerance
  Energy initial, next-to-last, final = 
     -322.502835330461  -322.502835353256  -322.502835353256
  Force two-norm initial, final = 0.00052249067 6.863216e-11
  Force max component initial, final = 8.0643838e-05 1.0982243e-11
  Final line search alpha, max atom move = 1 1.0982243e-11
  Iterations, force evaluations = 28 56

MPI task timing breakdown:
Section |  min time  |  avg time  |  max time  |%varavg| %total
---------------------------------------------------------------
Pair    | 0.007732   | 0.007732   | 0.007732   |   0.0 | 93.39
Neigh   | 0          | 0          | 0          |   0.0 |  0.00
Comm    | 0.000159   | 0.000159   | 0.000159   |   0.0 |  1.92
Output  | 0.000267   | 0.000267   | 0.000267   |   0.0 |  3.23
Modify  | 0          | 0          | 0          |   0.0 |  0.00
Other   |            | 0.000121   |            |       |  1.46

Nlocal:             96 ave          96 max          96 min
Histogram: 1 0 0 0 0 0 0 0 0 0
Nghost:            976 ave         976 max         976 min
Histogram: 1 0 0 0 0 0 0 0 0 0
Neighs:           4128 ave        4128 max        4128 min
Histogram: 1 0 0 0 0 0 0 0 0 0

Total # of neighbors = 4128
Ave neighs/atom = 43
Neighbor list builds = 0
Dangerous builds = 0
OMP_NUM_THREADS environment is not set. Defaulting to 1 thread. (src/comm.cpp:98)
  using 1 OpenMP thread(s) per MPI task
Loaded 1 plugins from F:\Lammps\LAMMPS 64-bit 2Aug2023\plugins

The 'box' command has been removed and will be ignored

Reading restart file ...
  restart file = 2 Aug 2023, LAMMPS = 2 Aug 2023
  restoring atom style atomic from restart
  triclinic box = (-4.6617854e-06 -6.9926781e-06 -9.3235709e-06) to (8.1000047 12.150007 16.200009) with tilt (0 0 0)
  1 by 1 by 1 MPI processor grid
  pair style eam/alloy stores no restart info
  96 atoms
  read_restart CPU = 0.000 seconds
Changing box ...
  triclinic box = (-4.6617854e-06 -6.9926781e-06 -9.3235709e-06) to (8.1810048 12.150007 16.200009) with tilt (0 0 0)
  triclinic box = (-4.6617854e-06 -6.9926781e-06 -9.3235709e-06) to (8.1810048 12.150007 16.200009) with tilt (0 0 0)
  triclinic box = (-4.6617854e-06 -6.9926781e-06 -9.3235709e-06) to (8.1810048 12.150007 16.200009) with tilt (0 0 0)
Neighbor list info ...
  update: every = 1 steps, delay = 0 steps, check = yes
  max neighbors/atom: 2000, page size: 100000
  master list distance cutoff = 7.28721
  ghost atom cutoff = 7.28721
  1 neighbor lists, perpetual/occasional/extra = 1 0 0
  (1) pair eam/alloy, perpetual
      attributes: half, newton on
      pair build: half/nsq/newton
      stencil: none
      bin: none
Setting up cg style minimization ...
  Unit style    : metal
  Current step  : 2
Per MPI rank memory allocation (min/avg/max) = 4.447 | 4.447 | 4.447 Mbytes
   Step          Temp          PotEng         Press           Pxx            Pyy            Pzz            Pxy            Pxz            Pyz             Lx             Ly             Lz           Volume    
         2   0             -322.50422     -7747.3128     -11129.509     -6056.2149     -6056.2149      6.8508311e-07  3.7137601e-06  1.9866989e-06  8.1810094      12.150014      16.200019      1610.2718    
         3   0             -322.50422     -7747.3129     -11129.509     -6056.215      -6056.215      -3.815485e-07  -5.9306882e-07 -4.9441094e-07  8.1810094      12.150014      16.200019      1610.2718    
         4   0             -322.50422     -7747.3129     -11129.509     -6056.215      -6056.215      -9.8873022e-08  1.0173774e-07  9.5941449e-08  8.1810094      12.150014      16.200019      1610.2718    
         5   0             -322.50422     -7747.3129     -11129.509     -6056.215      -6056.215      -2.3814685e-08 -2.4612365e-09  1.4986469e-08  8.1810094      12.150014      16.200019      1610.2718    
         6   0             -322.50422     -7747.3129     -11129.509     -6056.215      -6056.215      -4.5710825e-08  9.1254327e-12  3.2572671e-09  8.1810094      12.150014      16.200019      1610.2718    
         7   0             -322.50422     -7747.3129     -11129.509     -6056.215      -6056.215      -2.9679104e-08  1.3441704e-09 -2.3350053e-10  8.1810094      12.150014      16.200019      1610.2718    
         8   0             -322.50422     -7747.3129     -11129.509     -6056.215      -6056.215      -1.515544e-08  -1.2056317e-09 -2.1967179e-10  8.1810094      12.150014      16.200019      1610.2718    
         9   0             -322.50422     -7747.3129     -11129.509     -6056.215      -6056.215      -6.9631463e-09 -3.6529529e-10 -6.0720079e-10  8.1810094      12.150014      16.200019      1610.2718    
        10   0             -322.50422     -7747.3129     -11129.509     -6056.215      -6056.215      -2.2159853e-09  6.1861384e-10 -4.2730299e-10  8.1810094      12.150014      16.200019      1610.2718    
        11   0             -322.50422     -7747.3129     -11129.509     -6056.215      -6056.215      -6.8283665e-10  1.0227508e-10 -8.42738e-11    8.1810094      12.150014      16.200019      1610.2718    
        12   0             -322.50422     -7747.3129     -11129.509     -6056.215      -6056.215      -2.8015228e-10 -3.2746011e-12 -5.7130684e-12  8.1810094      12.150014      16.200019      1610.2718    
        13   0             -322.50422     -7747.3129     -11129.509     -6056.215      -6056.215       8.6879587e-12  8.2758677e-12  1.9507281e-11  8.1810094      12.150014      16.200019      1610.2718    
        14   0             -322.50422     -7747.3129     -11129.509     -6056.215      -6056.215      -5.1088505e-12 -1.6024639e-11 -5.7683005e-12  8.1810094      12.150014      16.200019      1610.2718    
        15   0             -322.50422     -7747.3129     -11129.509     -6056.215      -6056.215      -1.5616819e-11 -9.4523107e-12  7.515015e-12   8.1810094      12.150014      16.200019      1610.2718    
        16   0             -322.50422     -7747.3129     -11129.509     -6056.215      -6056.215      -1.1134134e-11  2.6038896e-12 -1.9483117e-11  8.1810094      12.150014      16.200019      1610.2718    
        17   0             -322.50422     -7747.3129     -11129.509     -6056.215      -6056.215       5.6868622e-12  1.9886909e-12  2.8951966e-11  8.1810094      12.150014      16.200019      1610.2718    
        18   0             -322.50422     -7747.3129     -11129.509     -6056.215      -6056.215      -3.1422178e-12 -1.9577113e-11 -3.6598158e-11  8.1810094      12.150014      16.200019      1610.2718    
        19   0             -322.50422     -7747.3129     -11129.509     -6056.215      -6056.215      -4.0856008e-12 -1.3642808e-12  7.6565472e-12  8.1810094      12.150014      16.200019      1610.2718    
        20   0             -322.50422     -7747.3129     -11129.509     -6056.215      -6056.215       2.4275168e-12  1.0798656e-11 -4.787931e-12   8.1810094      12.150014      16.200019      1610.2718    
        21   0             -322.50422     -7747.3129     -11129.509     -6056.215      -6056.215      -9.09672e-12    1.1393424e-11  5.8649566e-12  8.1810094      12.150014      16.200019      1610.2718    
        22   0             -322.50422     -7747.3129     -11129.509     -6056.215      -6056.215       5.822005e-12   1.6385079e-11 -7.7739154e-12  8.1810094      12.150014      16.200019      1610.2718    
        23   0             -322.50422     -7747.3129     -11129.509     -6056.215      -6056.215      -3.4429436e-12 -1.9401453e-11  8.4815764e-12  8.1810094      12.150014      16.200019      1610.2718    
        24   0             -322.50422     -7747.3129     -11129.509     -6056.215      -6056.215       1.0488657e-12 -9.6271716e-12 -8.2641001e-12  8.1810094      12.150014      16.200019      1610.2718    
        25   0             -322.50422     -7747.3129     -11129.509     -6056.215      -6056.215       6.7287541e-12  1.7538414e-12  1.1678133e-11  8.1810094      12.150014      16.200019      1610.2718    
        26   0             -322.50422     -7747.3129     -11129.509     -6056.215      -6056.215       3.5881644e-12 -9.4508546e-12  1.9900809e-11  8.1810094      12.150014      16.200019      1610.2718    
        27   0             -322.50422     -7747.3129     -11129.509     -6056.215      -6056.215       1.1893895e-14 -1.8558677e-11 -1.6517844e-11  8.1810094      12.150014      16.200019      1610.2718    
        28   0             -322.50422     -7747.3129     -11129.509     -6056.215      -6056.215      -8.7995689e-12 -6.180779e-12   1.65282e-11    8.1810094      12.150014      16.200019      1610.2718    
        29   0             -322.50422     -7747.3129     -11129.509     -6056.215      -6056.215       2.2566724e-11  2.7038661e-12 -1.0666696e-12  8.1810094      12.150014      16.200019      1610.2718    
        30   0             -322.50422     -7747.3129     -11129.509     -6056.215      -6056.215       2.795585e-12   1.490917e-12  -3.0101484e-12  8.1810094      12.150014      16.200019      1610.2718    
Loop time of 0.008306 on 1 procs for 28 steps with 96 atoms

0.0% CPU use with 1 MPI tasks x 1 OpenMP threads

Minimization stats:
  Stopping criterion = force tolerance
  Energy initial, next-to-last, final = 
     -322.504218116808   -322.50421813907  -322.504218139073
  Force two-norm initial, final = 0.00050627063 5.6397059e-11
  Force max component initial, final = 7.8654388e-05 1.4810068e-11
  Final line search alpha, max atom move = 1 1.4810068e-11
  Iterations, force evaluations = 28 56

MPI task timing breakdown:
Section |  min time  |  avg time  |  max time  |%varavg| %total
---------------------------------------------------------------
Pair    | 0.007786   | 0.007786   | 0.007786   |   0.0 | 93.74
Neigh   | 0          | 0          | 0          |   0.0 |  0.00
Comm    | 0.000154   | 0.000154   | 0.000154   |   0.0 |  1.85
Output  | 0.000239   | 0.000239   | 0.000239   |   0.0 |  2.88
Modify  | 0          | 0          | 0          |   0.0 |  0.00
Other   |            | 0.000127   |            |       |  1.53

Nlocal:             96 ave          96 max          96 min
Histogram: 1 0 0 0 0 0 0 0 0 0
Nghost:            976 ave         976 max         976 min
Histogram: 1 0 0 0 0 0 0 0 0 0
Neighs:           4128 ave        4128 max        4128 min
Histogram: 1 0 0 0 0 0 0 0 0 0

Total # of neighbors = 4128
Ave neighs/atom = 43
Neighbor list builds = 0
Dangerous builds = 0
OMP_NUM_THREADS environment is not set. Defaulting to 1 thread. (src/comm.cpp:98)
  using 1 OpenMP thread(s) per MPI task
Loaded 1 plugins from F:\Lammps\LAMMPS 64-bit 2Aug2023\plugins

The 'box' command has been removed and will be ignored

Reading restart file ...
  restart file = 2 Aug 2023, LAMMPS = 2 Aug 2023
  restoring atom style atomic from restart
  triclinic box = (-4.6617854e-06 -6.9926781e-06 -9.3235709e-06) to (8.1000047 12.150007 16.200009) with tilt (0 0 0)
  1 by 1 by 1 MPI processor grid
  pair style eam/alloy stores no restart info
  96 atoms
  read_restart CPU = 0.000 seconds
Changing box ...
  triclinic box = (-4.6617854e-06 -6.9926781e-06 -9.3235709e-06) to (8.1000047 12.028507 16.200009) with tilt (0 0 0)
  triclinic box = (-4.6617854e-06 -6.9926781e-06 -9.3235709e-06) to (8.1000047 12.028507 16.200009) with tilt (0 0 0)
Neighbor list info ...
  update: every = 1 steps, delay = 0 steps, check = yes
  max neighbors/atom: 2000, page size: 100000
  master list distance cutoff = 7.28721
  ghost atom cutoff = 7.28721
  1 neighbor lists, perpetual/occasional/extra = 1 0 0
  (1) pair eam/alloy, perpetual
      attributes: half, newton on
      pair build: half/nsq/newton
      stencil: none
      bin: none
Setting up cg style minimization ...
  Unit style    : metal
  Current step  : 2
Per MPI rank memory allocation (min/avg/max) = 4.447 | 4.447 | 4.447 Mbytes
   Step          Temp          PotEng         Press           Pxx            Pyy            Pzz            Pxy            Pxz            Pyz             Lx             Ly             Lz           Volume    
         2   0             -322.50284      7950.6003      6151.6098      11548.581      6151.6098      1.0362181e-06  3.0254885e-06  1.2933714e-06  8.1000093      12.028514      16.200019      1578.3852    
         3   0             -322.50284      7950.6003      6151.6097      11548.581      6151.6097     -1.3019274e-07 -4.3638358e-07 -4.1659505e-07  8.1000093      12.028514      16.200019      1578.3852    
         4   0             -322.50284      7950.6003      6151.6097      11548.581      6151.6097     -8.9583758e-08  9.7803574e-08  6.7944901e-08  8.1000093      12.028514      16.200019      1578.3852    
         5   0             -322.50284      7950.6003      6151.6097      11548.581      6151.6097     -2.8598132e-08  1.5982651e-09  1.1027668e-08  8.1000093      12.028514      16.200019      1578.3852    
         6   0             -322.50284      7950.6003      6151.6097      11548.581      6151.6097     -4.2484033e-08  1.5742939e-09  2.8630781e-09  8.1000093      12.028514      16.200019      1578.3852    
         7   0             -322.50284      7950.6003      6151.6097      11548.581      6151.6097     -2.8716743e-08  1.3939379e-09 -2.2834274e-10  8.1000093      12.028514      16.200019      1578.3852    
         8   0             -322.50284      7950.6003      6151.6097      11548.581      6151.6097     -1.4451088e-08 -1.1016235e-09 -4.3646012e-10  8.1000093      12.028514      16.200019      1578.3852    
         9   0             -322.50284      7950.6003      6151.6097      11548.581      6151.6097     -6.7902065e-09 -2.3620338e-10 -6.5814677e-10  8.1000093      12.028514      16.200019      1578.3852    
        10   0             -322.50284      7950.6003      6151.6097      11548.581      6151.6097     -2.3287888e-09  5.7144765e-10 -4.9408639e-10  8.1000093      12.028514      16.200019      1578.3852    
        11   0             -322.50284      7950.6003      6151.6097      11548.581      6151.6097     -6.8471055e-10  1.08111e-10   -8.3926646e-11  8.1000093      12.028514      16.200019      1578.3852    
        12   0             -322.50284      7950.6003      6151.6097      11548.581      6151.6097     -2.6818729e-10  4.0417659e-11  2.0260585e-11  8.1000093      12.028514      16.200019      1578.3852    
        13   0             -322.50284      7950.6003      6151.6097      11548.581      6151.6097     -4.5679249e-11  9.4194193e-12  2.2591978e-11  8.1000093      12.028514      16.200019      1578.3852    
        14   0             -322.50284      7950.6003      6151.6097      11548.581      6151.6097      3.2762366e-12  3.9051817e-12 -1.3305143e-11  8.1000093      12.028514      16.200019      1578.3852    
        15   0             -322.50284      7950.6003      6151.6097      11548.581      6151.6097     -1.6285204e-11 -8.7788703e-12 -2.0457802e-11  8.1000093      12.028514      16.200019      1578.3852    
        16   0             -322.50284      7950.6003      6151.6097      11548.581      6151.6097      7.1428036e-12 -1.965388e-12  -1.3417839e-11  8.1000093      12.028514      16.200019      1578.3852    
        17   0             -322.50284      7950.6003      6151.6097      11548.581      6151.6097      5.1486494e-13  8.6299393e-12  6.6877891e-12  8.1000093      12.028514      16.200019      1578.3852    
        18   0             -322.50284      7950.6003      6151.6097      11548.581      6151.6097     -2.674043e-12  -2.2543187e-12 -6.620876e-12   8.1000093      12.028514      16.200019      1578.3852    
        19   0             -322.50284      7950.6003      6151.6097      11548.581      6151.6097      2.0468539e-12 -1.1078757e-11 -7.0223546e-12  8.1000093      12.028514      16.200019      1578.3852    
        20   0             -322.50284      7950.6003      6151.6097      11548.581      6151.6097      1.0983273e-11  1.6862735e-11 -1.1491446e-11  8.1000093      12.028514      16.200019      1578.3852    
        21   0             -322.50284      7950.6003      6151.6097      11548.581      6151.6097     -2.0709331e-11 -2.5952014e-11  8.7480085e-12  8.1000093      12.028514      16.200019      1578.3852    
        22   0             -322.50284      7950.6003      6151.6097      11548.581      6151.6097      1.4301575e-11 -1.8035295e-11 -1.1614707e-11  8.1000093      12.028514      16.200019      1578.3852    
        23   0             -322.50284      7950.6003      6151.6097      11548.581      6151.6097      8.6704673e-12 -2.6636766e-11 -3.761221e-12   8.1000093      12.028514      16.200019      1578.3852    
        24   0             -322.50284      7950.6003      6151.6097      11548.581      6151.6097      2.4107395e-12 -9.5825407e-12 -8.0119643e-12  8.1000093      12.028514      16.200019      1578.3852    
        25   0             -322.50284      7950.6003      6151.6097      11548.581      6151.6097     -3.6448037e-12  7.251467e-12   8.5226169e-12  8.1000093      12.028514      16.200019      1578.3852    
        26   0             -322.50284      7950.6003      6151.6097      11548.581      6151.6097     -5.3641482e-12 -8.3021556e-12 -2.2366587e-11  8.1000093      12.028514      16.200019      1578.3852    
        27   0             -322.50284      7950.6003      6151.6097      11548.581      6151.6097     -1.9736611e-14  2.7696537e-13  1.2079577e-12  8.1000093      12.028514      16.200019      1578.3852    
        28   0             -322.50284      7950.6003      6151.6097      11548.581      6151.6097      2.0795309e-11 -1.6046397e-11 -1.2780404e-11  8.1000093      12.028514      16.200019      1578.3852    
        29   0             -322.50284      7950.6003      6151.6097      11548.581      6151.6097      8.0553759e-12 -2.5654469e-13  3.7999602e-12  8.1000093      12.028514      16.200019      1578.3852    
        30   0             -322.50284      7950.6003      6151.6097      11548.581      6151.6097      2.3966984e-12 -1.1832148e-13 -3.324525e-12   8.1000093      12.028514      16.200019      1578.3852    
Loop time of 0.008022 on 1 procs for 28 steps with 96 atoms

0.0% CPU use with 1 MPI tasks x 1 OpenMP threads

Minimization stats:
  Stopping criterion = force tolerance
  Energy initial, next-to-last, final = 
     -322.502835330471  -322.502835353256  -322.502835353255
  Force two-norm initial, final = 0.00052208516 6.3120635e-11
  Force max component initial, final = 8.1394952e-05 1.5100067e-11
  Final line search alpha, max atom move = 1 1.5100067e-11
  Iterations, force evaluations = 28 56

MPI task timing breakdown:
Section |  min time  |  avg time  |  max time  |%varavg| %total
---------------------------------------------------------------
Pair    | 0.007468   | 0.007468   | 0.007468   |   0.0 | 93.09
Neigh   | 0          | 0          | 0          |   0.0 |  0.00
Comm    | 0.000151   | 0.000151   | 0.000151   |   0.0 |  1.88
Output  | 0.000286   | 0.000286   | 0.000286   |   0.0 |  3.57
Modify  | 0          | 0          | 0          |   0.0 |  0.00
Other   |            | 0.000117   |            |       |  1.46

Nlocal:             96 ave          96 max          96 min
Histogram: 1 0 0 0 0 0 0 0 0 0
Nghost:            976 ave         976 max         976 min
Histogram: 1 0 0 0 0 0 0 0 0 0
Neighs:           4128 ave        4128 max        4128 min
Histogram: 1 0 0 0 0 0 0 0 0 0

Total # of neighbors = 4128
Ave neighs/atom = 43
Neighbor list builds = 0
Dangerous builds = 0
OMP_NUM_THREADS environment is not set. Defaulting to 1 thread. (src/comm.cpp:98)
  using 1 OpenMP thread(s) per MPI task
Loaded 1 plugins from F:\Lammps\LAMMPS 64-bit 2Aug2023\plugins

The 'box' command has been removed and will be ignored

Reading restart file ...
  restart file = 2 Aug 2023, LAMMPS = 2 Aug 2023
  restoring atom style atomic from restart
  triclinic box = (-4.6617854e-06 -6.9926781e-06 -9.3235709e-06) to (8.1000047 12.150007 16.200009) with tilt (0 0 0)
  1 by 1 by 1 MPI processor grid
  pair style eam/alloy stores no restart info
  96 atoms
  read_restart CPU = 0.000 seconds
Changing box ...
  triclinic box = (-4.6617854e-06 -6.9926781e-06 -9.3235709e-06) to (8.1000047 12.271507 16.200009) with tilt (0 0 0)
  triclinic box = (-4.6617854e-06 -6.9926781e-06 -9.3235709e-06) to (8.1000047 12.271507 16.200009) with tilt (0 0 0)
Neighbor list info ...
  update: every = 1 steps, delay = 0 steps, check = yes
  max neighbors/atom: 2000, page size: 100000
  master list distance cutoff = 7.28721
  ghost atom cutoff = 7.28721
  1 neighbor lists, perpetual/occasional/extra = 1 0 0
  (1) pair eam/alloy, perpetual
      attributes: half, newton on
      pair build: half/nsq/newton
      stencil: none
      bin: none
Setting up cg style minimization ...
  Unit style    : metal
  Current step  : 2
Per MPI rank memory allocation (min/avg/max) = 4.447 | 4.447 | 4.447 Mbytes
   Step          Temp          PotEng         Press           Pxx            Pyy            Pzz            Pxy            Pxz            Pyz             Lx             Ly             Lz           Volume    
         2   0             -322.50422     -7747.3128     -6056.2149     -11129.509     -6056.2149      6.5746224e-07  3.3779906e-06  2.057153e-06   8.1000093      12.271514      16.200019      1610.2718    
         3   0             -322.50422     -7747.3129     -6056.215      -11129.509     -6056.215      -3.7317758e-07 -6.5580446e-07 -4.791139e-07   8.1000093      12.271514      16.200019      1610.2718    
         4   0             -322.50422     -7747.3129     -6056.215      -11129.509     -6056.215      -9.6938075e-08  8.7404532e-08  1.0632981e-07  8.1000093      12.271514      16.200019      1610.2718    
         5   0             -322.50422     -7747.3129     -6056.215      -11129.509     -6056.215      -2.3023529e-08 -1.2680227e-08  8.4420165e-09  8.1000093      12.271514      16.200019      1610.2718    
         6   0             -322.50422     -7747.3129     -6056.215      -11129.509     -6056.215      -4.5147906e-08 -5.674885e-09   7.1719202e-10  8.1000093      12.271514      16.200019      1610.2718    
         7   0             -322.50422     -7747.3129     -6056.215      -11129.509     -6056.215      -2.9831408e-08  4.1131351e-10 -7.8320472e-10  8.1000093      12.271514      16.200019      1610.2718    
         8   0             -322.50422     -7747.3129     -6056.215      -11129.509     -6056.215      -1.5416062e-08 -9.5394853e-10  7.8291475e-11  8.1000093      12.271514      16.200019      1610.2718    
         9   0             -322.50422     -7747.3129     -6056.215      -11129.509     -6056.215      -6.632522e-09  -1.8519124e-10 -4.5323446e-10  8.1000093      12.271514      16.200019      1610.2718    
        10   0             -322.50422     -7747.3129     -6056.215      -11129.509     -6056.215      -2.1033707e-09  4.6190393e-10 -3.4711292e-10  8.1000093      12.271514      16.200019      1610.2718    
        11   0             -322.50422     -7747.3129     -6056.215      -11129.509     -6056.215      -6.9460919e-10 -2.4811646e-11 -1.4828778e-10  8.1000093      12.271514      16.200019      1610.2718    
        12   0             -322.50422     -7747.3129     -6056.215      -11129.509     -6056.215      -2.9198632e-10 -2.3480839e-11  3.2517888e-12  8.1000093      12.271514      16.200019      1610.2718    
        13   0             -322.50422     -7747.3129     -6056.215      -11129.509     -6056.215      -1.301749e-11   1.6849975e-11 -1.7877934e-11  8.1000093      12.271514      16.200019      1610.2718    
        14   0             -322.50422     -7747.3129     -6056.215      -11129.509     -6056.215      -1.2583717e-11  1.0982188e-11 -4.6325908e-12  8.1000093      12.271514      16.200019      1610.2718    
        15   0             -322.50422     -7747.3129     -6056.215      -11129.509     -6056.215      -3.6986078e-12 -1.5766211e-11 -1.620026e-11   8.1000093      12.271514      16.200019      1610.2718    
        16   0             -322.50422     -7747.3129     -6056.215      -11129.509     -6056.215      -1.7096803e-11  2.191978e-12  -8.4297964e-12  8.1000093      12.271514      16.200019      1610.2718    
        17   0             -322.50422     -7747.3129     -6056.215      -11129.509     -6056.215      -5.2405591e-12 -2.096971e-12  -1.9362296e-11  8.1000093      12.271514      16.200019      1610.2718    
        18   0             -322.50422     -7747.3129     -6056.215      -11129.509     -6056.215      -1.0404505e-11 -1.4171148e-11 -9.0960333e-12  8.1000093      12.271514      16.200019      1610.2718    
        19   0             -322.50422     -7747.3129     -6056.215      -11129.509     -6056.215       1.6955049e-11 -2.4355559e-12 -3.6984782e-11  8.1000093      12.271514      16.200019      1610.2718    
        20   0             -322.50422     -7747.3129     -6056.215      -11129.509     -6056.215       1.5421977e-11  4.1792129e-12 -2.7961241e-12  8.1000093      12.271514      16.200019      1610.2718    
        21   0             -322.50422     -7747.3129     -6056.215      -11129.509     -6056.215       1.5905542e-11 -1.7463703e-11 -3.1758447e-12  8.1000093      12.271514      16.200019      1610.2718    
        22   0             -322.50422     -7747.3129     -6056.215      -11129.509     -6056.215      -8.1233248e-12 -5.9883636e-12  2.6304279e-11  8.1000093      12.271514      16.200019      1610.2718    
        23   0             -322.50422     -7747.3129     -6056.215      -11129.509     -6056.215      -4.6623195e-12  1.3258502e-11  1.4691734e-11  8.1000093      12.271514      16.200019      1610.2718    
        24   0             -322.50422     -7747.3129     -6056.215      -11129.509     -6056.215      -8.9781429e-12  4.3939567e-12  1.2865623e-11  8.1000093      12.271514      16.200019      1610.2718    
        25   0             -322.50422     -7747.3129     -6056.215      -11129.509     -6056.215       6.5449372e-12  4.9740755e-12 -1.232711e-11   8.1000093      12.271514      16.200019      1610.2718    
        26   0             -322.50422     -7747.3129     -6056.215      -11129.509     -6056.215       1.238749e-11   2.4936988e-12 -4.9363672e-12  8.1000093      12.271514      16.200019      1610.2718    
        27   0             -322.50422     -7747.3129     -6056.215      -11129.509     -6056.215      -1.2798426e-11 -8.124112e-13  -1.497825e-11   8.1000093      12.271514      16.200019      1610.2718    
        28   0             -322.50422     -7747.3129     -6056.215      -11129.509     -6056.215       3.8270136e-12 -2.6648264e-12  2.2469101e-11  8.1000093      12.271514      16.200019      1610.2718    
        29   0             -322.50422     -7747.3129     -6056.215      -11129.509     -6056.215       3.6368492e-12 -1.3847812e-11 -1.0286975e-12  8.1000093      12.271514      16.200019      1610.2718    
        30   0             -322.50422     -7747.3129     -6056.215      -11129.509     -6056.215      -1.0846573e-11 -1.0099963e-11 -1.9849029e-12  8.1000093      12.271514      16.200019      1610.2718    
Loop time of 0.008313 on 1 procs for 28 steps with 96 atoms

188.0% CPU use with 1 MPI tasks x 1 OpenMP threads

Minimization stats:
  Stopping criterion = force tolerance
  Energy initial, next-to-last, final = 
     -322.504218116803  -322.504218139071  -322.504218139071
  Force two-norm initial, final = 0.00050659777 5.3524856e-11
  Force max component initial, final = 7.7833478e-05 9.1052599e-12
  Final line search alpha, max atom move = 1 9.1052599e-12
  Iterations, force evaluations = 28 56

MPI task timing breakdown:
Section |  min time  |  avg time  |  max time  |%varavg| %total
---------------------------------------------------------------
Pair    | 0.007745   | 0.007745   | 0.007745   |   0.0 | 93.17
Neigh   | 0          | 0          | 0          |   0.0 |  0.00
Comm    | 0.000158   | 0.000158   | 0.000158   |   0.0 |  1.90
Output  | 0.000296   | 0.000296   | 0.000296   |   0.0 |  3.56
Modify  | 0          | 0          | 0          |   0.0 |  0.00
Other   |            | 0.000114   |            |       |  1.37

Nlocal:             96 ave          96 max          96 min
Histogram: 1 0 0 0 0 0 0 0 0 0
Nghost:            976 ave         976 max         976 min
Histogram: 1 0 0 0 0 0 0 0 0 0
Neighs:           4128 ave        4128 max        4128 min
Histogram: 1 0 0 0 0 0 0 0 0 0

Total # of neighbors = 4128
Ave neighs/atom = 43
Neighbor list builds = 0
Dangerous builds = 0
OMP_NUM_THREADS environment is not set. Defaulting to 1 thread. (src/comm.cpp:98)
  using 1 OpenMP thread(s) per MPI task
Loaded 1 plugins from F:\Lammps\LAMMPS 64-bit 2Aug2023\plugins

The 'box' command has been removed and will be ignored

Reading restart file ...
  restart file = 2 Aug 2023, LAMMPS = 2 Aug 2023
  restoring atom style atomic from restart
  triclinic box = (-4.6617854e-06 -6.9926781e-06 -9.3235709e-06) to (8.1000047 12.150007 16.200009) with tilt (0 0 0)
  1 by 1 by 1 MPI processor grid
  pair style eam/alloy stores no restart info
  96 atoms
  read_restart CPU = 0.000 seconds
Changing box ...
  triclinic box = (-4.6617854e-06 -6.9926781e-06 -9.3235709e-06) to (8.1000047 12.150007 16.038009) with tilt (0 0 0)
Neighbor list info ...
  update: every = 1 steps, delay = 0 steps, check = yes
  max neighbors/atom: 2000, page size: 100000
  master list distance cutoff = 7.28721
  ghost atom cutoff = 7.28721
  1 neighbor lists, perpetual/occasional/extra = 1 0 0
  (1) pair eam/alloy, perpetual
      attributes: half, newton on
      pair build: half/nsq/newton
      stencil: none
      bin: none
Setting up cg style minimization ...
  Unit style    : metal
  Current step  : 2
Per MPI rank memory allocation (min/avg/max) = 4.447 | 4.447 | 4.447 Mbytes
   Step          Temp          PotEng         Press           Pxx            Pyy            Pzz            Pxy            Pxz            Pyz             Lx             Ly             Lz           Volume    
         2   0             -322.50284      7950.6003      6151.6098      6151.6098      11548.581      1.3271267e-06  2.6530624e-06  1.3927843e-06  8.1000093      12.150014      16.038018      1578.3852    
         3   0             -322.50284      7950.6003      6151.6097      6151.6097      11548.581     -1.7897977e-07 -4.5537582e-07 -4.1424142e-07  8.1000093      12.150014      16.038018      1578.3852    
         4   0             -322.50284      7950.6003      6151.6097      6151.6097      11548.581     -8.212623e-08   8.5061527e-08  6.9665251e-08  8.1000093      12.150014      16.038018      1578.3852    
         5   0             -322.50284      7950.6003      6151.6097      6151.6097      11548.581     -2.6314763e-08 -5.3420465e-09  1.1732002e-08  8.1000093      12.150014      16.038018      1578.3852    
         6   0             -322.50284      7950.6003      6151.6097      6151.6097      11548.581     -4.2940679e-08 -2.4828783e-09  3.4833344e-09  8.1000093      12.150014      16.038018      1578.3852    
         7   0             -322.50284      7950.6003      6151.6097      6151.6097      11548.581     -2.8660753e-08  4.9050101e-10 -2.6018634e-11  8.1000093      12.150014      16.038018      1578.3852    
         8   0             -322.50284      7950.6003      6151.6097      6151.6097      11548.581     -1.5129009e-08 -7.8511119e-10 -3.7039223e-10  8.1000093      12.150014      16.038018      1578.3852    
         9   0             -322.50284      7950.6003      6151.6097      6151.6097      11548.581     -6.5841086e-09 -6.488064e-11  -6.6249612e-10  8.1000093      12.150014      16.038018      1578.3852    
        10   0             -322.50284      7950.6003      6151.6097      6151.6097      11548.581     -2.0638724e-09  4.382049e-10  -4.1733706e-10  8.1000093      12.150014      16.038018      1578.3852    
        11   0             -322.50284      7950.6003      6151.6097      6151.6097      11548.581     -6.546668e-10   7.0432173e-12 -9.159348e-11   8.1000093      12.150014      16.038018      1578.3852    
        12   0             -322.50284      7950.6003      6151.6097      6151.6097      11548.581     -2.4072215e-10  6.7575582e-12  3.241764e-11   8.1000093      12.150014      16.038018      1578.3852    
        13   0             -322.50284      7950.6003      6151.6097      6151.6097      11548.581     -4.1124566e-11  2.3964171e-11  2.7293505e-11  8.1000093      12.150014      16.038018      1578.3852    
        14   0             -322.50284      7950.6003      6151.6097      6151.6097      11548.581     -1.4448066e-11  5.6613821e-12  2.3997154e-11  8.1000093      12.150014      16.038018      1578.3852    
        15   0             -322.50284      7950.6003      6151.6097      6151.6097      11548.581      3.7410453e-12 -1.8915187e-11 -2.6155982e-11  8.1000093      12.150014      16.038018      1578.3852    
        16   0             -322.50284      7950.6003      6151.6097      6151.6097      11548.581      1.4460197e-11  2.3128058e-11 -8.1422688e-12  8.1000093      12.150014      16.038018      1578.3852    
        17   0             -322.50284      7950.6003      6151.6097      6151.6097      11548.581     -5.9102261e-12 -1.7994456e-11 -1.6833929e-12  8.1000093      12.150014      16.038018      1578.3852    
        18   0             -322.50284      7950.6003      6151.6097      6151.6097      11548.581      5.7792774e-12  1.9013105e-12  7.1068764e-12  8.1000093      12.150014      16.038018      1578.3852    
        19   0             -322.50284      7950.6003      6151.6097      6151.6097      11548.581      3.1880137e-12  8.8065576e-13 -2.2162326e-11  8.1000093      12.150014      16.038018      1578.3852    
        20   0             -322.50284      7950.6003      6151.6097      6151.6097      11548.581      1.6585389e-11  1.2332129e-11  2.8300723e-11  8.1000093      12.150014      16.038018      1578.3852    
        21   0             -322.50284      7950.6003      6151.6097      6151.6097      11548.581     -9.8459672e-13  5.8715908e-12 -7.6633118e-12  8.1000093      12.150014      16.038018      1578.3852    
        22   0             -322.50284      7950.6003      6151.6097      6151.6097      11548.581     -8.2024696e-12  8.367844e-12   2.4085197e-11  8.1000093      12.150014      16.038018      1578.3852    
        23   0             -322.50284      7950.6003      6151.6097      6151.6097      11548.581      2.636077e-12  -2.3176107e-11  1.477371e-11   8.1000093      12.150014      16.038018      1578.3852    
        24   0             -322.50284      7950.6003      6151.6097      6151.6097      11548.581      2.7450729e-13 -3.9626066e-12 -4.7825264e-12  8.1000093      12.150014      16.038018      1578.3852    
        25   0             -322.50284      7950.6003      6151.6097      6151.6097      11548.581      1.3181086e-11  6.4317727e-12 -7.6844422e-12  8.1000093      12.150014      16.038018      1578.3852    
        26   0             -322.50284      7950.6003      6151.6097      6151.6097      11548.581      3.9953515e-12  7.0841942e-12  3.4301772e-12  8.1000093      12.150014      16.038018      1578.3852    
        27   0             -322.50284      7950.6003      6151.6097      6151.6097      11548.581      6.1859174e-12 -1.2812802e-12 -1.0748358e-11  8.1000093      12.150014      16.038018      1578.3852    
Loop time of 0.007069 on 1 procs for 25 steps with 96 atoms

221.0% CPU use with 1 MPI tasks x 1 OpenMP threads

Minimization stats:
  Stopping criterion = force tolerance
  Energy initial, next-to-last, final = 
      -322.50283533043  -322.502835353254  -322.502835353257
  Force two-norm initial, final = 0.00052261387 7.9251928e-11
  Force max component initial, final = 8.0948475e-05 1.3535395e-11
  Final line search alpha, max atom move = 1 1.3535395e-11
  Iterations, force evaluations = 25 50

MPI task timing breakdown:
Section |  min time  |  avg time  |  max time  |%varavg| %total
---------------------------------------------------------------
Pair    | 0.00661    | 0.00661    | 0.00661    |   0.0 | 93.51
Neigh   | 0          | 0          | 0          |   0.0 |  0.00
Comm    | 0.000137   | 0.000137   | 0.000137   |   0.0 |  1.94
Output  | 0.000212   | 0.000212   | 0.000212   |   0.0 |  3.00
Modify  | 0          | 0          | 0          |   0.0 |  0.00
Other   |            | 0.00011    |            |       |  1.56

Nlocal:             96 ave          96 max          96 min
Histogram: 1 0 0 0 0 0 0 0 0 0
Nghost:            976 ave         976 max         976 min
Histogram: 1 0 0 0 0 0 0 0 0 0
Neighs:           4128 ave        4128 max        4128 min
Histogram: 1 0 0 0 0 0 0 0 0 0

Total # of neighbors = 4128
Ave neighs/atom = 43
Neighbor list builds = 0
Dangerous builds = 0
OMP_NUM_THREADS environment is not set. Defaulting to 1 thread. (src/comm.cpp:98)
  using 1 OpenMP thread(s) per MPI task
Loaded 1 plugins from F:\Lammps\LAMMPS 64-bit 2Aug2023\plugins

The 'box' command has been removed and will be ignored

Reading restart file ...
  restart file = 2 Aug 2023, LAMMPS = 2 Aug 2023
  restoring atom style atomic from restart
  triclinic box = (-4.6617854e-06 -6.9926781e-06 -9.3235709e-06) to (8.1000047 12.150007 16.200009) with tilt (0 0 0)
  1 by 1 by 1 MPI processor grid
  pair style eam/alloy stores no restart info
  96 atoms
  read_restart CPU = 0.000 seconds
Changing box ...
  triclinic box = (-4.6617854e-06 -6.9926781e-06 -9.3235709e-06) to (8.1000047 12.150007 16.36201) with tilt (0 0 0)
Neighbor list info ...
  update: every = 1 steps, delay = 0 steps, check = yes
  max neighbors/atom: 2000, page size: 100000
  master list distance cutoff = 7.28721
  ghost atom cutoff = 7.28721
  1 neighbor lists, perpetual/occasional/extra = 1 0 0
  (1) pair eam/alloy, perpetual
      attributes: half, newton on
      pair build: half/nsq/newton
      stencil: none
      bin: none
Setting up cg style minimization ...
  Unit style    : metal
  Current step  : 2
Per MPI rank memory allocation (min/avg/max) = 4.447 | 4.447 | 4.447 Mbytes
   Step          Temp          PotEng         Press           Pxx            Pyy            Pzz            Pxy            Pxz            Pyz             Lx             Ly             Lz           Volume    
         2   0             -322.50422     -7747.3128     -6056.2149     -6056.2149     -11129.509      1.9133199e-07  3.7344216e-06  2.0505833e-06  8.1000093      12.150014      16.362019      1610.2718    
         3   0             -322.50422     -7747.3129     -6056.215      -6056.215      -11129.509     -3.3932067e-07 -5.9664217e-07 -4.6660585e-07  8.1000093      12.150014      16.362019      1610.2718    
         4   0             -322.50422     -7747.3129     -6056.215      -6056.215      -11129.509     -1.1609483e-07  1.0788748e-07  1.0528568e-07  8.1000093      12.150014      16.362019      1610.2718    
         5   0             -322.50422     -7747.3129     -6056.215      -6056.215      -11129.509     -2.7811098e-08 -2.3108463e-09  9.0034022e-09  8.1000093      12.150014      16.362019      1610.2718    
         6   0             -322.50422     -7747.3129     -6056.215      -6056.215      -11129.509     -4.550616e-08   3.4190962e-10  7.2160714e-10  8.1000093      12.150014      16.362019      1610.2718    
         7   0             -322.50422     -7747.3129     -6056.215      -6056.215      -11129.509     -3.0066579e-08  1.5702538e-09 -6.9624871e-10  8.1000093      12.150014      16.362019      1610.2718    
         8   0             -322.50422     -7747.3129     -6056.215      -6056.215      -11129.509     -1.4329781e-08 -1.3594938e-09  9.7446651e-11  8.1000093      12.150014      16.362019      1610.2718    
         9   0             -322.50422     -7747.3129     -6056.215      -6056.215      -11129.509     -6.6826824e-09 -3.5065227e-10 -3.4928078e-10  8.1000093      12.150014      16.362019      1610.2718    
        10   0             -322.50422     -7747.3129     -6056.215      -6056.215      -11129.509     -2.3887763e-09  5.6728247e-10 -3.848813e-10   8.1000093      12.150014      16.362019      1610.2718    
        11   0             -322.50422     -7747.3129     -6056.215      -6056.215      -11129.509     -6.6222615e-10  9.1316833e-11 -1.0934916e-10  8.1000093      12.150014      16.362019      1610.2718    
        12   0             -322.50422     -7747.3129     -6056.215      -6056.215      -11129.509     -2.8676694e-10  1.6938566e-11  3.3884882e-11  8.1000093      12.150014      16.362019      1610.2718    
        13   0             -322.50422     -7747.3129     -6056.215      -6056.215      -11129.509     -2.2882026e-11  2.0941108e-11 -5.1434875e-12  8.1000093      12.150014      16.362019      1610.2718    
        14   0             -322.50422     -7747.3129     -6056.215      -6056.215      -11129.509      1.3261363e-11 -1.2527536e-11 -1.3048579e-11  8.1000093      12.150014      16.362019      1610.2718    
        15   0             -322.50422     -7747.3129     -6056.215      -6056.215      -11129.509     -2.7382471e-11 -1.1445588e-11  1.528893e-11   8.1000093      12.150014      16.362019      1610.2718    
        16   0             -322.50422     -7747.3129     -6056.215      -6056.215      -11129.509      3.107863e-12  -3.5899974e-12  9.3825498e-12  8.1000093      12.150014      16.362019      1610.2718    
        17   0             -322.50422     -7747.3129     -6056.215      -6056.215      -11129.509     -9.8389288e-12 -1.7285818e-12  6.4069214e-12  8.1000093      12.150014      16.362019      1610.2718    
        18   0             -322.50422     -7747.3129     -6056.215      -6056.215      -11129.509      3.003072e-12   7.2322121e-13 -3.3104729e-12  8.1000093      12.150014      16.362019      1610.2718    
        19   0             -322.50422     -7747.3129     -6056.215      -6056.215      -11129.509      8.3368111e-12 -1.7441085e-11 -7.8533115e-12  8.1000093      12.150014      16.362019      1610.2718    
        20   0             -322.50422     -7747.3129     -6056.215      -6056.215      -11129.509     -1.0132512e-11  1.6087218e-11 -8.4574124e-12  8.1000093      12.150014      16.362019      1610.2718    
        21   0             -322.50422     -7747.3129     -6056.215      -6056.215      -11129.509      1.298733e-11  -1.6887701e-11 -5.8304366e-12  8.1000093      12.150014      16.362019      1610.2718    
        22   0             -322.50422     -7747.3129     -6056.215      -6056.215      -11129.509      1.9256297e-11  1.4502579e-11 -2.5061557e-12  8.1000093      12.150014      16.362019      1610.2718    
        23   0             -322.50422     -7747.3129     -6056.215      -6056.215      -11129.509      2.0424176e-12 -6.6964133e-12 -2.1450759e-11  8.1000093      12.150014      16.362019      1610.2718    
        24   0             -322.50422     -7747.3129     -6056.215      -6056.215      -11129.509      1.6270216e-11 -6.4109376e-12 -1.5437367e-11  8.1000093      12.150014      16.362019      1610.2718    
        25   0             -322.50422     -7747.3129     -6056.215      -6056.215      -11129.509     -2.272544e-11   2.0546562e-11 -2.5234157e-12  8.1000093      12.150014      16.362019      1610.2718    
        26   0             -322.50422     -7747.3129     -6056.215      -6056.215      -11129.509     -5.3892642e-12  1.5848671e-11  1.494373e-11   8.1000093      12.150014      16.362019      1610.2718    
        27   0             -322.50422     -7747.3129     -6056.215      -6056.215      -11129.509     -1.2658297e-11 -2.1810765e-11 -2.5489605e-11  8.1000093      12.150014      16.362019      1610.2718    
Loop time of 0.007408 on 1 procs for 25 steps with 96 atoms

210.9% CPU use with 1 MPI tasks x 1 OpenMP threads

Minimization stats:
  Stopping criterion = force tolerance
  Energy initial, next-to-last, final = 
     -322.504218116841  -322.504218139071  -322.504218139071
  Force two-norm initial, final = 0.00050605178 6.7335613e-11
  Force max component initial, final = 7.8360376e-05 1.2859262e-11
  Final line search alpha, max atom move = 1 1.2859262e-11
  Iterations, force evaluations = 25 50

MPI task timing breakdown:
Section |  min time  |  avg time  |  max time  |%varavg| %total
---------------------------------------------------------------
Pair    | 0.006927   | 0.006927   | 0.006927   |   0.0 | 93.51
Neigh   | 0          | 0          | 0          |   0.0 |  0.00
Comm    | 0.000143   | 0.000143   | 0.000143   |   0.0 |  1.93
Output  | 0.000225   | 0.000225   | 0.000225   |   0.0 |  3.04
Modify  | 0          | 0          | 0          |   0.0 |  0.00
Other   |            | 0.000113   |            |       |  1.53

Nlocal:             96 ave          96 max          96 min
Histogram: 1 0 0 0 0 0 0 0 0 0
Nghost:            976 ave         976 max         976 min
Histogram: 1 0 0 0 0 0 0 0 0 0
Neighs:           4128 ave        4128 max        4128 min
Histogram: 1 0 0 0 0 0 0 0 0 0

Total # of neighbors = 4128
Ave neighs/atom = 43
Neighbor list builds = 0
Dangerous builds = 0
OMP_NUM_THREADS environment is not set. Defaulting to 1 thread. (src/comm.cpp:98)
  using 1 OpenMP thread(s) per MPI task
Loaded 1 plugins from F:\Lammps\LAMMPS 64-bit 2Aug2023\plugins

The 'box' command has been removed and will be ignored

Reading restart file ...
  restart file = 2 Aug 2023, LAMMPS = 2 Aug 2023
  restoring atom style atomic from restart
  triclinic box = (-4.6617854e-06 -6.9926781e-06 -9.3235709e-06) to (8.1000047 12.150007 16.200009) with tilt (0 0 0)
  1 by 1 by 1 MPI processor grid
  pair style eam/alloy stores no restart info
  96 atoms
  read_restart CPU = 0.000 seconds
Changing box ...
  triclinic box = (-4.6617854e-06 -6.9926781e-06 -9.3235709e-06) to (8.1000047 12.150007 16.200009) with tilt (0 0 -0.16200019)
Neighbor list info ...
  update: every = 1 steps, delay = 0 steps, check = yes
  max neighbors/atom: 2000, page size: 100000
  master list distance cutoff = 7.28721
  ghost atom cutoff = 7.28721
  1 neighbor lists, perpetual/occasional/extra = 1 0 0
  (1) pair eam/alloy, perpetual
      attributes: half, newton on
      pair build: half/nsq/newton
      stencil: none
      bin: none
Setting up cg style minimization ...
  Unit style    : metal
  Current step  : 2
Per MPI rank memory allocation (min/avg/max) = 4.447 | 4.447 | 4.447 Mbytes
   Step          Temp          PotEng         Press           Pxx            Pyy            Pzz            Pxy            Pxz            Pyz             Lx             Ly             Lz           Volume    
         2   0             -322.54425      16.999563      25.747141     -6.0124747      31.264024      7.2685073e-07  3.2571844e-06  3169.7332      8.1000093      12.150014      16.200019      1594.3285    
         3   0             -322.54425      16.99954       25.747118     -6.0124969      31.263998     -2.8362077e-07 -5.1348727e-07  3169.7332      8.1000093      12.150014      16.200019      1594.3285    
         4   0             -322.54425      16.999537      25.747115     -6.0124995      31.263995     -1.166962e-07   9.1982787e-08  3169.7332      8.1000093      12.150014      16.200019      1594.3285    
         5   0             -322.54425      16.999536      25.747114     -6.0125         31.263994     -2.8664609e-08 -1.0413127e-08  3169.7332      8.1000093      12.150014      16.200019      1594.3285    
         6   0             -322.54425      16.999536      25.747114     -6.0125001      31.263994     -4.4796129e-08 -2.6366245e-09  3169.7332      8.1000093      12.150014      16.200019      1594.3285    
         7   0             -322.54425      16.999536      25.747114     -6.0125002      31.263994     -2.9821137e-08  7.3083075e-10  3169.7332      8.1000093      12.150014      16.200019      1594.3285    
         8   0             -322.54425      16.999536      25.747114     -6.0125002      31.263994     -1.5251067e-08 -1.4844195e-09  3169.7332      8.1000093      12.150014      16.200019      1594.3285    
         9   0             -322.54425      16.999536      25.747114     -6.0125002      31.263994     -7.1186936e-09 -3.6422712e-10  3169.7332      8.1000093      12.150014      16.200019      1594.3285    
        10   0             -322.54425      16.999536      25.747114     -6.0125002      31.263994     -2.3502934e-09  5.5460122e-10  3169.7332      8.1000093      12.150014      16.200019      1594.3285    
        11   0             -322.54425      16.999536      25.747114     -6.0125002      31.263994     -7.8685528e-10  2.2834752e-11  3169.7332      8.1000093      12.150014      16.200019      1594.3285    
        12   0             -322.54425      16.999536      25.747114     -6.0125002      31.263994     -2.972354e-10   1.1435096e-11  3169.7332      8.1000093      12.150014      16.200019      1594.3285    
        13   0             -322.54425      16.999536      25.747114     -6.0125002      31.263994     -2.8984224e-11  2.8468369e-11  3169.7332      8.1000093      12.150014      16.200019      1594.3285    
        14   0             -322.54425      16.999536      25.747114     -6.0125002      31.263994      2.6248332e-12 -1.747955e-11   3169.7332      8.1000093      12.150014      16.200019      1594.3285    
        15   0             -322.54425      16.999536      25.747114     -6.0125002      31.263994      1.9189774e-12 -2.5865017e-12  3169.7332      8.1000093      12.150014      16.200019      1594.3285    
        16   0             -322.54425      16.999536      25.747114     -6.0125002      31.263994      1.2510784e-11 -7.8234474e-12  3169.7332      8.1000093      12.150014      16.200019      1594.3285    
        17   0             -322.54425      16.999536      25.747114     -6.0125002      31.263994     -9.3274198e-13  5.3090901e-12  3169.7332      8.1000093      12.150014      16.200019      1594.3285    
        18   0             -322.54425      16.999536      25.747114     -6.0125002      31.263994     -3.6228462e-12  1.2052771e-12  3169.7332      8.1000093      12.150014      16.200019      1594.3285    
        19   0             -322.54425      16.999536      25.747114     -6.0125002      31.263994      1.5535747e-12  2.5389395e-12  3169.7332      8.1000093      12.150014      16.200019      1594.3285    
        20   0             -322.54425      16.999536      25.747114     -6.0125002      31.263994     -4.7971899e-12 -5.3937169e-12  3169.7332      8.1000093      12.150014      16.200019      1594.3285    
        21   0             -322.54425      16.999536      25.747114     -6.0125002      31.263994      1.3485771e-11 -3.8351773e-12  3169.7332      8.1000093      12.150014      16.200019      1594.3285    
        22   0             -322.54425      16.999536      25.747114     -6.0125002      31.263994      7.6127501e-12  3.0177982e-12  3169.7332      8.1000093      12.150014      16.200019      1594.3285    
        23   0             -322.54425      16.999536      25.747114     -6.0125002      31.263994      5.706639e-12   8.6765524e-12  3169.7332      8.1000093      12.150014      16.200019      1594.3285    
        24   0             -322.54425      16.999536      25.747114     -6.0125002      31.263994     -9.6924313e-12 -4.5337892e-12  3169.7332      8.1000093      12.150014      16.200019      1594.3285    
        25   0             -322.54425      16.999536      25.747114     -6.0125002      31.263994      1.1578505e-11 -4.5654116e-12  3169.7332      8.1000093      12.150014      16.200019      1594.3285    
        26   0             -322.54425      16.999536      25.747114     -6.0125002      31.263994      1.5731492e-11  5.3120523e-13  3169.7332      8.1000093      12.150014      16.200019      1594.3285    
        27   0             -322.54425      16.999536      25.747114     -6.0125002      31.263994     -6.4547314e-12  5.6988231e-12  3169.7332      8.1000093      12.150014      16.200019      1594.3285    
        28   0             -322.54425      16.999536      25.747114     -6.0125002      31.263994      2.1229374e-12 -6.1804078e-12  3169.7332      8.1000093      12.150014      16.200019      1594.3285    
        29   0             -322.54425      16.999536      25.747114     -6.0125002      31.263994     -9.4344393e-12 -1.0189434e-11  3169.7332      8.1000093      12.150014      16.200019      1594.3285    
        30   0             -322.54425      16.999536      25.747114     -6.0125002      31.263994     -9.9157427e-13  1.3188653e-12  3169.7332      8.1000093      12.150014      16.200019      1594.3285    
Loop time of 0.007991 on 1 procs for 28 steps with 96 atoms

0.0% CPU use with 1 MPI tasks x 1 OpenMP threads

Minimization stats:
  Stopping criterion = force tolerance
  Energy initial, next-to-last, final = 
     -322.544253072901  -322.544253095448  -322.544253095447
  Force two-norm initial, final = 0.00051511739 8.3773049e-11
  Force max component initial, final = 7.9443372e-05 1.3172293e-11
  Final line search alpha, max atom move = 1 1.3172293e-11
  Iterations, force evaluations = 28 56

MPI task timing breakdown:
Section |  min time  |  avg time  |  max time  |%varavg| %total
---------------------------------------------------------------
Pair    | 0.007476   | 0.007476   | 0.007476   |   0.0 | 93.56
Neigh   | 0          | 0          | 0          |   0.0 |  0.00
Comm    | 0.000154   | 0.000154   | 0.000154   |   0.0 |  1.93
Output  | 0.000233   | 0.000233   | 0.000233   |   0.0 |  2.92
Modify  | 0          | 0          | 0          |   0.0 |  0.00
Other   |            | 0.000128   |            |       |  1.60

Nlocal:             96 ave          96 max          96 min
Histogram: 1 0 0 0 0 0 0 0 0 0
Nghost:            976 ave         976 max         976 min
Histogram: 1 0 0 0 0 0 0 0 0 0
Neighs:           4128 ave        4128 max        4128 min
Histogram: 1 0 0 0 0 0 0 0 0 0

Total # of neighbors = 4128
Ave neighs/atom = 43
Neighbor list builds = 0
Dangerous builds = 0
OMP_NUM_THREADS environment is not set. Defaulting to 1 thread. (src/comm.cpp:98)
  using 1 OpenMP thread(s) per MPI task
Loaded 1 plugins from F:\Lammps\LAMMPS 64-bit 2Aug2023\plugins

The 'box' command has been removed and will be ignored

Reading restart file ...
  restart file = 2 Aug 2023, LAMMPS = 2 Aug 2023
  restoring atom style atomic from restart
  triclinic box = (-4.6617854e-06 -6.9926781e-06 -9.3235709e-06) to (8.1000047 12.150007 16.200009) with tilt (0 0 0)
  1 by 1 by 1 MPI processor grid
  pair style eam/alloy stores no restart info
  96 atoms
  read_restart CPU = 0.000 seconds
Changing box ...
  triclinic box = (-4.6617854e-06 -6.9926781e-06 -9.3235709e-06) to (8.1000047 12.150007 16.200009) with tilt (0 0 0.16200019)
Neighbor list info ...
  update: every = 1 steps, delay = 0 steps, check = yes
  max neighbors/atom: 2000, page size: 100000
  master list distance cutoff = 7.28721
  ghost atom cutoff = 7.28721
  1 neighbor lists, perpetual/occasional/extra = 1 0 0
  (1) pair eam/alloy, perpetual
      attributes: half, newton on
      pair build: half/nsq/newton
      stencil: none
      bin: none
Setting up cg style minimization ...
  Unit style    : metal
  Current step  : 2
Per MPI rank memory allocation (min/avg/max) = 4.447 | 4.447 | 4.447 Mbytes
   Step          Temp          PotEng         Press           Pxx            Pyy            Pzz            Pxy            Pxz            Pyz             Lx             Ly             Lz           Volume    
         2   0             -322.54425      16.999564      25.747141     -6.0124744      31.264024      8.3661566e-07  3.1341341e-06 -3169.7332      8.1000093      12.150014      16.200019      1594.3285    
         3   0             -322.54425      16.99954       25.747118     -6.0124969      31.263998     -2.2848649e-07 -5.7301197e-07 -3169.7332      8.1000093      12.150014      16.200019      1594.3285    
         4   0             -322.54425      16.999537      25.747115     -6.0124995      31.263995     -8.041927e-08   9.6218054e-08 -3169.7332      8.1000093      12.150014      16.200019      1594.3285    
         5   0             -322.54425      16.999536      25.747114     -6.0125         31.263994     -2.588359e-08  -1.5991231e-09 -3169.7332      8.1000093      12.150014      16.200019      1594.3285    
         6   0             -322.54425      16.999536      25.747114     -6.0125001      31.263994     -4.5149129e-08 -1.1150064e-09 -3169.7332      8.1000093      12.150014      16.200019      1594.3285    
         7   0             -322.54425      16.999536      25.747114     -6.0125002      31.263994     -2.9873108e-08  9.0176378e-10 -3169.7332      8.1000093      12.150014      16.200019      1594.3285    
         8   0             -322.54425      16.999536      25.747114     -6.0125002      31.263994     -1.5213386e-08 -6.0541446e-10 -3169.7332      8.1000093      12.150014      16.200019      1594.3285    
         9   0             -322.54425      16.999536      25.747114     -6.0125002      31.263994     -6.8223771e-09 -2.2312439e-12 -3169.7332      8.1000093      12.150014      16.200019      1594.3285    
        10   0             -322.54425      16.999536      25.747114     -6.0125002      31.263994     -2.2743916e-09  3.6633932e-10 -3169.7332      8.1000093      12.150014      16.200019      1594.3285    
        11   0             -322.54425      16.999536      25.747114     -6.0125002      31.263994     -7.8080499e-10  8.9714277e-11 -3169.7332      8.1000093      12.150014      16.200019      1594.3285    
        12   0             -322.54425      16.999536      25.747114     -6.0125002      31.263994     -2.8212255e-10  3.2912675e-11 -3169.7332      8.1000093      12.150014      16.200019      1594.3285    
        13   0             -322.54425      16.999536      25.747114     -6.0125002      31.263994     -3.2035145e-11 -6.4227616e-12 -3169.7332      8.1000093      12.150014      16.200019      1594.3285    
        14   0             -322.54425      16.999536      25.747114     -6.0125002      31.263994     -1.4665225e-11  5.6181935e-12 -3169.7332      8.1000093      12.150014      16.200019      1594.3285    
        15   0             -322.54425      16.999536      25.747114     -6.0125002      31.263994     -1.5335853e-11 -3.4941223e-12 -3169.7332      8.1000093      12.150014      16.200019      1594.3285    
        16   0             -322.54425      16.999536      25.747114     -6.0125002      31.263994      1.0448782e-11 -1.7339366e-11 -3169.7332      8.1000093      12.150014      16.200019      1594.3285    
        17   0             -322.54425      16.999536      25.747114     -6.0125002      31.263994     -1.1885982e-11  2.293401e-12  -3169.7332      8.1000093      12.150014      16.200019      1594.3285    
        18   0             -322.54425      16.999536      25.747114     -6.0125002      31.263994     -5.2148725e-13  2.7278741e-11 -3169.7332      8.1000093      12.150014      16.200019      1594.3285    
        19   0             -322.54425      16.999536      25.747114     -6.0125002      31.263994     -4.7469654e-12  7.2131529e-12 -3169.7332      8.1000093      12.150014      16.200019      1594.3285    
        20   0             -322.54425      16.999536      25.747114     -6.0125002      31.263994      4.8925746e-12 -4.8016503e-12 -3169.7332      8.1000093      12.150014      16.200019      1594.3285    
        21   0             -322.54425      16.999536      25.747114     -6.0125002      31.263994     -8.185826e-12  -1.9769833e-11 -3169.7332      8.1000093      12.150014      16.200019      1594.3285    
        22   0             -322.54425      16.999536      25.747114     -6.0125002      31.263994     -4.2580454e-12 -5.3914101e-12 -3169.7332      8.1000093      12.150014      16.200019      1594.3285    
        23   0             -322.54425      16.999536      25.747114     -6.0125002      31.263994      4.8480628e-12  6.6683617e-12 -3169.7332      8.1000093      12.150014      16.200019      1594.3285    
        24   0             -322.54425      16.999536      25.747114     -6.0125002      31.263994      1.1628359e-11 -2.7384808e-12 -3169.7332      8.1000093      12.150014      16.200019      1594.3285    
        25   0             -322.54425      16.999536      25.747114     -6.0125002      31.263994      4.0835382e-12 -3.713439e-12  -3169.7332      8.1000093      12.150014      16.200019      1594.3285    
        26   0             -322.54425      16.999536      25.747114     -6.0125002      31.263994      1.2967806e-12 -1.19781e-11   -3169.7332      8.1000093      12.150014      16.200019      1594.3285    
        27   0             -322.54425      16.999536      25.747114     -6.0125002      31.263994     -1.2092347e-11  1.0300201e-11 -3169.7332      8.1000093      12.150014      16.200019      1594.3285    
        28   0             -322.54425      16.999536      25.747114     -6.0125002      31.263994     -4.8339578e-12  1.7628172e-11 -3169.7332      8.1000093      12.150014      16.200019      1594.3285    
        29   0             -322.54425      16.999536      25.747114     -6.0125002      31.263994     -7.2157395e-13 -3.7982965e-12 -3169.7332      8.1000093      12.150014      16.200019      1594.3285    
        30   0             -322.54425      16.999536      25.747114     -6.0125002      31.263994      9.6042459e-13 -2.7951642e-12 -3169.7332      8.1000093      12.150014      16.200019      1594.3285    
Loop time of 0.00854 on 1 procs for 28 steps with 96 atoms

0.0% CPU use with 1 MPI tasks x 1 OpenMP threads

Minimization stats:
  Stopping criterion = force tolerance
  Energy initial, next-to-last, final = 
     -322.544253072935  -322.544253095446  -322.544253095447
  Force two-norm initial, final = 0.00051383038 7.9162396e-11
  Force max component initial, final = 7.9947304e-05 1.3380977e-11
  Final line search alpha, max atom move = 1 1.3380977e-11
  Iterations, force evaluations = 28 56

MPI task timing breakdown:
Section |  min time  |  avg time  |  max time  |%varavg| %total
---------------------------------------------------------------
Pair    | 0.008036   | 0.008036   | 0.008036   |   0.0 | 94.10
Neigh   | 0          | 0          | 0          |   0.0 |  0.00
Comm    | 0.000157   | 0.000157   | 0.000157   |   0.0 |  1.84
Output  | 0.000232   | 0.000232   | 0.000232   |   0.0 |  2.72
Modify  | 0          | 0          | 0          |   0.0 |  0.00
Other   |            | 0.000115   |            |       |  1.35

Nlocal:             96 ave          96 max          96 min
Histogram: 1 0 0 0 0 0 0 0 0 0
Nghost:            976 ave         976 max         976 min
Histogram: 1 0 0 0 0 0 0 0 0 0
Neighs:           4128 ave        4128 max        4128 min
Histogram: 1 0 0 0 0 0 0 0 0 0

Total # of neighbors = 4128
Ave neighs/atom = 43
Neighbor list builds = 0
Dangerous builds = 0
OMP_NUM_THREADS environment is not set. Defaulting to 1 thread. (src/comm.cpp:98)
  using 1 OpenMP thread(s) per MPI task
Loaded 1 plugins from F:\Lammps\LAMMPS 64-bit 2Aug2023\plugins

The 'box' command has been removed and will be ignored

Reading restart file ...
  restart file = 2 Aug 2023, LAMMPS = 2 Aug 2023
  restoring atom style atomic from restart
  triclinic box = (-4.6617854e-06 -6.9926781e-06 -9.3235709e-06) to (8.1000047 12.150007 16.200009) with tilt (0 0 0)
  1 by 1 by 1 MPI processor grid
  pair style eam/alloy stores no restart info
  96 atoms
  read_restart CPU = 0.000 seconds
Changing box ...
  triclinic box = (-4.6617854e-06 -6.9926781e-06 -9.3235709e-06) to (8.1000047 12.150007 16.200009) with tilt (0 -0.16200019 0)
Neighbor list info ...
  update: every = 1 steps, delay = 0 steps, check = yes
  max neighbors/atom: 2000, page size: 100000
  master list distance cutoff = 7.28721
  ghost atom cutoff = 7.28721
  1 neighbor lists, perpetual/occasional/extra = 1 0 0
  (1) pair eam/alloy, perpetual
      attributes: half, newton on
      pair build: half/nsq/newton
      stencil: none
      bin: none
Setting up cg style minimization ...
  Unit style    : metal
  Current step  : 2
Per MPI rank memory allocation (min/avg/max) = 4.447 | 4.447 | 4.447 Mbytes
   Step          Temp          PotEng         Press           Pxx            Pyy            Pzz            Pxy            Pxz            Pyz             Lx             Ly             Lz           Volume    
         2   0             -322.54425      16.999563     -6.0124743      25.74714       31.264023      7.5847456e-07  3169.7332      1.7905092e-06  8.1000093      12.150014      16.200019      1594.3285    
         3   0             -322.54425      16.99954      -6.0124963      25.747118      31.263998     -2.4405911e-07  3169.7332     -4.2906099e-07  8.1000093      12.150014      16.200019      1594.3285    
         4   0             -322.54425      16.999537     -6.0124994      25.747115      31.263995     -8.9229515e-08  3169.7332      7.4004463e-08  8.1000093      12.150014      16.200019      1594.3285    
         5   0             -322.54425      16.999536     -6.0125         25.747114      31.263994     -2.5136372e-08  3169.7332      6.2745005e-09  8.1000093      12.150014      16.200019      1594.3285    
         6   0             -322.54425      16.999536     -6.0125001      25.747114      31.263994     -4.4944886e-08  3169.7332      1.3053829e-09  8.1000093      12.150014      16.200019      1594.3285    
         7   0             -322.54425      16.999536     -6.0125002      25.747114      31.263994     -3.021864e-08   3169.7332     -9.2703216e-10  8.1000093      12.150014      16.200019      1594.3285    
         8   0             -322.54425      16.999536     -6.0125002      25.747114      31.263994     -1.4951856e-08  3169.7332     -3.0991722e-10  8.1000093      12.150014      16.200019      1594.3285    
         9   0             -322.54425      16.999536     -6.0125002      25.747114      31.263994     -7.167811e-09   3169.7332     -6.1130291e-10  8.1000093      12.150014      16.200019      1594.3285    
        10   0             -322.54425      16.999536     -6.0125002      25.747114      31.263994     -2.3472932e-09  3169.7332     -5.0332871e-10  8.1000093      12.150014      16.200019      1594.3285    
        11   0             -322.54425      16.999536     -6.0125002      25.747114      31.263994     -8.0228658e-10  3169.7332     -1.1080874e-10  8.1000093      12.150014      16.200019      1594.3285    
        12   0             -322.54425      16.999536     -6.0125002      25.747114      31.263994     -2.7818842e-10  3169.7332      3.1270644e-11  8.1000093      12.150014      16.200019      1594.3285    
        13   0             -322.54425      16.999536     -6.0125002      25.747114      31.263994     -4.4312481e-11  3169.7332      3.4732763e-11  8.1000093      12.150014      16.200019      1594.3285    
        14   0             -322.54425      16.999536     -6.0125002      25.747114      31.263994     -1.9713903e-11  3169.7332      1.0612982e-11  8.1000093      12.150014      16.200019      1594.3285    
        15   0             -322.54425      16.999536     -6.0125002      25.747114      31.263994      2.2475775e-11  3169.7332     -8.6500688e-12  8.1000093      12.150014      16.200019      1594.3285    
        16   0             -322.54425      16.999536     -6.0125002      25.747114      31.263994     -1.6926262e-11  3169.7332     -2.2055758e-11  8.1000093      12.150014      16.200019      1594.3285    
        17   0             -322.54425      16.999536     -6.0125002      25.747114      31.263994      4.7444797e-12  3169.7332     -4.3909297e-11  8.1000093      12.150014      16.200019      1594.3285    
        18   0             -322.54425      16.999536     -6.0125002      25.747114      31.263994     -2.3246134e-12  3169.7332      8.1480092e-12  8.1000093      12.150014      16.200019      1594.3285    
        19   0             -322.54425      16.999536     -6.0125002      25.747114      31.263994      3.3145414e-12  3169.7332      6.0630672e-12  8.1000093      12.150014      16.200019      1594.3285    
        20   0             -322.54425      16.999536     -6.0125002      25.747114      31.263994      4.8684148e-12  3169.7332      1.7484923e-11  8.1000093      12.150014      16.200019      1594.3285    
        21   0             -322.54425      16.999536     -6.0125002      25.747114      31.263994     -3.3054165e-12  3169.7332      7.5483269e-12  8.1000093      12.150014      16.200019      1594.3285    
        22   0             -322.54425      16.999536     -6.0125002      25.747114      31.263994      9.9834468e-12  3169.7332     -1.1104582e-11  8.1000093      12.150014      16.200019      1594.3285    
[...]
Neigh   | 0          | 0          | 0          |   0.0 |  0.00
Comm    | 0.000148   | 0.000148   | 0.000148   |   0.0 |  1.82
Output  | 0.000275   | 0.000275   | 0.000275   |   0.0 |  3.38
Modify  | 0          | 0          | 0          |   0.0 |  0.00
Other   |            | 0.00012    |            |       |  1.47

Nlocal:             96 ave          96 max          96 min
Histogram: 1 0 0 0 0 0 0 0 0 0
Nghost:            976 ave         976 max         976 min
Histogram: 1 0 0 0 0 0 0 0 0 0
Neighs:           4128 ave        4128 max        4128 min
Histogram: 1 0 0 0 0 0 0 0 0 0

Total # of neighbors = 4128
Ave neighs/atom = 43
Neighbor list builds = 0
Dangerous builds = 0
OMP_NUM_THREADS environment is not set. Defaulting to 1 thread. (src/comm.cpp:98)
  using 1 OpenMP thread(s) per MPI task
Loaded 1 plugins from F:\Lammps\LAMMPS 64-bit 2Aug2023\plugins

The 'box' command has been removed and will be ignored

Reading restart file ...
  restart file = 2 Aug 2023, LAMMPS = 2 Aug 2023
  restoring atom style atomic from restart
  triclinic box = (-4.6617854e-06 -6.9926781e-06 -9.3235709e-06) to (8.1000047 12.150007 16.200009) with tilt (0 0 0)
  1 by 1 by 1 MPI processor grid
  pair style eam/alloy stores no restart info
  96 atoms
  read_restart CPU = 0.000 seconds
Changing box ...
  triclinic box = (-4.6617854e-06 -6.9926781e-06 -9.3235709e-06) to (8.1000047 12.150007 16.200009) with tilt (-0.12150014 0 0)
Neighbor list info ...
  update: every = 1 steps, delay = 0 steps, check = yes
  max neighbors/atom: 2000, page size: 100000
  master list distance cutoff = 7.28721
  ghost atom cutoff = 7.28721
  1 neighbor lists, perpetual/occasional/extra = 1 0 0
  (1) pair eam/alloy, perpetual
      attributes: half, newton on
      pair build: half/nsq/newton
      stencil: none
      bin: none
Setting up cg style minimization ...
  Unit style    : metal
  Current step  : 2
Per MPI rank memory allocation (min/avg/max) = 4.447 | 4.447 | 4.447 Mbytes
   Step          Temp          PotEng         Press           Pxx            Pyy            Pzz            Pxy            Pxz            Pyz             Lx             Ly             Lz           Volume    
         2   0             -322.54425      16.999563     -6.0124743      31.264019      25.747145      3169.7332      3.1543021e-06  1.6844779e-06  8.1000093      12.150014      16.200019      1594.3285    
         3   0             -322.54425      16.99954      -6.0124963      31.263997      25.747119      3169.7332     -5.1092841e-07 -4.8829237e-07  8.1000093      12.150014      16.200019      1594.3285    
         4   0             -322.54425      16.999537     -6.0124993      31.263995      25.747115      3169.7332      9.128816e-08   7.7425214e-08  8.1000093      12.150014      16.200019      1594.3285    
         5   0             -322.54425      16.999536     -6.0125         31.263994      25.747114      3169.7332     -1.6777053e-09  1.0135381e-08  8.1000093      12.150014      16.200019      1594.3285    
         6   0             -322.54425      16.999536     -6.0125001      31.263994      25.747114      3169.7332     -1.234566e-09   1.8197395e-09  8.1000093      12.150014      16.200019      1594.3285    
         7   0             -322.54425      16.999536     -6.0125002      31.263994      25.747114      3169.7332      6.6158655e-10 -6.3643378e-10  8.1000093      12.150014      16.200019      1594.3285    
         8   0             -322.54425      16.999536     -6.0125002      31.263994      25.747114      3169.7332     -9.1799667e-10 -1.8534019e-10  8.1000093      12.150014      16.200019      1594.3285    
         9   0             -322.54425      16.999536     -6.0125002      31.263994      25.747114      3169.7332     -1.6351092e-10 -6.3464519e-10  8.1000093      12.150014      16.200019      1594.3285    
        10   0             -322.54425      16.999536     -6.0125002      31.263994      25.747114      3169.7332      4.5817971e-10 -4.8589609e-10  8.1000093      12.150014      16.200019      1594.3285    
        11   0             -322.54425      16.999536     -6.0125002      31.263994      25.747114      3169.7332      1.0714824e-10 -1.1372696e-10  8.1000093      12.150014      16.200019      1594.3285    
        12   0             -322.54425      16.999536     -6.0125002      31.263994      25.747114      3169.7332      4.0433885e-12 -6.3768544e-12  8.1000093      12.150014      16.200019      1594.3285    
        13   0             -322.54425      16.999536     -6.0125002      31.263994      25.747114      3169.7332     -6.7328069e-13  2.5381903e-11  8.1000093      12.150014      16.200019      1594.3285    
        14   0             -322.54425      16.999536     -6.0125002      31.263994      25.747114      3169.7332      5.11367e-12   -1.2004106e-11  8.1000093      12.150014      16.200019      1594.3285    
        15   0             -322.54425      16.999536     -6.0125002      31.263994      25.747114      3169.7332     -1.1684217e-11 -2.7982851e-11  8.1000093      12.150014      16.200019      1594.3285    
        16   0             -322.54425      16.999536     -6.0125002      31.263994      25.747114      3169.7332      6.2642778e-12 -7.4541907e-12  8.1000093      12.150014      16.200019      1594.3285    
        17   0             -322.54425      16.999536     -6.0125002      31.263994      25.747114      3169.7332     -1.539723e-11   2.9286811e-13  8.1000093      12.150014      16.200019      1594.3285    
        18   0             -322.54425      16.999536     -6.0125002      31.263994      25.747114      3169.7332      8.794923e-12  -2.8938158e-12  8.1000093      12.150014      16.200019      1594.3285    
        19   0             -322.54425      16.999536     -6.0125002      31.263994      25.747114      3169.7332      4.6136533e-13  8.1759014e-12  8.1000093      12.150014      16.200019      1594.3285    
        20   0             -322.54425      16.999536     -6.0125002      31.263994      25.747114      3169.7332      4.4080845e-12 -6.7220204e-12  8.1000093      12.150014      16.200019      1594.3285    
        21   0             -322.54425      16.999536     -6.0125002      31.263994      25.747114      3169.7332      6.5211911e-12 -4.6370784e-13  8.1000093      12.150014      16.200019      1594.3285    
        22   0             -322.54425      16.999536     -6.0125002      31.263994      25.747114      3169.7332     -7.1588711e-12 -5.8747948e-12  8.1000093      12.150014      16.200019      1594.3285    
        23   0             -322.54425      16.999536     -6.0125002      31.263994      25.747114      3169.7332      4.9947196e-12 -6.3071239e-12  8.1000093      12.150014      16.200019      1594.3285    
        24   0             -322.54425      16.999536     -6.0125002      31.263994      25.747114      3169.7332     -3.8040168e-12 -3.0555906e-11  8.1000093      12.150014      16.200019      1594.3285    
        25   0             -322.54425      16.999536     -6.0125002      31.263994      25.747114      3169.7332     -2.2750312e-11  6.9730502e-13  8.1000093      12.150014      16.200019      1594.3285    
        26   0             -322.54425      16.999536     -6.0125002      31.263994      25.747114      3169.7332      2.5000755e-11 -9.3090221e-13  8.1000093      12.150014      16.200019      1594.3285    
        27   0             -322.54425      16.999536     -6.0125002      31.263994      25.747114      3169.7332     -5.7962935e-12 -1.5148952e-11  8.1000093      12.150014      16.200019      1594.3285    
        28   0             -322.54425      16.999536     -6.0125002      31.263994      25.747114      3169.7332      6.4705276e-12  6.035175e-12   8.1000093      12.150014      16.200019      1594.3285    
        29   0             -322.54425      16.999536     -6.0125002      31.263994      25.747114      3169.7332      3.1206034e-12  4.51505e-12    8.1000093      12.150014      16.200019      1594.3285    
        30   0             -322.54425      16.999536     -6.0125002      31.263994      25.747114      3169.7332      8.0767806e-12 -5.3256671e-11  8.1000093      12.150014      16.200019      1594.3285    
Loop time of 0.00865 on 1 procs for 28 steps with 96 atoms

0.0% CPU use with 1 MPI tasks x 1 OpenMP threads

Minimization stats:
  Stopping criterion = force tolerance
  Energy initial, next-to-last, final = 
     -322.544253072908  -322.544253095446  -322.544253095447
  Force two-norm initial, final = 0.00051437719 7.8621731e-11
  Force max component initial, final = 7.9363081e-05 1.4698222e-11
  Final line search alpha, max atom move = 1 1.4698222e-11
  Iterations, force evaluations = 28 56

MPI task timing breakdown:
Section |  min time  |  avg time  |  max time  |%varavg| %total
---------------------------------------------------------------
Pair    | 0.008084   | 0.008084   | 0.008084   |   0.0 | 93.46
Neigh   | 0          | 0          | 0          |   0.0 |  0.00
Comm    | 0.000178   | 0.000178   | 0.000178   |   0.0 |  2.06
Output  | 0.000252   | 0.000252   | 0.000252   |   0.0 |  2.91
Modify  | 0          | 0          | 0          |   0.0 |  0.00
Other   |            | 0.000136   |            |       |  1.57

Nlocal:             96 ave          96 max          96 min
Histogram: 1 0 0 0 0 0 0 0 0 0
Nghost:            976 ave         976 max         976 min
Histogram: 1 0 0 0 0 0 0 0 0 0
Neighs:           4128 ave        4128 max        4128 min
Histogram: 1 0 0 0 0 0 0 0 0 0

Total # of neighbors = 4128
Ave neighs/atom = 43
Neighbor list builds = 0
Dangerous builds = 0
OMP_NUM_THREADS environment is not set. Defaulting to 1 thread. (src/comm.cpp:98)
  using 1 OpenMP thread(s) per MPI task
Loaded 1 plugins from F:\Lammps\LAMMPS 64-bit 2Aug2023\plugins

The 'box' command has been removed and will be ignored

Reading restart file ...
  restart file = 2 Aug 2023, LAMMPS = 2 Aug 2023
  restoring atom style atomic from restart
  triclinic box = (-4.6617854e-06 -6.9926781e-06 -9.3235709e-06) to (8.1000047 12.150007 16.200009) with tilt (0 0 0)
  1 by 1 by 1 MPI processor grid
  pair style eam/alloy stores no restart info
  96 atoms
  read_restart CPU = 0.000 seconds
Changing box ...
  triclinic box = (-4.6617854e-06 -6.9926781e-06 -9.3235709e-06) to (8.1000047 12.150007 16.200009) with tilt (0.12150014 0 0)
Neighbor list info ...
  update: every = 1 steps, delay = 0 steps, check = yes
  max neighbors/atom: 2000, page size: 100000
  master list distance cutoff = 7.28721
  ghost atom cutoff = 7.28721
  1 neighbor lists, perpetual/occasional/extra = 1 0 0
  (1) pair eam/alloy, perpetual
      attributes: half, newton on
      pair build: half/nsq/newton
      stencil: none
      bin: none
Setting up cg style minimization ...
  Unit style    : metal
  Current step  : 2
Per MPI rank memory allocation (min/avg/max) = 4.447 | 4.447 | 4.447 Mbytes
   Step          Temp          PotEng         Press           Pxx            Pyy            Pzz            Pxy            Pxz            Pyz             Lx             Ly             Lz           Volume    
         2   0             -322.54425      16.999564     -6.0124734      31.26402       25.747144     -3169.7332      3.2555295e-06  1.7539086e-06  8.1000093      12.150014      16.200019      1594.3285    
         3   0             -322.54425      16.99954      -6.0124962      31.263997      25.747119     -3169.7332     -5.6724718e-07 -4.082434e-07   8.1000093      12.150014      16.200019      1594.3285    
         4   0             -322.54425      16.999537     -6.0124993      31.263995      25.747115     -3169.7332      9.9413755e-08  9.9566301e-08  8.1000093      12.150014      16.200019      1594.3285    
         5   0             -322.54425      16.999536     -6.0125         31.263994      25.747114     -3169.7332     -9.8383097e-09  1.1552312e-08  8.1000093      12.150014      16.200019      1594.3285    
         6   0             -322.54425      16.999536     -6.0125001      31.263994      25.747114     -3169.7332     -2.3781296e-09  2.7543374e-09  8.1000093      12.150014      16.200019      1594.3285    
         7   0             -322.54425      16.999536     -6.0125002      31.263994      25.747114     -3169.7332      9.7662727e-10 -1.2076974e-10  8.1000093      12.150014      16.200019      1594.3285    
         8   0             -322.54425      16.999536     -6.0125002      31.263994      25.747114     -3169.7332     -1.0999199e-09 -3.3443446e-10  8.1000093      12.150014      16.200019      1594.3285    
         9   0             -322.54425      16.999536     -6.0125002      31.263994      25.747114     -3169.7332     -2.4539569e-10 -5.5687476e-10  8.1000093      12.150014      16.200019      1594.3285    
        10   0             -322.54425      16.999536     -6.0125002      31.263994      25.747114     -3169.7332      5.4019684e-10 -3.6742745e-10  8.1000093      12.150014      16.200019      1594.3285    
        11   0             -322.54425      16.999536     -6.0125002      31.263994      25.747114     -3169.7332      2.1254238e-11 -1.1188956e-10  8.1000093      12.150014      16.200019      1594.3285    
        12   0             -322.54425      16.999536     -6.0125002      31.263994      25.747114     -3169.7332      3.7183409e-11  1.7464004e-11  8.1000093      12.150014      16.200019      1594.3285    
        13   0             -322.54425      16.999536     -6.0125002      31.263994      25.747114     -3169.7332      6.8238651e-12  3.0834828e-11  8.1000093      12.150014      16.200019      1594.3285    
        14   0             -322.54425      16.999536     -6.0125002      31.263994      25.747114     -3169.7332     -2.0938735e-11 -3.8247181e-12  8.1000093      12.150014      16.200019      1594.3285    
        15   0             -322.54425      16.999536     -6.0125002      31.263994      25.747114     -3169.7332      4.4925238e-12 -3.0437364e-12  8.1000093      12.150014      16.200019      1594.3285    
        16   0             -322.54425      16.999536     -6.0125002      31.263994      25.747114     -3169.7332      4.4054424e-12  2.158159e-12   8.1000093      12.150014      16.200019      1594.3285    
        17   0             -322.54425      16.999536     -6.0125002      31.263994      25.747114     -3169.7332     -1.3664999e-12  3.4307407e-12  8.1000093      12.150014      16.200019      1594.3285    
        18   0             -322.54425      16.999536     -6.0125002      31.263994      25.747114     -3169.7332     -5.7014764e-12  3.4795521e-12  8.1000093      12.150014      16.200019      1594.3285    
        19   0             -322.54425      16.999536     -6.0125002      31.263994      25.747114     -3169.7332     -4.3612071e-12 -1.0975581e-11  8.1000093      12.150014      16.200019      1594.3285    
        20   0             -322.54425      16.999536     -6.0125002      31.263994      25.747114     -3169.7332     -3.4721432e-12 -2.3704884e-11  8.1000093      12.150014      16.200019      1594.3285    
        21   0             -322.54425      16.999536     -6.0125002      31.263994      25.747114     -3169.7332     -1.4975334e-11 -1.6219315e-11  8.1000093      12.150014      16.200019      1594.3285    
        22   0             -322.54425      16.999536     -6.0125002      31.263994      25.747114     -3169.7332      3.2822365e-12  1.1704265e-11  8.1000093      12.150014      16.200019      1594.3285    
        23   0             -322.54425      16.999536     -6.0125002      31.263994      25.747114     -3169.7332      1.6283979e-12 -6.593019e-12   8.1000093      12.150014      16.200019      1594.3285    
        24   0             -322.54425      16.999536     -6.0125002      31.263994      25.747114     -3169.7332      2.4006496e-11 -3.0716286e-12  8.1000093      12.150014      16.200019      1594.3285    
        25   0             -322.54425      16.999536     -6.0125002      31.263994      25.747114     -3169.7332     -1.8736804e-12 -2.9286811e-12  8.1000093      12.150014      16.200019      1594.3285    
        26   0             -322.54425      16.999536     -6.0125002      31.263994      25.747114     -3169.7332      8.0453746e-12  2.2027866e-11  8.1000093      12.150014      16.200019      1594.3285    
        27   0             -322.54425      16.999536     -6.0125002      31.263994      25.747114     -3169.7332     -9.6558496e-12 -3.4237677e-12  8.1000093      12.150014      16.200019      1594.3285    
        28   0             -322.54425      16.999536     -6.0125002      31.263994      25.747114     -3169.7332     -3.8703697e-12 -1.7153704e-12  8.1000093      12.150014      16.200019      1594.3285    
        29   0             -322.54425      16.999536     -6.0125002      31.263994      25.747114     -3169.7332     -2.0689558e-11  1.4639919e-11  8.1000093      12.150014      16.200019      1594.3285    
        30   0             -322.54425      16.999536     -6.0125002      31.263994      25.747114     -3169.7332      1.2264206e-11 -4.4139408e-12  8.1000093      12.150014      16.200019      1594.3285    
Loop time of 0.008376 on 1 procs for 28 steps with 96 atoms

0.0% CPU use with 1 MPI tasks x 1 OpenMP threads

Minimization stats:
  Stopping criterion = force tolerance
  Energy initial, next-to-last, final = 
     -322.544253072925  -322.544253095446  -322.544253095447
  Force two-norm initial, final = 0.00051466449 7.913947e-11
  Force max component initial, final = 8.0000104e-05 1.4119934e-11
  Final line search alpha, max atom move = 1 1.4119934e-11
  Iterations, force evaluations = 28 56

MPI task timing breakdown:
Section |  min time  |  avg time  |  max time  |%varavg| %total
---------------------------------------------------------------
Pair    | 0.007878   | 0.007878   | 0.007878   |   0.0 | 94.05
Neigh   | 0          | 0          | 0          |   0.0 |  0.00
Comm    | 0.000153   | 0.000153   | 0.000153   |   0.0 |  1.83
Output  | 0.000223   | 0.000223   | 0.000223   |   0.0 |  2.66
Modify  | 0          | 0          | 0          |   0.0 |  0.00
Other   |            | 0.000122   |            |       |  1.46

Nlocal:             96 ave          96 max          96 min
Histogram: 1 0 0 0 0 0 0 0 0 0
Nghost:            976 ave         976 max         976 min
Histogram: 1 0 0 0 0 0 0 0 0 0
Neighs:           4128 ave        4128 max        4128 min
Histogram: 1 0 0 0 0 0 0 0 0 0

Total # of neighbors = 4128
Ave neighs/atom = 43
Neighbor list builds = 0
Dangerous builds = 0
=========================================
Components of the Elastic Constant Tensor
=========================================
Elastic Constant C11all = 113.390449618798 GPa
Elastic Constant C22all = 113.390449618798 GPa
Elastic Constant C33all = 113.390449618798 GPa
Elastic Constant C12all = 61.0391235954157 GPa
Elastic Constant C13all = 61.039123595416 GPa
Elastic Constant C23all = 61.0391235954161 GPa
Elastic Constant C44all = 31.6973319531883 GPa
Elastic Constant C55all = 31.6973319531884 GPa
Elastic Constant C66all = 31.6973319531883 GPa
Elastic Constant C14all = 4.55181072007104e-14 GPa
Elastic Constant C15all = 8.57356914673545e-15 GPa
Elastic Constant C16all = -5.28827339512865e-14 GPa
Elastic Constant C24all = -8.72732421587161e-14 GPa
Elastic Constant C25all = 1.74462193563815e-14 GPa
Elastic Constant C26all = 1.95353396452764e-13 GPa
Elastic Constant C34all = 1.70911480564272e-14 GPa
Elastic Constant C35all = 9.82912648260925e-15 GPa
Elastic Constant C36all = 2.51142414629011e-14 GPa
Elastic Constant C45all = -2.67069577679151e-14 GPa
Elastic Constant C46all = -1.26986822965581e-13 GPa
Elastic Constant C56all = -7.24320825711505e-14 GPa
=========================================
Average properties for a cubic crystal
=========================================
Bulk Modulus = 78.4895656032099 GPa
Shear Modulus 1 = 31.6973319531883 GPa
Shear Modulus 2 = 26.1756630116911 GPa
Poisson Ratio = 0.349935635744833
Total wall time: 0:00:00
