LAMMPS (2 Aug 2023 - Update 3)
OMP_NUM_THREADS environment is not set. Defaulting to 1 thread. (src/comm.cpp:98)
  using 1 OpenMP thread(s) per MPI task
Loaded 1 plugins from F:\Lammps\LAMMPS 64-bit 2Aug2023\plugins
Lattice spacing in x,y,z = 4.05 4.05 4.05
Created triclinic box = (0 0 0) to (8.1 12.15 16.2) with tilt (0 0 0)
  1 by 1 by 1 MPI processor grid
Created 96 atoms
  using lattice units in triclinic box = (0 0 0) to (8.1 12.15 16.2) with tilt (0 0 0)
  create_atoms CPU = 0.000 seconds
Neighbor list info ...
  update: every = 1 steps, delay = 0 steps, check = yes
  max neighbors/atom: 2000, page size: 100000
  master list distance cutoff = 7.28721
  ghost atom cutoff = 7.28721
  1 neighbor lists, perpetual/occasional/extra = 1 0 0
  (1) pair eam/alloy, perpetual
      attributes: half, newton on
      pair build: half/nsq/newton
      stencil: none
      bin: none
Setting up cg style minimization ...
  Unit style    : metal
  Current step  : 0
WARNING: Energy due to 3 extra global DOFs will be included in minimizer energies
 (src/min.cpp:228)
Per MPI rank memory allocation (min/avg/max) = 4.452 | 4.452 | 4.452 Mbytes
   Step          Temp          PotEng         Press           Pxx            Pyy            Pzz            Pxy            Pxz            Pyz             Lx             Ly             Lz           Volume    
         0   0             -322.56         2.726913       2.726913       2.726913       2.726913       2.2732222e-12  5.6691094e-12  8.2700661e-12  8.1            12.15          16.2           1594.323     
         1   0             -322.56        -0.00024358028 -0.00024358023 -0.00024358039 -0.00024358023  3.6538783e-12 -1.8548314e-12  3.8351776e-12  8.1000093      12.150014      16.200019      1594.3285    
         2   0             -322.56         4.4066656e-10  4.3579472e-10  4.388001e-10   4.4740485e-10 -2.2216138e-11 -2.0291576e-12 -5.2995182e-13  8.1000093      12.150014      16.200019      1594.3285    
Loop time of 0.000874 on 1 procs for 2 steps with 96 atoms

0.0% CPU use with 1 MPI tasks x 1 OpenMP threads

Minimization stats:
  Stopping criterion = force tolerance
  Energy initial, next-to-last, final = 
     -322.559998860994  -322.559998865621  -322.559998865637
  Force two-norm initial, final = 0.0047000001 7.6230766e-13
  Force max component initial, final = 0.0027135463 4.452128e-13
  Final line search alpha, max atom move = 1 4.452128e-13
  Iterations, force evaluations = 2 4

MPI task timing breakdown:
Section |  min time  |  avg time  |  max time  |%varavg| %total
---------------------------------------------------------------
Pair    | 0.000684   | 0.000684   | 0.000684   |   0.0 | 78.26
Neigh   | 0          | 0          | 0          |   0.0 |  0.00
Comm    | 1.8e-05    | 1.8e-05    | 1.8e-05    |   0.0 |  2.06
Output  | 1.2e-05    | 1.2e-05    | 1.2e-05    |   0.0 |  1.37
Modify  | 0          | 0          | 0          |   0.0 |  0.00
Other   |            | 0.00016    |            |       | 18.31

Nlocal:             96 ave          96 max          96 min
Histogram: 1 0 0 0 0 0 0 0 0 0
Nghost:            976 ave         976 max         976 min
Histogram: 1 0 0 0 0 0 0 0 0 0
Neighs:           4128 ave        4128 max        4128 min
Histogram: 1 0 0 0 0 0 0 0 0 0

Total # of neighbors = 4128
Ave neighs/atom = 43
Neighbor list builds = 0
Dangerous builds = 0
Displacing atoms ...
System init for write_restart ...
OMP_NUM_THREADS environment is not set. Defaulting to 1 thread. (src/comm.cpp:98)
  using 1 OpenMP thread(s) per MPI task
Loaded 1 plugins from F:\Lammps\LAMMPS 64-bit 2Aug2023\plugins

The 'box' command has been removed and will be ignored

Reading restart file ...
  restart file = 2 Aug 2023, LAMMPS = 2 Aug 2023
  restoring atom style atomic from restart
  triclinic box = (-4.6617854e-06 -6.9926781e-06 -9.3235709e-06) to (8.1000047 12.150007 16.200009) with tilt (0 0 0)
  1 by 1 by 1 MPI processor grid
  pair style eam/alloy stores no restart info
  96 atoms
  read_restart CPU = 0.000 seconds
Changing box ...
  triclinic box = (-4.6617854e-06 -6.9926781e-06 -9.3235709e-06) to (8.0999237 12.150007 16.200009) with tilt (0 0 0)
  triclinic box = (-4.6617854e-06 -6.9926781e-06 -9.3235709e-06) to (8.0999237 12.150007 16.200009) with tilt (0 0 0)
  triclinic box = (-4.6617854e-06 -6.9926781e-06 -9.3235709e-06) to (8.0999237 12.150007 16.200009) with tilt (0 0 0)
Neighbor list info ...
  update: every = 1 steps, delay = 0 steps, check = yes
  max neighbors/atom: 2000, page size: 100000
  master list distance cutoff = 7.28721
  ghost atom cutoff = 7.28721
  1 neighbor lists, perpetual/occasional/extra = 1 0 0
  (1) pair eam/alloy, perpetual
      attributes: half, newton on
      pair build: half/nsq/newton
      stencil: none
      bin: none
Setting up cg style minimization ...
  Unit style    : metal
  Current step  : 2
Per MPI rank memory allocation (min/avg/max) = 4.447 | 4.447 | 4.447 Mbytes
   Step          Temp          PotEng         Press           Pxx            Pyy            Pzz            Pxy            Pxz            Pyz             Lx             Ly             Lz           Volume    
         2   0             -322.56         7.896896       11.379738      6.1554729      6.1554771      7.9930116e-07  3.1982117e-06  1.7196329e-06  8.0999283      12.150014      16.200019      1594.3126    
         3   0             -322.56         7.8968742      11.379717      6.1554522      6.1554533     -2.574161e-07  -5.3858207e-07 -4.4534999e-07  8.0999283      12.150014      16.200019      1594.3126    
         4   0             -322.56         7.8968713      11.379714      6.1554496      6.15545       -9.8331255e-08  9.4900611e-08  8.846731e-08   8.0999283      12.150014      16.200019      1594.3126    
         5   0             -322.56         7.8968706      11.379714      6.1554491      6.1554492     -2.7306093e-08 -5.0682718e-09  1.072318e-08   8.0999283      12.150014      16.200019      1594.3126    
         6   0             -322.56         7.8968705      11.379713      6.1554491      6.1554491     -4.4649851e-08 -1.5628423e-09  2.0706331e-09  8.0999283      12.150014      16.200019      1594.3126    
         7   0             -322.56         7.8968705      11.379713      6.155449       6.155449      -2.9809828e-08  9.3028212e-10 -4.5214058e-10  8.0999283      12.150014      16.200019      1594.3126    
         8   0             -322.56         7.8968705      11.379713      6.155449       6.155449      -1.5069209e-08 -1.0495622e-09 -1.4709099e-10  8.0999283      12.150014      16.200019      1594.3126    
         9   0             -322.56         7.8968705      11.379713      6.155449       6.155449      -6.8322661e-09 -2.0270494e-10 -5.5596337e-10  8.0999283      12.150014      16.200019      1594.3126    
        10   0             -322.56         7.8968705      11.379713      6.155449       6.155449      -2.2716757e-09  5.2865327e-10 -4.2212828e-10  8.0999283      12.150014      16.200019      1594.3126    
        11   0             -322.56         7.8968705      11.379713      6.155449       6.155449      -6.8440327e-10  3.7971993e-11 -9.1459441e-11  8.0999283      12.150014      16.200019      1594.3126    
        12   0             -322.56         7.8968705      11.379713      6.155449       6.155449      -2.7656372e-10  1.8374156e-11  4.4502452e-11  8.0999283      12.150014      16.200019      1594.3126    
        13   0             -322.56         7.8968705      11.379713      6.155449       6.155449      -1.5750981e-11 -1.1021893e-13  2.9165074e-11  8.0999283      12.150014      16.200019      1594.3126    
        14   0             -322.56         7.8968705      11.379713      6.155449       6.155449      -2.819112e-11   4.0455553e-12  8.3328784e-12  8.0999283      12.150014      16.200019      1594.3126    
        15   0             -322.56         7.8968705      11.379713      6.155449       6.155449      -1.733573e-11   1.1572497e-11 -2.5099745e-11  8.0999283      12.150014      16.200019      1594.3126    
        16   0             -322.56         7.8968705      11.379713      6.155449       6.155449      -9.7627901e-12  1.6539161e-11 -1.8475281e-11  8.0999283      12.150014      16.200019      1594.3126    
        17   0             -322.56         7.8968705      11.379713      6.155449       6.155449       1.4938053e-12  5.3937769e-12 -1.142197e-11   8.0999283      12.150014      16.200019      1594.3126    
        18   0             -322.56         7.8968705      11.379713      6.155449       6.155449      -1.4350291e-12 -1.646405e-11   2.2101304e-11  8.0999283      12.150014      16.200019      1594.3126    
        19   0             -322.56         7.8968705      11.379713      6.155449       6.155449      -3.0200016e-12  4.8375021e-12  1.5023587e-11  8.0999283      12.150014      16.200019      1594.3126    
        20   0             -322.56         7.8968705      11.379713      6.155449       6.155449       5.9811211e-12  1.895276e-12   4.1768989e-12  8.0999283      12.150014      16.200019      1594.3126    
        21   0             -322.56         7.8968705      11.379713      6.155449       6.155449      -1.3231197e-11 -6.4229194e-12  1.1892656e-11  8.0999283      12.150014      16.200019      1594.3126    
        22   0             -322.56         7.8968705      11.379713      6.155449       6.155449      -8.8731734e-12 -8.7848956e-12  1.8736773e-11  8.0999283      12.150014      16.200019      1594.3126    
        23   0             -322.56         7.8968705      11.379713      6.155449       6.155449       5.5040699e-12  2.9733793e-12 -4.8111041e-11  8.0999283      12.150014      16.200019      1594.3126    
        24   0             -322.56         7.8968705      11.379713      6.155449       6.155449       6.3540794e-12 -1.7847908e-11  7.7262169e-12  8.0999283      12.150014      16.200019      1594.3126    
        25   0             -322.56         7.8968705      11.379713      6.155449       6.155449       1.3973628e-12 -1.9727269e-11  1.0630521e-11  8.0999283      12.150014      16.200019      1594.3126    
        26   0             -322.56         7.8968705      11.379713      6.155449       6.155449      -1.2229426e-11 -5.2202342e-12 -1.8130112e-13  8.0999283      12.150014      16.200019      1594.3126    
        27   0             -322.56         7.8968705      11.379713      6.155449       6.155449      -9.5822013e-12  1.0682799e-11  3.0681728e-13  8.0999283      12.150014      16.200019      1594.3126    
Loop time of 0.007389 on 1 procs for 25 steps with 96 atoms

0.0% CPU use with 1 MPI tasks x 1 OpenMP threads

Minimization stats:
  Stopping criterion = force tolerance
  Energy initial, next-to-last, final = 
     -322.559998786502  -322.559998809024  -322.559998809027
  Force two-norm initial, final = 0.0005142703 5.6626796e-11
  Force max component initial, final = 7.9679224e-05 9.4758316e-12
  Final line search alpha, max atom move = 1 9.4758316e-12
  Iterations, force evaluations = 25 50

MPI task timing breakdown:
Section |  min time  |  avg time  |  max time  |%varavg| %total
---------------------------------------------------------------
Pair    | 0.006918   | 0.006918   | 0.006918   |   0.0 | 93.63
Neigh   | 0          | 0          | 0          |   0.0 |  0.00
Comm    | 0.000147   | 0.000147   | 0.000147   |   0.0 |  1.99
Output  | 0.000218   | 0.000218   | 0.000218   |   0.0 |  2.95
Modify  | 0          | 0          | 0          |   0.0 |  0.00
Other   |            | 0.000106   |            |       |  1.43

Nlocal:             96 ave          96 max          96 min
Histogram: 1 0 0 0 0 0 0 0 0 0
Nghost:            976 ave         976 max         976 min
Histogram: 1 0 0 0 0 0 0 0 0 0
Neighs:           4128 ave        4128 max        4128 min
Histogram: 1 0 0 0 0 0 0 0 0 0

Total # of neighbors = 4128
Ave neighs/atom = 43
Neighbor list builds = 0
Dangerous builds = 0
OMP_NUM_THREADS environment is not set. Defaulting to 1 thread. (src/comm.cpp:98)
  using 1 OpenMP thread(s) per MPI task
Loaded 1 plugins from F:\Lammps\LAMMPS 64-bit 2Aug2023\plugins

The 'box' command has been removed and will be ignored

Reading restart file ...
  restart file = 2 Aug 2023, LAMMPS = 2 Aug 2023
  restoring atom style atomic from restart
  triclinic box = (-4.6617854e-06 -6.9926781e-06 -9.3235709e-06) to (8.1000047 12.150007 16.200009) with tilt (0 0 0)
  1 by 1 by 1 MPI processor grid
  pair style eam/alloy stores no restart info
  96 atoms
  read_restart CPU = 0.000 seconds
Changing box ...
  triclinic box = (-4.6617854e-06 -6.9926781e-06 -9.3235709e-06) to (8.1000857 12.150007 16.200009) with tilt (0 0 0)
  triclinic box = (-4.6617854e-06 -6.9926781e-06 -9.3235709e-06) to (8.1000857 12.150007 16.200009) with tilt (0 0 0)
  triclinic box = (-4.6617854e-06 -6.9926781e-06 -9.3235709e-06) to (8.1000857 12.150007 16.200009) with tilt (0 0 0)
Neighbor list info ...
  update: every = 1 steps, delay = 0 steps, check = yes
  max neighbors/atom: 2000, page size: 100000
  master list distance cutoff = 7.28721
  ghost atom cutoff = 7.28721
  1 neighbor lists, perpetual/occasional/extra = 1 0 0
  (1) pair eam/alloy, perpetual
      attributes: half, newton on
      pair build: half/nsq/newton
      stencil: none
      bin: none
Setting up cg style minimization ...
  Unit style    : metal
  Current step  : 2
Per MPI rank memory allocation (min/avg/max) = 4.447 | 4.447 | 4.447 Mbytes
   Step          Temp          PotEng         Press           Pxx            Pyy            Pzz            Pxy            Pxz            Pyz             Lx             Ly             Lz           Volume    
         2   0             -322.56        -7.8967592     -11.379393     -6.1554445     -6.1554404      7.9809435e-07  3.1984751e-06  1.7201269e-06  8.1000903      12.150014      16.200019      1594.3444    
         3   0             -322.56        -7.8967826     -11.379415     -6.1554668     -6.1554657     -2.5767584e-07 -5.3884052e-07 -4.454353e-07   8.1000903      12.150014      16.200019      1594.3444    
         4   0             -322.56        -7.8967856     -11.379418     -6.1554694     -6.1554691     -9.8345965e-08  9.4896888e-08  8.8484689e-08  8.1000903      12.150014      16.200019      1594.3444    
         5   0             -322.56        -7.8967863     -11.379419     -6.15547       -6.1554699     -2.7293079e-08 -5.1135946e-09  1.0735852e-08  8.1000903      12.150014      16.200019      1594.3444    
         6   0             -322.56        -7.8967864     -11.379419     -6.15547       -6.15547       -4.4663202e-08 -1.5696411e-09  2.0390459e-09  8.1000903      12.150014      16.200019      1594.3444    
         7   0             -322.56        -7.8967864     -11.379419     -6.1554701     -6.1554701     -2.9810014e-08  9.1515868e-10 -4.1490629e-10  8.1000903      12.150014      16.200019      1594.3444    
         8   0             -322.56        -7.8967865     -11.379419     -6.1554701     -6.1554701     -1.5062567e-08 -1.0490037e-09 -1.2667116e-10  8.1000903      12.150014      16.200019      1594.3444    
         9   0             -322.56        -7.8967865     -11.379419     -6.1554701     -6.1554701     -6.8456906e-09 -2.169427e-10  -5.5854968e-10  8.1000903      12.150014      16.200019      1594.3444    
        10   0             -322.56        -7.8967865     -11.379419     -6.1554701     -6.1554701     -2.29395e-09    5.3492832e-10 -4.0515457e-10  8.1000903      12.150014      16.200019      1594.3444    
        11   0             -322.56        -7.8967865     -11.379419     -6.1554701     -6.1554701     -6.8107485e-10  4.9338665e-11 -8.9086799e-11  8.1000903      12.150014      16.200019      1594.3444    
        12   0             -322.56        -7.8967865     -11.379419     -6.1554701     -6.1554701     -2.8798274e-10  3.5846129e-11 -5.2785462e-12  8.1000903      12.150014      16.200019      1594.3444    
        13   0             -322.56        -7.8967865     -11.379419     -6.1554701     -6.1554701     -1.8677123e-11  2.0645658e-11  3.1064628e-11  8.1000903      12.150014      16.200019      1594.3444    
        14   0             -322.56        -7.8967865     -11.379419     -6.1554701     -6.1554701     -1.7895154e-11  1.3257157e-11 -1.3457852e-12  8.1000903      12.150014      16.200019      1594.3444    
        15   0             -322.56        -7.8967865     -11.379419     -6.1554701     -6.1554701      1.0991035e-11  1.9683789e-11 -4.2639776e-12  8.1000903      12.150014      16.200019      1594.3444    
        16   0             -322.56        -7.8967865     -11.379419     -6.1554701     -6.1554701     -1.2102462e-11  1.1022402e-12 -1.8066992e-11  8.1000903      12.150014      16.200019      1594.3444    
        17   0             -322.56        -7.8967865     -11.379419     -6.1554701     -6.1554701     -1.6764994e-12 -2.1237692e-11  1.4828043e-11  8.1000903      12.150014      16.200019      1594.3444    
        18   0             -322.56        -7.8967865     -11.379419     -6.1554701     -6.1554701     -1.0570758e-11  3.3139522e-12 -5.9618983e-13  8.1000903      12.150014      16.200019      1594.3444    
        19   0             -322.56        -7.8967865     -11.379419     -6.1554701     -6.1554701     -9.6543479e-13 -6.9794397e-12  8.3013333e-12  8.1000903      12.150014      16.200019      1594.3444    
        20   0             -322.56        -7.8967865     -11.379419     -6.1554701     -6.1554701      1.5651457e-11  6.9434842e-12 -1.3855312e-11  8.1000903      12.150014      16.200019      1594.3444    
        21   0             -322.56        -7.8967865     -11.379419     -6.1554701     -6.1554701     -1.4133099e-12 -7.7961042e-12 -2.2822565e-11  8.1000903      12.150014      16.200019      1594.3444    
        22   0             -322.56        -7.8967865     -11.379419     -6.1554701     -6.1554701     -2.1769025e-14 -5.1522945e-12 -4.3755453e-12  8.1000903      12.150014      16.200019      1594.3444    
        23   0             -322.56        -7.8967865     -11.379419     -6.1554701     -6.1554701     -1.1929687e-11  1.2526166e-11  7.851576e-12   8.1000903      12.150014      16.200019      1594.3444    
        24   0             -322.56        -7.8967865     -11.379419     -6.1554701     -6.1554701      5.2312213e-12  1.355397e-11  -8.7127391e-12  8.1000903      12.150014      16.200019      1594.3444    
        25   0             -322.56        -7.8967865     -11.379419     -6.1554701     -6.1554701     -1.3022368e-11  6.7656383e-14  1.8969993e-11  8.1000903      12.150014      16.200019      1594.3444    
        26   0             -322.56        -7.8967865     -11.379419     -6.1554701     -6.1554701     -1.2328472e-11 -4.9742955e-12 -1.3015068e-11  8.1000903      12.150014      16.200019      1594.3444    
        27   0             -322.56        -7.8967865     -11.379419     -6.1554701     -6.1554701     -5.8088898e-13  5.1307792e-12 -3.6085174e-12  8.1000903      12.150014      16.200019      1594.3444    
Loop time of 0.007343 on 1 procs for 25 steps with 96 atoms

0.0% CPU use with 1 MPI tasks x 1 OpenMP threads

Minimization stats:
  Stopping criterion = force tolerance
  Energy initial, next-to-last, final = 
     -322.559998786504  -322.559998809027  -322.559998809025
  Force two-norm initial, final = 0.00051425479 5.6529829e-11
  Force max component initial, final = 7.9677354e-05 8.7912871e-12
  Final line search alpha, max atom move = 1 8.7912871e-12
  Iterations, force evaluations = 25 50

MPI task timing breakdown:
Section |  min time  |  avg time  |  max time  |%varavg| %total
---------------------------------------------------------------
Pair    | 0.006895   | 0.006895   | 0.006895   |   0.0 | 93.90
Neigh   | 0          | 0          | 0          |   0.0 |  0.00
Comm    | 0.000141   | 0.000141   | 0.000141   |   0.0 |  1.92
Output  | 0.000197   | 0.000197   | 0.000197   |   0.0 |  2.68
Modify  | 0          | 0          | 0          |   0.0 |  0.00
Other   |            | 0.00011    |            |       |  1.50

Nlocal:             96 ave          96 max          96 min
Histogram: 1 0 0 0 0 0 0 0 0 0
Nghost:            976 ave         976 max         976 min
Histogram: 1 0 0 0 0 0 0 0 0 0
Neighs:           4128 ave        4128 max        4128 min
Histogram: 1 0 0 0 0 0 0 0 0 0

Total # of neighbors = 4128
Ave neighs/atom = 43
Neighbor list builds = 0
Dangerous builds = 0
OMP_NUM_THREADS environment is not set. Defaulting to 1 thread. (src/comm.cpp:98)
  using 1 OpenMP thread(s) per MPI task
Loaded 1 plugins from F:\Lammps\LAMMPS 64-bit 2Aug2023\plugins

The 'box' command has been removed and will be ignored

Reading restart file ...
  restart file = 2 Aug 2023, LAMMPS = 2 Aug 2023
  restoring atom style atomic from restart
  triclinic box = (-4.6617854e-06 -6.9926781e-06 -9.3235709e-06) to (8.1000047 12.150007 16.200009) with tilt (0 0 0)
  1 by 1 by 1 MPI processor grid
  pair style eam/alloy stores no restart info
  96 atoms
  read_restart CPU = 0.000 seconds
Changing box ...
  triclinic box = (-4.6617854e-06 -6.9926781e-06 -9.3235709e-06) to (8.1000047 12.149885 16.200009) with tilt (0 0 0)
  triclinic box = (-4.6617854e-06 -6.9926781e-06 -9.3235709e-06) to (8.1000047 12.149885 16.200009) with tilt (0 0 0)
Neighbor list info ...
  update: every = 1 steps, delay = 0 steps, check = yes
  max neighbors/atom: 2000, page size: 100000
  master list distance cutoff = 7.28721
  ghost atom cutoff = 7.28721
  1 neighbor lists, perpetual/occasional/extra = 1 0 0
  (1) pair eam/alloy, perpetual
      attributes: half, newton on
      pair build: half/nsq/newton
      stencil: none
      bin: none
Setting up cg style minimization ...
  Unit style    : metal
  Current step  : 2
Per MPI rank memory allocation (min/avg/max) = 4.447 | 4.447 | 4.447 Mbytes
   Step          Temp          PotEng         Press           Pxx            Pyy            Pzz            Pxy            Pxz            Pyz             Lx             Ly             Lz           Volume    
         2   0             -322.56         7.896896       6.1554737      11.379737      6.1554771      7.9932239e-07  3.198163e-06   1.7196116e-06  8.1000093      12.149892      16.200019      1594.3126    
         3   0             -322.56         7.8968742      6.1554528      11.379717      6.1554533     -2.574166e-07  -5.385946e-07  -4.4536682e-07  8.1000093      12.149892      16.200019      1594.3126    
         4   0             -322.56         7.8968713      6.1554498      11.379714      6.15545       -9.8323875e-08  9.490002e-08   8.8457335e-08  8.1000093      12.149892      16.200019      1594.3126    
         5   0             -322.56         7.8968706      6.1554492      11.379714      6.1554492     -2.7280537e-08 -5.0788219e-09  1.0723065e-08  8.1000093      12.149892      16.200019      1594.3126    
         6   0             -322.56         7.8968705      6.155449       11.379713      6.1554491     -4.4659479e-08 -1.5701101e-09  2.0903914e-09  8.1000093      12.149892      16.200019      1594.3126    
         7   0             -322.56         7.8968705      6.155449       11.379713      6.155449      -2.9804964e-08  9.365408e-10  -4.3117241e-10  8.1000093      12.149892      16.200019      1594.3126    
         8   0             -322.56         7.8968705      6.155449       11.379713      6.155449      -1.5083543e-08 -1.0458481e-09 -1.5984483e-10  8.1000093      12.149892      16.200019      1594.3126    
         9   0             -322.56         7.8968705      6.155449       11.379713      6.155449      -6.8450019e-09 -2.2025404e-10 -5.521665e-10   8.1000093      12.149892      16.200019      1594.3126    
        10   0             -322.56         7.8968705      6.155449       11.379713      6.155449      -2.2916386e-09  5.1942373e-10 -4.3296102e-10  8.1000093      12.149892      16.200019      1594.3126    
        11   0             -322.56         7.8968705      6.155449       11.379713      6.155449      -6.9669889e-10  4.2795971e-11 -7.5442185e-11  8.1000093      12.149892      16.200019      1594.3126    
        12   0             -322.56         7.8968705      6.155449       11.379713      6.155449      -2.8450173e-10  9.0619646e-12  1.9193513e-11  8.1000093      12.149892      16.200019      1594.3126    
        13   0             -322.56         7.8968705      6.155449       11.379713      6.155449      -2.3542239e-11  3.27975e-11    1.7941838e-11  8.1000093      12.149892      16.200019      1594.3126    
        14   0             -322.56         7.8968705      6.155449       11.379713      6.155449      -1.7068291e-11 -2.1166361e-11 -1.7697778e-11  8.1000093      12.149892      16.200019      1594.3126    
        15   0             -322.56         7.8968705      6.155449       11.379713      6.155449      -1.0917918e-11 -4.0116194e-12  1.0912933e-12  8.1000093      12.149892      16.200019      1594.3126    
        16   0             -322.56         7.8968705      6.155449       11.379713      6.155449      -1.0167872e-11 -5.9491451e-12 -2.3673742e-11  8.1000093      12.149892      16.200019      1594.3126    
        17   0             -322.56         7.8968705      6.155449       11.379713      6.155449      -2.181962e-12  -1.102903e-11   3.3638331e-11  8.1000093      12.149892      16.200019      1594.3126    
        18   0             -322.56         7.8968705      6.155449       11.379713      6.155449       3.6689191e-13 -1.7904106e-11  1.2370315e-11  8.1000093      12.149892      16.200019      1594.3126    
        19   0             -322.56         7.8968705      6.155449       11.379713      6.155449       6.2450564e-12  1.158177e-11   1.1927522e-11  8.1000093      12.149892      16.200019      1594.3126    
        20   0             -322.56         7.8968705      6.155449       11.379713      6.155449      -1.1714813e-11  1.1863317e-11  2.7449687e-11  8.1000093      12.149892      16.200019      1594.3126    
        21   0             -322.56         7.8968705      6.155449       11.379713      6.155449      -5.6626442e-12  7.2388113e-12 -1.4490143e-11  8.1000093      12.149892      16.200019      1594.3126    
        22   0             -322.56         7.8968705      6.155449       11.379713      6.155449       1.8159167e-12 -5.3540742e-14 -5.205434e-12   8.1000093      12.149892      16.200019      1594.3126    
        23   0             -322.56         7.8968705      6.155449       11.379713      6.155449       4.7903856e-12 -9.5584451e-14  9.2916823e-12  8.1000093      12.149892      16.200019      1594.3126    
        24   0             -322.56         7.8968705      6.155449       11.379713      6.155449       4.6800737e-12 -3.6409813e-12 -1.1327833e-11  8.1000093      12.149892      16.200019      1594.3126    
        25   0             -322.56         7.8968705      6.155449       11.379713      6.155449       6.2485031e-12  8.851288e-12  -2.3677229e-11  8.1000093      12.149892      16.200019      1594.3126    
        26   0             -322.56         7.8968705      6.155449       11.379713      6.155449       5.3996958e-14  2.4454922e-12  1.7526937e-11  8.1000093      12.149892      16.200019      1594.3126    
        27   0             -322.56         7.8968705      6.155449       11.379713      6.155449      -9.275887e-12  -1.8415924e-12  1.9671171e-11  8.1000093      12.149892      16.200019      1594.3126    
Loop time of 0.007529 on 1 procs for 25 steps with 96 atoms

0.0% CPU use with 1 MPI tasks x 1 OpenMP threads

Minimization stats:
  Stopping criterion = force tolerance
  Energy initial, next-to-last, final = 
     -322.559998786503  -322.559998809023  -322.559998809027
  Force two-norm initial, final = 0.00051426995 5.7469828e-11
  Force max component initial, final = 7.9679999e-05 8.6382082e-12
  Final line search alpha, max atom move = 1 8.6382082e-12
  Iterations, force evaluations = 25 50

MPI task timing breakdown:
Section |  min time  |  avg time  |  max time  |%varavg| %total
---------------------------------------------------------------
Pair    | 0.007038   | 0.007038   | 0.007038   |   0.0 | 93.48
Neigh   | 0          | 0          | 0          |   0.0 |  0.00
Comm    | 0.000154   | 0.000154   | 0.000154   |   0.0 |  2.05
Output  | 0.000223   | 0.000223   | 0.000223   |   0.0 |  2.96
Modify  | 0          | 0          | 0          |   0.0 |  0.00
Other   |            | 0.000114   |            |       |  1.51

Nlocal:             96 ave          96 max          96 min
Histogram: 1 0 0 0 0 0 0 0 0 0
Nghost:            976 ave         976 max         976 min
Histogram: 1 0 0 0 0 0 0 0 0 0
Neighs:           4128 ave        4128 max        4128 min
Histogram: 1 0 0 0 0 0 0 0 0 0

Total # of neighbors = 4128
Ave neighs/atom = 43
Neighbor list builds = 0
Dangerous builds = 0
OMP_NUM_THREADS environment is not set. Defaulting to 1 thread. (src/comm.cpp:98)
  using 1 OpenMP thread(s) per MPI task
Loaded 1 plugins from F:\Lammps\LAMMPS 64-bit 2Aug2023\plugins

The 'box' command has been removed and will be ignored

Reading restart file ...
  restart file = 2 Aug 2023, LAMMPS = 2 Aug 2023
  restoring atom style atomic from restart
  triclinic box = (-4.6617854e-06 -6.9926781e-06 -9.3235709e-06) to (8.1000047 12.150007 16.200009) with tilt (0 0 0)
  1 by 1 by 1 MPI processor grid
  pair style eam/alloy stores no restart info
  96 atoms
  read_restart CPU = 0.000 seconds
Changing box ...
  triclinic box = (-4.6617854e-06 -6.9926781e-06 -9.3235709e-06) to (8.1000047 12.150128 16.200009) with tilt (0 0 0)
  triclinic box = (-4.6617854e-06 -6.9926781e-06 -9.3235709e-06) to (8.1000047 12.150128 16.200009) with tilt (0 0 0)
Neighbor list info ...
  update: every = 1 steps, delay = 0 steps, check = yes
  max neighbors/atom: 2000, page size: 100000
  master list distance cutoff = 7.28721
  ghost atom cutoff = 7.28721
  1 neighbor lists, perpetual/occasional/extra = 1 0 0
  (1) pair eam/alloy, perpetual
      attributes: half, newton on
      pair build: half/nsq/newton
      stencil: none
      bin: none
Setting up cg style minimization ...
  Unit style    : metal
  Current step  : 2
Per MPI rank memory allocation (min/avg/max) = 4.447 | 4.447 | 4.447 Mbytes
   Step          Temp          PotEng         Press           Pxx            Pyy            Pzz            Pxy            Pxz            Pyz             Lx             Ly             Lz           Volume    
         2   0             -322.56        -7.8967592     -6.1554437     -11.379394     -6.1554404      7.9805676e-07  3.198488e-06   1.7201362e-06  8.1000093      12.150135      16.200019      1594.3444    
         3   0             -322.56        -7.8967826     -6.1554662     -11.379416     -6.1554657     -2.577121e-07  -5.3882946e-07 -4.4542255e-07  8.1000093      12.150135      16.200019      1594.3444    
         4   0             -322.56        -7.8967856     -6.1554693     -11.379419     -6.1554691     -9.835789e-08   9.4876268e-08  8.8509063e-08  8.1000093      12.150135      16.200019      1594.3444    
         5   0             -322.56        -7.8967863     -6.1554699     -11.379419     -6.1554699     -2.7294749e-08 -5.089432e-09   1.0730723e-08  8.1000093      12.150135      16.200019      1594.3444    
         6   0             -322.56        -7.8967864     -6.1554701     -11.379419     -6.15547       -4.4654374e-08 -1.5697837e-09  2.0756157e-09  8.1000093      12.150135      16.200019      1594.3444    
         7   0             -322.56        -7.8967864     -6.1554701     -11.379419     -6.1554701     -2.9816436e-08  9.2701808e-10 -4.6062812e-10  8.1000093      12.150135      16.200019      1594.3444    
         8   0             -322.56        -7.8967865     -6.1554701     -11.379419     -6.1554701     -1.5074347e-08 -1.0795392e-09 -1.7745538e-10  8.1000093      12.150135      16.200019      1594.3444    
         9   0             -322.56        -7.8967865     -6.1554701     -11.379419     -6.1554701     -6.8487745e-09 -1.9669938e-10 -5.2314786e-10  8.1000093      12.150135      16.200019      1594.3444    
        10   0             -322.56        -7.8967865     -6.1554701     -11.379419     -6.1554701     -2.2977728e-09  5.2420792e-10 -4.1655888e-10  8.1000093      12.150135      16.200019      1594.3444    
        11   0             -322.56        -7.8967865     -6.1554701     -11.379419     -6.1554701     -6.7801379e-10  4.432641e-11  -7.3223268e-11  8.1000093      12.150135      16.200019      1594.3444    
        12   0             -322.56        -7.8967865     -6.1554701     -11.379419     -6.1554701     -3.0271222e-10  1.3909921e-11  1.1306688e-11  8.1000093      12.150135      16.200019      1594.3444    
        13   0             -322.56        -7.8967865     -6.1554701     -11.379419     -6.1554701     -8.8791443e-12  1.5512367e-12  1.8007722e-11  8.1000093      12.150135      16.200019      1594.3444    
        14   0             -322.56        -7.8967865     -6.1554701     -11.379419     -6.1554701     -7.5546095e-12 -2.5215047e-12 -2.9077329e-12  8.1000093      12.150135      16.200019      1594.3444    
        15   0             -322.56        -7.8967865     -6.1554701     -11.379419     -6.1554701     -5.8995837e-12 -1.2878629e-11  3.0994898e-12  8.1000093      12.150135      16.200019      1594.3444    
        16   0             -322.56        -7.8967865     -6.1554701     -11.379419     -6.1554701     -1.4990913e-12  1.0207877e-12 -1.8314533e-11  8.1000093      12.150135      16.200019      1594.3444    
        17   0             -322.56        -7.8967865     -6.1554701     -11.379419     -6.1554701     -4.6330697e-12  6.3082102e-12 -5.7527089e-12  8.1000093      12.150135      16.200019      1594.3444    
        18   0             -322.56        -7.8967865     -6.1554701     -11.379419     -6.1554701     -1.7696988e-12  1.3687945e-11 -9.6994159e-12  8.1000093      12.150135      16.200019      1594.3444    
        19   0             -322.56        -7.8967865     -6.1554701     -11.379419     -6.1554701     -4.5712357e-12  4.2824963e-12  4.9368702e-12  8.1000093      12.150135      16.200019      1594.3444    
        20   0             -322.56        -7.8967865     -6.1554701     -11.379419     -6.1554701      1.2016487e-11  1.4196959e-12  1.2900014e-13  8.1000093      12.150135      16.200019      1594.3444    
        21   0             -322.56        -7.8967865     -6.1554701     -11.379419     -6.1554701      4.2741465e-12 -1.89322e-11    1.1491472e-11  8.1000093      12.150135      16.200019      1594.3444    
        22   0             -322.56        -7.8967865     -6.1554701     -11.379419     -6.1554701     -3.8102149e-12 -5.2352627e-12 -1.9332588e-11  8.1000093      12.150135      16.200019      1594.3444    
        23   0             -322.56        -7.8967865     -6.1554701     -11.379419     -6.1554701      1.6999088e-11  1.4788638e-12  3.3958415e-12  8.1000093      12.150135      16.200019      1594.3444    
        24   0             -322.56        -7.8967865     -6.1554701     -11.379419     -6.1554701      1.0830275e-11  2.1516613e-12 -1.8171587e-11  8.1000093      12.150135      16.200019      1594.3444    
        25   0             -322.56        -7.8967865     -6.1554701     -11.379419     -6.1554701      7.6367834e-12 -7.5574248e-12 -8.8661447e-12  8.1000093      12.150135      16.200019      1594.3444    
        26   0             -322.56        -7.8967865     -6.1554701     -11.379419     -6.1554701     -1.7439248e-11 -4.2358549e-12  1.0386254e-11  8.1000093      12.150135      16.200019      1594.3444    
        27   0             -322.56        -7.8967865     -6.1554701     -11.379419     -6.1554701     -4.4097883e-12  1.7131285e-11 -4.6997889e-12  8.1000093      12.150135      16.200019      1594.3444    
Loop time of 0.007135 on 1 procs for 25 steps with 96 atoms

0.0% CPU use with 1 MPI tasks x 1 OpenMP threads

Minimization stats:
  Stopping criterion = force tolerance
  Energy initial, next-to-last, final = 
     -322.559998786504  -322.559998809025  -322.559998809026
  Force two-norm initial, final = 0.00051425514 5.715359e-11
  Force max component initial, final = 7.9676578e-05 9.3982877e-12
  Final line search alpha, max atom move = 1 9.3982877e-12
  Iterations, force evaluations = 25 50

MPI task timing breakdown:
Section |  min time  |  avg time  |  max time  |%varavg| %total
---------------------------------------------------------------
Pair    | 0.00668    | 0.00668    | 0.00668    |   0.0 | 93.62
Neigh   | 0          | 0          | 0          |   0.0 |  0.00
Comm    | 0.000142   | 0.000142   | 0.000142   |   0.0 |  1.99
Output  | 0.000213   | 0.000213   | 0.000213   |   0.0 |  2.99
Modify  | 0          | 0          | 0          |   0.0 |  0.00
Other   |            | 0.0001     |            |       |  1.40

Nlocal:             96 ave          96 max          96 min
Histogram: 1 0 0 0 0 0 0 0 0 0
Nghost:            976 ave         976 max         976 min
Histogram: 1 0 0 0 0 0 0 0 0 0
Neighs:           4128 ave        4128 max        4128 min
Histogram: 1 0 0 0 0 0 0 0 0 0

Total # of neighbors = 4128
Ave neighs/atom = 43
Neighbor list builds = 0
Dangerous builds = 0
OMP_NUM_THREADS environment is not set. Defaulting to 1 thread. (src/comm.cpp:98)
  using 1 OpenMP thread(s) per MPI task
Loaded 1 plugins from F:\Lammps\LAMMPS 64-bit 2Aug2023\plugins

The 'box' command has been removed and will be ignored

Reading restart file ...
  restart file = 2 Aug 2023, LAMMPS = 2 Aug 2023
  restoring atom style atomic from restart
  triclinic box = (-4.6617854e-06 -6.9926781e-06 -9.3235709e-06) to (8.1000047 12.150007 16.200009) with tilt (0 0 0)
  1 by 1 by 1 MPI processor grid
  pair style eam/alloy stores no restart info
  96 atoms
  read_restart CPU = 0.000 seconds
Changing box ...
  triclinic box = (-4.6617854e-06 -6.9926781e-06 -9.3235709e-06) to (8.1000047 12.150007 16.199847) with tilt (0 0 0)
Neighbor list info ...
  update: every = 1 steps, delay = 0 steps, check = yes
  max neighbors/atom: 2000, page size: 100000
  master list distance cutoff = 7.28721
  ghost atom cutoff = 7.28721
  1 neighbor lists, perpetual/occasional/extra = 1 0 0
  (1) pair eam/alloy, perpetual
      attributes: half, newton on
      pair build: half/nsq/newton
      stencil: none
      bin: none
Setting up cg style minimization ...
  Unit style    : metal
  Current step  : 2
Per MPI rank memory allocation (min/avg/max) = 4.447 | 4.447 | 4.447 Mbytes
   Step          Temp          PotEng         Press           Pxx            Pyy            Pzz            Pxy            Pxz            Pyz             Lx             Ly             Lz           Volume    
         2   0             -322.56         7.896896       6.1554737      6.1554729      11.379741      7.9923971e-07  3.1982048e-06  1.7196557e-06  8.1000093      12.150014      16.199857      1594.3126    
         3   0             -322.56         7.8968742      6.1554528      6.1554522      11.379718     -2.5746378e-07 -5.3860877e-07 -4.4534149e-07  8.1000093      12.150014      16.199857      1594.3126    
         4   0             -322.56         7.8968713      6.1554498      6.1554496      11.379714     -9.8343121e-08  9.4910374e-08  8.8439791e-08  8.1000093      12.150014      16.199857      1594.3126    
         5   0             -322.56         7.8968706      6.1554492      6.1554491      11.379714     -2.7310729e-08 -5.086399e-09   1.0748165e-08  8.1000093      12.150014      16.199857      1594.3126    
         6   0             -322.56         7.8968705      6.155449       6.1554491      11.379713     -4.4657e-08    -1.5735924e-09  2.0494104e-09  8.1000093      12.150014      16.199857      1594.3126    
         7   0             -322.56         7.8968705      6.155449       6.155449       11.379713     -2.9800412e-08  9.2015254e-10 -4.3886028e-10  8.1000093      12.150014      16.199857      1594.3126    
         8   0             -322.56         7.8968705      6.155449       6.155449       11.379713     -1.5073511e-08 -1.0518353e-09 -1.7875942e-10  8.1000093      12.150014      16.199857      1594.3126    
         9   0             -322.56         7.8968705      6.155449       6.155449       11.379713     -6.8435554e-09 -2.0375156e-10 -5.4262379e-10  8.1000093      12.150014      16.199857      1594.3126    
        10   0             -322.56         7.8968705      6.155449       6.155449       11.379713     -2.2825173e-09  5.2689637e-10 -4.10525e-10    8.1000093      12.150014      16.199857      1594.3126    
        11   0             -322.56         7.8968705      6.155449       6.155449       11.379713     -6.9663263e-10  3.8190345e-11 -9.2100968e-11  8.1000093      12.150014      16.199857      1594.3126    
        12   0             -322.56         7.8968705      6.155449       6.155449       11.379713     -3.0744788e-10  1.1934112e-11  5.5910476e-11  8.1000093      12.150014      16.199857      1594.3126    
        13   0             -322.56         7.8968705      6.155449       6.155449       11.379713     -1.7646528e-11  5.1837473e-12  1.6285722e-11  8.1000093      12.150014      16.199857      1594.3126    
        14   0             -322.56         7.8968705      6.155449       6.155449       11.379713     -2.5741376e-11 -2.5021817e-11 -1.4315815e-11  8.1000093      12.150014      16.199857      1594.3126    
        15   0             -322.56         7.8968705      6.155449       6.155449       11.379713     -6.6765905e-12  6.7816862e-12 -1.5096805e-11  8.1000093      12.150014      16.199857      1594.3126    
        16   0             -322.56         7.8968705      6.155449       6.155449       11.379713     -4.0387982e-12 -9.495557e-12  -6.7464936e-12  8.1000093      12.150014      16.199857      1594.3126    
        17   0             -322.56         7.8968705      6.155449       6.155449       11.379713     -8.3571882e-12  2.3718586e-11 -9.3997657e-12  8.1000093      12.150014      16.199857      1594.3126    
        18   0             -322.56         7.8968705      6.155449       6.155449       11.379713      1.2064178e-11  2.0783005e-11  5.6830928e-13  8.1000093      12.150014      16.199857      1594.3126    
        19   0             -322.56         7.8968705      6.155449       6.155449       11.379713      9.9105967e-12  3.3054471e-12  1.9200486e-11  8.1000093      12.150014      16.199857      1594.3126    
        20   0             -322.56         7.8968705      6.155449       6.155449       11.379713      1.8505766e-11 -1.8627973e-11 -8.9744054e-12  8.1000093      12.150014      16.199857      1594.3126    
        21   0             -322.56         7.8968705      6.155449       6.155449       11.379713     -1.3557009e-11 -1.9608078e-11  8.7268596e-12  8.1000093      12.150014      16.199857      1594.3126    
        22   0             -322.56         7.8968705      6.155449       6.155449       11.379713     -7.89765e-12   -6.9335843e-12 -1.4685391e-11  8.1000093      12.150014      16.199857      1594.3126    
        23   0             -322.56         7.8968705      6.155449       6.155449       11.379713      4.1642957e-12 -1.9583419e-12 -5.0311061e-12  8.1000093      12.150014      16.199857      1594.3126    
        24   0             -322.56         7.8968705      6.155449       6.155449       11.379713     -4.2101268e-12  2.1674486e-11  3.0625943e-11  8.1000093      12.150014      16.199857      1594.3126    
        25   0             -322.56         7.8968705      6.155449       6.155449       11.379713      2.3727694e-12  6.3508537e-13 -1.3695208e-11  8.1000093      12.150014      16.199857      1594.3126    
        26   0             -322.56         7.8968705      6.155449       6.155449       11.379713      4.8103342e-12  1.7194156e-13  2.7407848e-11  8.1000093      12.150014      16.199857      1594.3126    
        27   0             -322.56         7.8968705      6.155449       6.155449       11.379713     -6.2747445e-12  5.4345026e-12  1.0072672e-11  8.1000093      12.150014      16.199857      1594.3126    
Loop time of 0.007176 on 1 procs for 25 steps with 96 atoms

217.7% CPU use with 1 MPI tasks x 1 OpenMP threads

Minimization stats:
  Stopping criterion = force tolerance
  Energy initial, next-to-last, final = 
     -322.559998786503  -322.559998809024  -322.559998809024
  Force two-norm initial, final = 0.00051427048 5.642839e-11
  Force max component initial, final = 7.9679525e-05 9.6196107e-12
  Final line search alpha, max atom move = 1 9.6196107e-12
  Iterations, force evaluations = 25 50

MPI task timing breakdown:
Section |  min time  |  avg time  |  max time  |%varavg| %total
---------------------------------------------------------------
Pair    | 0.006709   | 0.006709   | 0.006709   |   0.0 | 93.49
Neigh   | 0          | 0          | 0          |   0.0 |  0.00
Comm    | 0.000136   | 0.000136   | 0.000136   |   0.0 |  1.90
Output  | 0.000225   | 0.000225   | 0.000225   |   0.0 |  3.14
Modify  | 0          | 0          | 0          |   0.0 |  0.00
Other   |            | 0.000106   |            |       |  1.48

Nlocal:             96 ave          96 max          96 min
Histogram: 1 0 0 0 0 0 0 0 0 0
Nghost:            976 ave         976 max         976 min
Histogram: 1 0 0 0 0 0 0 0 0 0
Neighs:           4128 ave        4128 max        4128 min
Histogram: 1 0 0 0 0 0 0 0 0 0

Total # of neighbors = 4128
Ave neighs/atom = 43
Neighbor list builds = 0
Dangerous builds = 0
OMP_NUM_THREADS environment is not set. Defaulting to 1 thread. (src/comm.cpp:98)
  using 1 OpenMP thread(s) per MPI task
Loaded 1 plugins from F:\Lammps\LAMMPS 64-bit 2Aug2023\plugins

The 'box' command has been removed and will be ignored

Reading restart file ...
  restart file = 2 Aug 2023, LAMMPS = 2 Aug 2023
  restoring atom style atomic from restart
  triclinic box = (-4.6617854e-06 -6.9926781e-06 -9.3235709e-06) to (8.1000047 12.150007 16.200009) with tilt (0 0 0)
  1 by 1 by 1 MPI processor grid
  pair style eam/alloy stores no restart info
  96 atoms
  read_restart CPU = 0.000 seconds
Changing box ...
  triclinic box = (-4.6617854e-06 -6.9926781e-06 -9.3235709e-06) to (8.1000047 12.150007 16.200171) with tilt (0 0 0)
Neighbor list info ...
  update: every = 1 steps, delay = 0 steps, check = yes
  max neighbors/atom: 2000, page size: 100000
  master list distance cutoff = 7.28721
  ghost atom cutoff = 7.28721
  1 neighbor lists, perpetual/occasional/extra = 1 0 0
  (1) pair eam/alloy, perpetual
      attributes: half, newton on
      pair build: half/nsq/newton
      stencil: none
      bin: none
Setting up cg style minimization ...
  Unit style    : metal
  Current step  : 2
Per MPI rank memory allocation (min/avg/max) = 4.447 | 4.447 | 4.447 Mbytes
   Step          Temp          PotEng         Press           Pxx            Pyy            Pzz            Pxy            Pxz            Pyz             Lx             Ly             Lz           Volume    
         2   0             -322.56        -7.8967592     -6.1554437     -6.1554445     -11.379389      7.9813091e-07  3.1984509e-06  1.7200833e-06  8.1000093      12.150014      16.200181      1594.3444    
         3   0             -322.56        -7.8967826     -6.1554662     -6.1554668     -11.379415     -2.5764678e-07 -5.3886083e-07 -4.4541637e-07  8.1000093      12.150014      16.200181      1594.3444    
         4   0             -322.56        -7.8967856     -6.1554693     -6.1554694     -11.379418     -9.8380385e-08  9.4871841e-08  8.8506288e-08  8.1000093      12.150014      16.200181      1594.3444    
         5   0             -322.56        -7.8967863     -6.1554699     -6.15547       -11.379419     -2.7296364e-08 -5.1160924e-09  1.0761066e-08  8.1000093      12.150014      16.200181      1594.3444    
         6   0             -322.56        -7.8967864     -6.1554701     -6.15547       -11.379419     -4.4657633e-08 -1.5833066e-09  2.0982256e-09  8.1000093      12.150014      16.200181      1594.3444    
         7   0             -322.56        -7.8967864     -6.1554701     -6.1554701     -11.379419     -2.980786e-08   9.2662563e-10 -4.4362451e-10  8.1000093      12.150014      16.200181      1594.3444    
         8   0             -322.56        -7.8967865     -6.1554701     -6.1554701     -11.379419     -1.5048245e-08 -1.0527514e-09 -1.7286019e-10  8.1000093      12.150014      16.200181      1594.3444    
         9   0             -322.56        -7.8967865     -6.1554701     -6.1554701     -11.379419     -6.8419201e-09 -2.3593564e-10 -5.4290929e-10  8.1000093      12.150014      16.200181      1594.3444    
        10   0             -322.56        -7.8967865     -6.1554701     -6.1554701     -11.379419     -2.2665536e-09  5.109632e-10  -3.9742502e-10  8.1000093      12.150014      16.200181      1594.3444    
        11   0             -322.56        -7.8967865     -6.1554701     -6.1554701     -11.379419     -6.6681148e-10  2.8060772e-11 -7.7853327e-11  8.1000093      12.150014      16.200181      1594.3444    
        12   0             -322.56        -7.8967865     -6.1554701     -6.1554701     -11.379419     -2.9043882e-10  1.913891e-11   2.5820947e-11  8.1000093      12.150014      16.200181      1594.3444    
        13   0             -322.56        -7.8967865     -6.1554701     -6.1554701     -11.379419     -5.0638545e-12  2.1596372e-11  2.8610139e-11  8.1000093      12.150014      16.200181      1594.3444    
        14   0             -322.56        -7.8967865     -6.1554701     -6.1554701     -11.379419     -2.3778908e-12  1.3132775e-12  4.4975724e-12  8.1000093      12.150014      16.200181      1594.3444    
        15   0             -322.56        -7.8967865     -6.1554701     -6.1554701     -11.379419     -4.7166393e-12  4.0478169e-12 -1.060939e-11   8.1000093      12.150014      16.200181      1594.3444    
        16   0             -322.56        -7.8967865     -6.1554701     -6.1554701     -11.379419     -9.859368e-12  -9.7872262e-13 -2.4823811e-12  8.1000093      12.150014      16.200181      1594.3444    
        17   0             -322.56        -7.8967865     -6.1554701     -6.1554701     -11.379419      8.5141094e-12 -1.9600337e-11  1.9315156e-11  8.1000093      12.150014      16.200181      1594.3444    
        18   0             -322.56        -7.8967865     -6.1554701     -6.1554701     -11.379419      9.5812671e-12  2.2501697e-11  1.4984935e-11  8.1000093      12.150014      16.200181      1594.3444    
        19   0             -322.56        -7.8967865     -6.1554701     -6.1554701     -11.379419      1.0075721e-11 -3.1031885e-13  1.4566556e-11  8.1000093      12.150014      16.200181      1594.3444    
        20   0             -322.56        -7.8967865     -6.1554701     -6.1554701     -11.379419     -9.1887663e-13  8.7345677e-13  3.6120039e-12  8.1000093      12.150014      16.200181      1594.3444    
        21   0             -322.56        -7.8967865     -6.1554701     -6.1554701     -11.379419      5.5489164e-13  1.4999381e-11 -5.3587355e-12  8.1000093      12.150014      16.200181      1594.3444    
        22   0             -322.56        -7.8967865     -6.1554701     -6.1554701     -11.379419     -3.6508063e-12  1.6724033e-11  1.2767527e-11  8.1000093      12.150014      16.200181      1594.3444    
        23   0             -322.56        -7.8967865     -6.1554701     -6.1554701     -11.379419      3.7048068e-12 -1.5090216e-11 -4.1384639e-12  8.1000093      12.150014      16.200181      1594.3444    
        24   0             -322.56        -7.8967865     -6.1554701     -6.1554701     -11.379419      3.9446139e-12 -5.9492712e-12  1.9775373e-11  8.1000093      12.150014      16.200181      1594.3444    
        25   0             -322.56        -7.8967865     -6.1554701     -6.1554701     -11.379419      3.2408842e-12  9.7258502e-12 -1.0968498e-11  8.1000093      12.150014      16.200181      1594.3444    
        26   0             -322.56        -7.8967865     -6.1554701     -6.1554701     -11.379419     -2.1791786e-12  1.9602444e-11 -6.066493e-12   8.1000093      12.150014      16.200181      1594.3444    
        27   0             -322.56        -7.8967865     -6.1554701     -6.1554701     -11.379419     -6.367156e-12   3.7941296e-11  3.7026526e-12  8.1000093      12.150014      16.200181      1594.3444    
Loop time of 0.007114 on 1 procs for 25 steps with 96 atoms

219.6% CPU use with 1 MPI tasks x 1 OpenMP threads

Minimization stats:
  Stopping criterion = force tolerance
  Energy initial, next-to-last, final = 
     -322.559998786504  -322.559998809025  -322.559998809027
  Force two-norm initial, final = 0.00051425461 5.6738165e-11
  Force max component initial, final = 7.9677053e-05 8.7349252e-12
  Final line search alpha, max atom move = 1 8.7349252e-12
  Iterations, force evaluations = 25 50

MPI task timing breakdown:
Section |  min time  |  avg time  |  max time  |%varavg| %total
---------------------------------------------------------------
Pair    | 0.006658   | 0.006658   | 0.006658   |   0.0 | 93.59
Neigh   | 0          | 0          | 0          |   0.0 |  0.00
Comm    | 0.000142   | 0.000142   | 0.000142   |   0.0 |  2.00
Output  | 0.000209   | 0.000209   | 0.000209   |   0.0 |  2.94
Modify  | 0          | 0          | 0          |   0.0 |  0.00
Other   |            | 0.000105   |            |       |  1.48

Nlocal:             96 ave          96 max          96 min
Histogram: 1 0 0 0 0 0 0 0 0 0
Nghost:            976 ave         976 max         976 min
Histogram: 1 0 0 0 0 0 0 0 0 0
Neighs:           4128 ave        4128 max        4128 min
Histogram: 1 0 0 0 0 0 0 0 0 0

Total # of neighbors = 4128
Ave neighs/atom = 43
Neighbor list builds = 0
Dangerous builds = 0
OMP_NUM_THREADS environment is not set. Defaulting to 1 thread. (src/comm.cpp:98)
  using 1 OpenMP thread(s) per MPI task
Loaded 1 plugins from F:\Lammps\LAMMPS 64-bit 2Aug2023\plugins

The 'box' command has been removed and will be ignored

Reading restart file ...
  restart file = 2 Aug 2023, LAMMPS = 2 Aug 2023
  restoring atom style atomic from restart
  triclinic box = (-4.6617854e-06 -6.9926781e-06 -9.3235709e-06) to (8.1000047 12.150007 16.200009) with tilt (0 0 0)
  1 by 1 by 1 MPI processor grid
  pair style eam/alloy stores no restart info
  96 atoms
  read_restart CPU = 0.000 seconds
Changing box ...
  triclinic box = (-4.6617854e-06 -6.9926781e-06 -9.3235709e-06) to (8.1000047 12.150007 16.200009) with tilt (0 0 -0.00016200019)
Neighbor list info ...
  update: every = 1 steps, delay = 0 steps, check = yes
  max neighbors/atom: 2000, page size: 100000
  master list distance cutoff = 7.28721
  ghost atom cutoff = 7.28721
  1 neighbor lists, perpetual/occasional/extra = 1 0 0
  (1) pair eam/alloy, perpetual
      attributes: half, newton on
      pair build: half/nsq/newton
      stencil: none
      bin: none
Setting up cg style minimization ...
  Unit style    : metal
  Current step  : 2
Per MPI rank memory allocation (min/avg/max) = 4.447 | 4.447 | 4.447 Mbytes
   Step          Temp          PotEng         Press           Pxx            Pyy            Pzz            Pxy            Pxz            Pyz             Lx             Ly             Lz           Volume    
         2   0             -322.56         4.2163355e-05  5.0133633e-05  1.757625e-05   5.8780181e-05  7.9863869e-07  3.1983936e-06  3.1594592      8.1000093      12.150014      16.200019      1594.3285    
         3   0             -322.56         2.0370754e-05  2.9269076e-05 -3.1755732e-06  3.501876e-05  -2.5758154e-07 -5.386889e-07   3.1594571      8.1000093      12.150014      16.200019      1594.3285    
         4   0             -322.56         1.7424635e-05  2.6286567e-05 -5.7195572e-06  3.1706895e-05 -9.8345451e-08  9.4905555e-08  3.1594576      8.1000093      12.150014      16.200019      1594.3285    
         5   0             -322.56         1.6793161e-05  2.5651783e-05 -6.2158548e-06  3.0943554e-05 -2.7290601e-08 -5.105615e-09   3.1594575      8.1000093      12.150014      16.200019      1594.3285    
         6   0             -322.56         1.6665196e-05  2.5504077e-05 -6.3026202e-06  3.0794133e-05 -4.4650538e-08 -1.5832447e-09  3.1594575      8.1000093      12.150014      16.200019      1594.3285    
         7   0             -322.56         1.6636146e-05  2.5484353e-05 -6.3330592e-06  3.0757145e-05 -2.9812327e-08  9.4245993e-10  3.1594575      8.1000093      12.150014      16.200019      1594.3285    
         8   0             -322.56         1.6619465e-05  2.5472469e-05 -6.3504147e-06  3.0736341e-05 -1.5068474e-08 -1.0636666e-09  3.1594575      8.1000093      12.150014      16.200019      1594.3285    
         9   0             -322.56         1.6608626e-05  2.5463251e-05 -6.3577238e-06  3.0720351e-05 -6.8532471e-09 -1.9870051e-10  3.1594575      8.1000093      12.150014      16.200019      1594.3285    
        10   0             -322.56         1.660275e-05   2.5457487e-05 -6.360274e-06   3.0711037e-05 -2.273053e-09   5.0979803e-10  3.1594575      8.1000093      12.150014      16.200019      1594.3285    
        11   0             -322.56         1.6600534e-05  2.5455668e-05 -6.3614396e-06  3.0707374e-05 -6.8399334e-10  3.1554562e-11  3.1594575      8.1000093      12.150014      16.200019      1594.3285    
        12   0             -322.56         1.6599795e-05  2.5455046e-05 -6.362095e-06   3.0706435e-05 -2.7168992e-10  2.1612372e-11  3.1594575      8.1000093      12.150014      16.200019      1594.3285    
        13   0             -322.56         1.659942e-05   2.5454816e-05 -6.3625747e-06  3.0706019e-05 -2.9462097e-11  1.5821841e-11  3.1594575      8.1000093      12.150014      16.200019      1594.3285    
        14   0             -322.56         1.6599309e-05  2.545471e-05  -6.3626746e-06  3.0705892e-05  6.4077175e-12 -1.1643394e-12  3.1594575      8.1000093      12.150014      16.200019      1594.3285    
        15   0             -322.56         1.6599225e-05  2.5454659e-05 -6.3627796e-06  3.0705796e-05 -6.5574613e-12  6.0989483e-12  3.1594575      8.1000093      12.150014      16.200019      1594.3285    
        16   0             -322.56         1.6599232e-05  2.5454653e-05 -6.3627761e-06  3.0705818e-05 -1.3894681e-11  1.7978607e-11  3.1594575      8.1000093      12.150014      16.200019      1594.3285    
        17   0             -322.56         1.6599241e-05  2.545466e-05  -6.3627394e-06  3.0705802e-05  1.6492571e-11 -3.319014e-12   3.1594575      8.1000093      12.150014      16.200019      1594.3285    
        18   0             -322.56         1.6599192e-05  2.5454612e-05 -6.3628014e-06  3.0705766e-05  8.7928557e-12 -5.333544e-12   3.1594575      8.1000093      12.150014      16.200019      1594.3285    
        19   0             -322.56         1.6599248e-05  2.5454658e-05 -6.3627629e-06  3.0705849e-05  7.5677887e-12 -7.2992033e-12  3.1594575      8.1000093      12.150014      16.200019      1594.3285    
        20   0             -322.56         1.6599256e-05  2.5454673e-05 -6.3627485e-06  3.0705843e-05 -2.0396442e-12  8.0225924e-12  3.1594575      8.1000093      12.150014      16.200019      1594.3285    
        21   0             -322.56         1.6599176e-05  2.5454589e-05 -6.3628015e-06  3.070574e-05   1.0288532e-11 -1.3912253e-11  3.1594575      8.1000093      12.150014      16.200019      1594.3285    
        22   0             -322.56         1.6599235e-05  2.5454676e-05 -6.3627637e-06  3.0705793e-05 -2.8465388e-12 -3.2074248e-12  3.1594575      8.1000093      12.150014      16.200019      1594.3285    
        23   0             -322.56         1.6599193e-05  2.5454596e-05 -6.3627786e-06  3.0705761e-05 -1.793112e-12   6.357945e-13   3.1594575      8.1000093      12.150014      16.200019      1594.3285    
        24   0             -322.56         1.659922e-05   2.5454627e-05 -6.3627495e-06  3.0705781e-05  3.0903104e-12  2.5673744e-13  3.1594575      8.1000093      12.150014      16.200019      1594.3285    
        25   0             -322.56         1.6599213e-05  2.5454619e-05 -6.3628006e-06  3.0705821e-05  9.8726635e-12 -1.3736523e-11  3.1594575      8.1000093      12.150014      16.200019      1594.3285    
        26   0             -322.56         1.6599223e-05  2.5454655e-05 -6.3627869e-06  3.07058e-05    1.6879955e-11 -2.960636e-12   3.1594575      8.1000093      12.150014      16.200019      1594.3285    
        27   0             -322.56         1.6599239e-05  2.5454676e-05 -6.362776e-06   3.0705817e-05  8.4023545e-12 -5.2623113e-12  3.1594575      8.1000093      12.150014      16.200019      1594.3285    
Loop time of 0.007376 on 1 procs for 25 steps with 96 atoms

0.0% CPU use with 1 MPI tasks x 1 OpenMP threads

Minimization stats:
  Stopping criterion = force tolerance
  Energy initial, next-to-last, final = 
     -322.559998827404  -322.559998849922  -322.559998849925
  Force two-norm initial, final = 0.0005142633 7.252728e-11
  Force max component initial, final = 7.9678062e-05 1.2558884e-11
  Final line search alpha, max atom move = 1 1.2558884e-11
  Iterations, force evaluations = 25 50

MPI task timing breakdown:
Section |  min time  |  avg time  |  max time  |%varavg| %total
---------------------------------------------------------------
Pair    | 0.006908   | 0.006908   | 0.006908   |   0.0 | 93.66
Neigh   | 0          | 0          | 0          |   0.0 |  0.00
Comm    | 0.000135   | 0.000135   | 0.000135   |   0.0 |  1.83
Output  | 0.000223   | 0.000223   | 0.000223   |   0.0 |  3.02
Modify  | 0          | 0          | 0          |   0.0 |  0.00
Other   |            | 0.00011    |            |       |  1.49

Nlocal:             96 ave          96 max          96 min
Histogram: 1 0 0 0 0 0 0 0 0 0
Nghost:            976 ave         976 max         976 min
Histogram: 1 0 0 0 0 0 0 0 0 0
Neighs:           4128 ave        4128 max        4128 min
Histogram: 1 0 0 0 0 0 0 0 0 0

Total # of neighbors = 4128
Ave neighs/atom = 43
Neighbor list builds = 0
Dangerous builds = 0
OMP_NUM_THREADS environment is not set. Defaulting to 1 thread. (src/comm.cpp:98)
  using 1 OpenMP thread(s) per MPI task
Loaded 1 plugins from F:\Lammps\LAMMPS 64-bit 2Aug2023\plugins

The 'box' command has been removed and will be ignored

Reading restart file ...
  restart file = 2 Aug 2023, LAMMPS = 2 Aug 2023
  restoring atom style atomic from restart
  triclinic box = (-4.6617854e-06 -6.9926781e-06 -9.3235709e-06) to (8.1000047 12.150007 16.200009) with tilt (0 0 0)
  1 by 1 by 1 MPI processor grid
  pair style eam/alloy stores no restart info
  96 atoms
  read_restart CPU = 0.000 seconds
Changing box ...
  triclinic box = (-4.6617854e-06 -6.9926781e-06 -9.3235709e-06) to (8.1000047 12.150007 16.200009) with tilt (0 0 0.00016200019)
Neighbor list info ...
  update: every = 1 steps, delay = 0 steps, check = yes
  max neighbors/atom: 2000, page size: 100000
  master list distance cutoff = 7.28721
  ghost atom cutoff = 7.28721
  1 neighbor lists, perpetual/occasional/extra = 1 0 0
  (1) pair eam/alloy, perpetual
      attributes: half, newton on
      pair build: half/nsq/newton
      stencil: none
      bin: none
Setting up cg style minimization ...
  Unit style    : metal
  Current step  : 2
Per MPI rank memory allocation (min/avg/max) = 4.447 | 4.447 | 4.447 Mbytes
   Step          Temp          PotEng         Press           Pxx            Pyy            Pzz            Pxy            Pxz            Pyz             Lx             Ly             Lz           Volume    
         2   0             -322.56         4.2163904e-05  5.0134221e-05  1.7576876e-05  5.8780616e-05  7.98767e-07    3.1982509e-06 -3.1594558      8.1000093      12.150014      16.200019      1594.3285    
         3   0             -322.56         2.0370656e-05  2.9268957e-05 -3.1757273e-06  3.5018738e-05 -2.5753566e-07 -5.3875361e-07 -3.159458       8.1000093      12.150014      16.200019      1594.3285    
         4   0             -322.56         1.7424661e-05  2.6286524e-05 -5.719514e-06   3.1706974e-05 -9.8316054e-08  9.4898334e-08 -3.1594574      8.1000093      12.150014      16.200019      1594.3285    
         5   0             -322.56         1.67932e-05    2.5651829e-05 -6.2158086e-06  3.0943578e-05 -2.7301824e-08 -5.0976097e-09 -3.1594575      8.1000093      12.150014      16.200019      1594.3285    
         6   0             -322.56         1.6665248e-05  2.5504134e-05 -6.3025916e-06  3.0794202e-05 -4.4661883e-08 -1.5764819e-09 -3.1594575      8.1000093      12.150014      16.200019      1594.3285    
         7   0             -322.56         1.6636121e-05  2.5484343e-05 -6.3330824e-06  3.0757102e-05 -2.9799995e-08  9.3712986e-10 -3.1594575      8.1000093      12.150014      16.200019      1594.3285    
         8   0             -322.56         1.6619464e-05  2.5472467e-05 -6.3503933e-06  3.0736317e-05 -1.5062106e-08 -1.0439129e-09 -3.1594575      8.1000093      12.150014      16.200019      1594.3285    
         9   0             -322.56         1.6608588e-05  2.5463209e-05 -6.3577418e-06  3.0720296e-05 -6.8479034e-09 -2.1475568e-10 -3.1594575      8.1000093      12.150014      16.200019      1594.3285    
        10   0             -322.56         1.6602759e-05  2.5457519e-05 -6.3602829e-06  3.071104e-05  -2.2880554e-09  5.1398597e-10 -3.1594575      8.1000093      12.150014      16.200019      1594.3285    
        11   0             -322.56         1.6600535e-05  2.5455678e-05 -6.3614596e-06  3.0707385e-05 -6.912099e-10   3.8478291e-11 -3.1594575      8.1000093      12.150014      16.200019      1594.3285    
        12   0             -322.56         1.659983e-05   2.5455096e-05 -6.3621023e-06  3.0706498e-05 -2.9262861e-10  2.2964594e-12 -3.1594575      8.1000093      12.150014      16.200019      1594.3285    
        13   0             -322.56         1.6599468e-05  2.5454868e-05 -6.3625192e-06  3.0706055e-05 -2.6931933e-11  1.7462848e-11 -3.1594575      8.1000093      12.150014      16.200019      1594.3285    
        14   0             -322.56         1.6599318e-05  2.5454734e-05 -6.3626362e-06  3.0705856e-05 -1.5414369e-11 -1.3620343e-11 -3.1594575      8.1000093      12.150014      16.200019      1594.3285    
        15   0             -322.56         1.6599239e-05  2.5454639e-05 -6.3627382e-06  3.0705815e-05  1.2911734e-12 -1.2428041e-11 -3.1594575      8.1000093      12.150014      16.200019      1594.3285    
        16   0             -322.56         1.6599268e-05  2.5454682e-05 -6.3627073e-06  3.0705831e-05 -6.4624968e-12  2.3804815e-12 -3.1594575      8.1000093      12.150014      16.200019      1594.3285    
        17   0             -322.56         1.6599216e-05  2.5454649e-05 -6.3627793e-06  3.0705778e-05 -1.5605359e-12 -1.7006418e-11 -3.1594575      8.1000093      12.150014      16.200019      1594.3285    
        18   0             -322.56         1.6599224e-05  2.5454624e-05 -6.3627618e-06  3.0705811e-05  1.6093052e-11 -8.337993e-12  -3.1594575      8.1000093      12.150014      16.200019      1594.3285    
        19   0             -322.56         1.6599213e-05  2.5454645e-05 -6.3627844e-06  3.0705777e-05  3.4765335e-12  2.3249446e-12 -3.1594575      8.1000093      12.150014      16.200019      1594.3285    
        20   0             -322.56         1.6599245e-05  2.5454636e-05 -6.3627606e-06  3.0705858e-05 -2.7653959e-12  8.0888079e-12 -3.1594575      8.1000093      12.150014      16.200019      1594.3285    
        21   0             -322.56         1.6599254e-05  2.5454652e-05 -6.3627599e-06  3.0705869e-05  2.4567263e-12  1.3154118e-12 -3.1594575      8.1000093      12.150014      16.200019      1594.3285    
        22   0             -322.56         1.6599199e-05  2.5454625e-05 -6.3628166e-06  3.0705789e-05  2.0651558e-11 -1.0825616e-11 -3.1594575      8.1000093      12.150014      16.200019      1594.3285    
        23   0             -322.56         1.6599195e-05  2.5454617e-05 -6.3627907e-06  3.0705757e-05  6.1243292e-12 -1.4123111e-12 -3.1594575      8.1000093      12.150014      16.200019      1594.3285    
        24   0             -322.56         1.6599269e-05  2.5454679e-05 -6.3627293e-06  3.0705856e-05 -6.9569055e-12 -5.3531946e-12 -3.1594575      8.1000093      12.150014      16.200019      1594.3285    
        25   0             -322.56         1.6599203e-05  2.5454604e-05 -6.3628042e-06  3.070581e-05   6.9847511e-13 -6.6764241e-12 -3.1594575      8.1000093      12.150014      16.200019      1594.3285    
        26   0             -322.56         1.6599246e-05  2.5454643e-05 -6.3627243e-06  3.070582e-05  -1.4177593e-11  4.4965087e-12 -3.1594575      8.1000093      12.150014      16.200019      1594.3285    
        27   0             -322.56         1.659926e-05   2.5454669e-05 -6.3627406e-06  3.0705852e-05 -1.195559e-12  -4.0860611e-12 -3.1594575      8.1000093      12.150014      16.200019      1594.3285    
Loop time of 0.007086 on 1 procs for 25 steps with 96 atoms

0.0% CPU use with 1 MPI tasks x 1 OpenMP threads

Minimization stats:
  Stopping criterion = force tolerance
  Energy initial, next-to-last, final = 
     -322.559998827403  -322.559998849924  -322.559998849925
  Force two-norm initial, final = 0.00051426201 7.2419061e-11
  Force max component initial, final = 7.9678565e-05 1.440574e-11
  Final line search alpha, max atom move = 1 1.440574e-11
  Iterations, force evaluations = 25 50

MPI task timing breakdown:
Section |  min time  |  avg time  |  max time  |%varavg| %total
---------------------------------------------------------------
Pair    | 0.006631   | 0.006631   | 0.006631   |   0.0 | 93.58
Neigh   | 0          | 0          | 0          |   0.0 |  0.00
Comm    | 0.000137   | 0.000137   | 0.000137   |   0.0 |  1.93
Output  | 0.000214   | 0.000214   | 0.000214   |   0.0 |  3.02
Modify  | 0          | 0          | 0          |   0.0 |  0.00
Other   |            | 0.000104   |            |       |  1.47

Nlocal:             96 ave          96 max          96 min
Histogram: 1 0 0 0 0 0 0 0 0 0
Nghost:            976 ave         976 max         976 min
Histogram: 1 0 0 0 0 0 0 0 0 0
Neighs:           4128 ave        4128 max        4128 min
Histogram: 1 0 0 0 0 0 0 0 0 0

Total # of neighbors = 4128
Ave neighs/atom = 43
Neighbor list builds = 0
Dangerous builds = 0
OMP_NUM_THREADS environment is not set. Defaulting to 1 thread. (src/comm.cpp:98)
  using 1 OpenMP thread(s) per MPI task
Loaded 1 plugins from F:\Lammps\LAMMPS 64-bit 2Aug2023\plugins

The 'box' command has been removed and will be ignored

Reading restart file ...
  restart file = 2 Aug 2023, LAMMPS = 2 Aug 2023
  restoring atom style atomic from restart
  triclinic box = (-4.6617854e-06 -6.9926781e-06 -9.3235709e-06) to (8.1000047 12.150007 16.200009) with tilt (0 0 0)
  1 by 1 by 1 MPI processor grid
  pair style eam/alloy stores no restart info
  96 atoms
  read_restart CPU = 0.000 seconds
Changing box ...
  triclinic box = (-4.6617854e-06 -6.9926781e-06 -9.3235709e-06) to (8.1000047 12.150007 16.200009) with tilt (0 -0.00016200019 0)
Neighbor list info ...
  update: every = 1 steps, delay = 0 steps, check = yes
  max neighbors/atom: 2000, page size: 100000
  master list distance cutoff = 7.28721
  ghost atom cutoff = 7.28721
  1 neighbor lists, perpetual/occasional/extra = 1 0 0
  (1) pair eam/alloy, perpetual
      attributes: half, newton on
      pair build: half/nsq/newton
      stencil: none
      bin: none
Setting up cg style minimization ...
  Unit style    : metal
  Current step  : 2
Per MPI rank memory allocation (min/avg/max) = 4.447 | 4.447 | 4.447 Mbytes
   Step          Temp          PotEng         Press           Pxx            Pyy            Pzz            Pxy            Pxz            Pyz             Lx             Ly             Lz           Volume    
         2   0             -322.56         4.2163427e-05  1.831625e-05   4.9393798e-05  5.8780234e-05  7.9862437e-07  3.1594607      1.719945e-06   8.1000093      12.150014      16.200019      1594.3285    
         3   0             -322.56         2.0370784e-05 -2.548339e-06   2.8641852e-05  3.5018838e-05 -2.5754396e-07  3.159457      -4.4535806e-07  8.1000093      12.150014      16.200019      1594.3285    
         4   0             -322.56         1.7424645e-05 -5.5309006e-06  2.6097912e-05  3.1706923e-05 -9.8313914e-08  3.1594576      8.8464222e-08  8.1000093      12.150014      16.200019      1594.3285    
         5   0             -322.56         1.679319e-05  -6.1656368e-06  2.5601632e-05  3.0943574e-05 -2.7293339e-08  3.1594575      1.0738843e-08  8.1000093      12.150014      16.200019      1594.3285    
         6   0             -322.56         1.6665221e-05 -6.3133521e-06  2.5514843e-05  3.0794173e-05 -4.4659613e-08  3.1594575      2.0634336e-09  8.1000093      12.150014      16.200019      1594.3285    
         7   0             -322.56         1.6636164e-05 -6.3331144e-06  2.5484438e-05  3.0757168e-05 -2.9806913e-08  3.1594575     -4.4085367e-10  8.1000093      12.150014      16.200019      1594.3285    
         8   0             -322.56         1.6619478e-05 -6.3449557e-06  2.5467067e-05  3.0736322e-05 -1.5074967e-08  3.1594575     -1.720391e-10   8.1000093      12.150014      16.200019      1594.3285    
         9   0             -322.56         1.6608601e-05 -6.354229e-06   2.5459753e-05  3.0720278e-05 -6.853002e-09   3.1594575     -5.334488e-10   8.1000093      12.150014      16.200019      1594.3285    
        10   0             -322.56         1.6602735e-05 -6.3599541e-06  2.5457137e-05  3.0711023e-05 -2.2880426e-09  3.1594575     -3.8024043e-10  8.1000093      12.150014      16.200019      1594.3285    
        11   0             -322.56         1.6600542e-05 -6.3617927e-06  2.5456026e-05  3.0707393e-05 -6.9111923e-10  3.1594575     -6.9259821e-11  8.1000093      12.150014      16.200019      1594.3285    
        12   0             -322.56         1.6599802e-05 -6.3623867e-06  2.5455329e-05  3.0706463e-05 -2.9755732e-10  3.1594575      7.0358077e-12  8.1000093      12.150014      16.200019      1594.3285    
        13   0             -322.56         1.6599444e-05 -6.3626243e-06  2.5454927e-05  3.0706031e-05 -8.3171467e-12  3.1594575      2.90567e-11    8.1000093      12.150014      16.200019      1594.3285    
        14   0             -322.56         1.6599332e-05 -6.3626991e-06  2.5454805e-05  3.070589e-05  -1.7833401e-11  3.1594575     -8.3955525e-12  8.1000093      12.150014      16.200019      1594.3285    
        15   0             -322.56         1.6599237e-05 -6.3628075e-06  2.5454723e-05  3.0705795e-05 -3.7082925e-12  3.1594575     -9.6855668e-12  8.1000093      12.150014      16.200019      1594.3285    
        16   0             -322.56         1.6599233e-05 -6.3628059e-06  2.5454682e-05  3.0705822e-05  4.0884763e-12  3.1594575      8.6152036e-12  8.1000093      12.150014      16.200019      1594.3285    
        17   0             -322.56         1.6599235e-05 -6.3628065e-06  2.5454675e-05  3.0705836e-05 -6.1699443e-12  3.1594575     -5.1705167e-12  8.1000093      12.150014      16.200019      1594.3285    
        18   0             -322.56         1.6599233e-05 -6.3628134e-06  2.5454673e-05  3.070584e-05   2.4230613e-12  3.1594575     -2.5416768e-11  8.1000093      12.150014      16.200019      1594.3285    
        19   0             -322.56         1.6599234e-05 -6.3628208e-06  2.5454705e-05  3.0705817e-05 -3.0681202e-12  3.1594575     -1.6421533e-11  8.1000093      12.150014      16.200019      1594.3285    
        20   0             -322.56         1.6599248e-05 -6.3627958e-06  2.5454675e-05  3.0705865e-05 -2.2382227e-13  3.1594575      1.7056081e-11  8.1000093      12.150014      16.200019      1594.3285    
        21   0             -322.56         1.6599255e-05 -6.3627661e-06  2.5454701e-05  3.070583e-05  -1.4140659e-11  3.1594575     -1.1390478e-11  8.1000093      12.150014      16.200019      1594.3285    
        22   0             -322.56         1.659921e-05  -6.3628391e-06  2.5454682e-05  3.0705786e-05  3.7265178e-12  3.1594575      2.010679e-11   8.1000093      12.150014      16.200019      1594.3285    
        23   0             -322.56         1.65992e-05   -6.3628202e-06  2.5454657e-05  3.0705763e-05  8.1405659e-13  3.1594575      2.3830399e-11  8.1000093      12.150014      16.200019      1594.3285    
        24   0             -322.56         1.6599266e-05 -6.3627667e-06  2.5454735e-05  3.0705829e-05  1.1641175e-11  3.1594575      1.6456399e-12  8.1000093      12.150014      16.200019      1594.3285    
        25   0             -322.56         1.6599218e-05 -6.3628353e-06  2.5454679e-05  3.070581e-05   5.7888742e-12  3.1594575     -8.9778022e-12  8.1000093      12.150014      16.200019      1594.3285    
        26   0             -322.56         1.6599212e-05 -6.3628375e-06  2.5454689e-05  3.0705784e-05  3.091897e-12   3.1594575      8.5873114e-12  8.1000093      12.150014      16.200019      1594.3285    
        27   0             -322.56         1.6599237e-05 -6.3628065e-06  2.5454716e-05  3.07058e-05    3.3183973e-12  3.1594575     -3.1413591e-11  8.1000093      12.150014      16.200019      1594.3285    
Loop time of 0.00712 on 1 procs for 25 steps with 96 atoms

0.0% CPU use with 1 MPI tasks x 1 OpenMP threads

Minimization stats:
  Stopping criterion = force tolerance
  Energy initial, next-to-last, final = 
     -322.559998827403  -322.559998849923  -322.559998849924
  Force two-norm initial, final = 0.00051426372 7.2748645e-11
  Force max component initial, final = 7.9677999e-05 1.4202917e-11
  Final line search alpha, max atom move = 1 1.4202917e-11
  Iterations, force evaluations = 25 50

MPI task timing breakdown:
Section |  min time  |  avg time  |  max time  |%varavg| %total
---------------------------------------------------------------
Pair    | 0.006664   | 0.006664   | 0.006664   |   0.0 | 93.60
Neigh   | 0          | 0          | 0          |   0.0 |  0.00
Comm    | 0.000129   | 0.000129   | 0.000129   |   0.0 |  1.81
Output  | 0.000218   | 0.000218   | 0.000218   |   0.0 |  3.06
Modify  | 0          | 0          | 0          |   0.0 |  0.00
Other   |            | 0.000109   |            |       |  1.53

Nlocal:             96 ave          96 max          96 min
Histogram: 1 0 0 0 0 0 0 0 0 0
Nghost:            976 ave         976 max         976 min
Histogram: 1 0 0 0 0 0 0 0 0 0
Neighs:           4128 ave        4128 max        4128 min
Histogram: 1 0 0 0 0 0 0 0 0 0

Total # of neighbors = 4128
Ave neighs/atom = 43
Neighbor list builds = 0
Dangerous builds = 0
OMP_NUM_THREADS environment is not set. Defaulting to 1 thread. (src/comm.cpp:98)
  using 1 OpenMP thread(s) per MPI task
Loaded 1 plugins from F:\Lammps\LAMMPS 64-bit 2Aug2023\plugins

The 'box' command has been removed and will be ignored

Reading restart file ...
  restart file = 2 Aug 2023, LAMMPS = 2 Aug 2023
  restoring atom style atomic from restart
  triclinic box = (-4.6617854e-06 -6.9926781e-06 -9.3235709e-06) to (8.1000047 12.150007 16.200009) with tilt (0 0 0)
  1 by 1 by 1 MPI processor grid
  pair style eam/alloy stores no restart info
  96 atoms
  read_restart CPU = 0.000 seconds
Changing box ...
  triclinic box = (-4.6617854e-06 -6.9926781e-06 -9.3235709e-06) to (8.1000047 12.150007 16.200009) with tilt (0 0.00016200019 0)
Neighbor list info ...
  update: every = 1 steps, delay = 0 steps, check = yes
  max neighbors/atom: 2000, page size: 100000
  master list distance cutoff = 7.28721
  ghost atom cutoff = 7.28721
  1 neighbor lists, perpetual/occasional/extra = 1 0 0
  (1) pair eam/alloy, perpetual
      attributes: half, newton on
      pair build: half/nsq/newton
      stencil: none
      bin: none
Setting up cg style minimization ...
  Unit style    : metal
  Current step  : 2
Per MPI rank memory allocation (min/avg/max) = 4.447 | 4.447 | 4.447 Mbytes
[...]
        26   0             -322.56         1.6599251e-05 -6.3627843e-06  2.545471e-05   3.0705829e-05 -3.5060208e-13 -3.1594575     -9.4798618e-12  8.1000093      12.150014      16.200019      1594.3285    
        27   0             -322.56         1.6599184e-05 -6.36287e-06    2.545467e-05   3.0705751e-05 -3.5492858e-12 -3.1594575     -6.4779637e-12  8.1000093      12.150014      16.200019      1594.3285    
Loop time of 0.007049 on 1 procs for 25 steps with 96 atoms

0.0% CPU use with 1 MPI tasks x 1 OpenMP threads

Minimization stats:
  Stopping criterion = force tolerance
  Energy initial, next-to-last, final = 
     -322.559998827403  -322.559998849923  -322.559998849925
  Force two-norm initial, final = 0.00051426159 7.271152e-11
  Force max component initial, final = 7.9678628e-05 1.2387778e-11
  Final line search alpha, max atom move = 1 1.2387778e-11
  Iterations, force evaluations = 25 50

MPI task timing breakdown:
Section |  min time  |  avg time  |  max time  |%varavg| %total
---------------------------------------------------------------
Pair    | 0.00658    | 0.00658    | 0.00658    |   0.0 | 93.35
Neigh   | 0          | 0          | 0          |   0.0 |  0.00
Comm    | 0.000142   | 0.000142   | 0.000142   |   0.0 |  2.01
Output  | 0.000215   | 0.000215   | 0.000215   |   0.0 |  3.05
Modify  | 0          | 0          | 0          |   0.0 |  0.00
Other   |            | 0.000112   |            |       |  1.59

Nlocal:             96 ave          96 max          96 min
Histogram: 1 0 0 0 0 0 0 0 0 0
Nghost:            976 ave         976 max         976 min
Histogram: 1 0 0 0 0 0 0 0 0 0
Neighs:           4128 ave        4128 max        4128 min
Histogram: 1 0 0 0 0 0 0 0 0 0

Total # of neighbors = 4128
Ave neighs/atom = 43
Neighbor list builds = 0
Dangerous builds = 0
OMP_NUM_THREADS environment is not set. Defaulting to 1 thread. (src/comm.cpp:98)
  using 1 OpenMP thread(s) per MPI task
Loaded 1 plugins from F:\Lammps\LAMMPS 64-bit 2Aug2023\plugins

The 'box' command has been removed and will be ignored

Reading restart file ...
  restart file = 2 Aug 2023, LAMMPS = 2 Aug 2023
  restoring atom style atomic from restart
  triclinic box = (-4.6617854e-06 -6.9926781e-06 -9.3235709e-06) to (8.1000047 12.150007 16.200009) with tilt (0 0 0)
  1 by 1 by 1 MPI processor grid
  pair style eam/alloy stores no restart info
  96 atoms
  read_restart CPU = 0.000 seconds
Changing box ...
  triclinic box = (-4.6617854e-06 -6.9926781e-06 -9.3235709e-06) to (8.1000047 12.150007 16.200009) with tilt (-0.00012150014 0 0)
Neighbor list info ...
  update: every = 1 steps, delay = 0 steps, check = yes
  max neighbors/atom: 2000, page size: 100000
  master list distance cutoff = 7.28721
  ghost atom cutoff = 7.28721
  1 neighbor lists, perpetual/occasional/extra = 1 0 0
  (1) pair eam/alloy, perpetual
      attributes: half, newton on
      pair build: half/nsq/newton
      stencil: none
      bin: none
Setting up cg style minimization ...
  Unit style    : metal
  Current step  : 2
Per MPI rank memory allocation (min/avg/max) = 4.447 | 4.447 | 4.447 Mbytes
   Step          Temp          PotEng         Press           Pxx            Pyy            Pzz            Pxy            Pxz            Pyz             Lx             Ly             Lz           Volume    
         2   0             -322.56         4.2164188e-05  1.8317027e-05  5.4645744e-05  5.3529791e-05  3.1594583      3.1982883e-06  1.719866e-06   8.1000093      12.150014      16.200019      1594.3285    
         3   0             -322.56         2.0370777e-05 -2.5483397e-06  3.3892976e-05  2.9767694e-05  3.1594573     -5.3868781e-07 -4.454195e-07   8.1000093      12.150014      16.200019      1594.3285    
         4   0             -322.56         1.7424688e-05 -5.5308822e-06  3.1349116e-05  2.645583e-05   3.1594574      9.485971e-08   8.846591e-08   8.1000093      12.150014      16.200019      1594.3285    
         5   0             -322.56         1.6793175e-05 -6.1656709e-06  3.0852767e-05  2.5692428e-05  3.1594575     -5.0922859e-09  1.0725594e-08  8.1000093      12.150014      16.200019      1594.3285    
         6   0             -322.56         1.6665218e-05 -6.313361e-06   3.076599e-05   2.5543025e-05  3.1594575     -1.5738368e-09  2.049369e-09   8.1000093      12.150014      16.200019      1594.3285    
         7   0             -322.56         1.6636149e-05 -6.3331142e-06  3.0735565e-05  2.5505997e-05  3.1594575      9.2880628e-10 -4.4064448e-10  8.1000093      12.150014      16.200019      1594.3285    
         8   0             -322.56         1.6619481e-05 -6.3449567e-06  3.071823e-05   2.5485171e-05  3.1594575     -1.0514355e-09 -1.6069743e-10  8.1000093      12.150014      16.200019      1594.3285    
         9   0             -322.56         1.6608582e-05 -6.354246e-06   3.0710853e-05  2.546914e-05   3.1594575     -2.0749918e-10 -5.4745417e-10  8.1000093      12.150014      16.200019      1594.3285    
        10   0             -322.56         1.6602778e-05 -6.3599142e-06  3.070833e-05   2.5459917e-05  3.1594575      5.1712327e-10 -4.3738109e-10  8.1000093      12.150014      16.200019      1594.3285    
        11   0             -322.56         1.6600554e-05 -6.3617679e-06  3.0707206e-05  2.5456224e-05  3.1594575      3.1671358e-11 -1.2774628e-10  8.1000093      12.150014      16.200019      1594.3285    
        12   0             -322.56         1.6599813e-05 -6.3623855e-06  3.0706491e-05  2.5455333e-05  3.1594575      2.4888673e-11  2.331788e-11   8.1000093      12.150014      16.200019      1594.3285    
        13   0             -322.56         1.6599444e-05 -6.3626307e-06  3.0706072e-05  2.545489e-05   3.1594575      3.6855621e-12 -5.3343834e-13  8.1000093      12.150014      16.200019      1594.3285    
        14   0             -322.56         1.6599281e-05 -6.3627433e-06  3.0705895e-05  2.5454691e-05  3.1594575     -8.3423102e-12  2.3690938e-11  8.1000093      12.150014      16.200019      1594.3285    
        15   0             -322.56         1.6599248e-05 -6.3627863e-06  3.070586e-05   2.545467e-05   3.1594575     -9.0908469e-13  1.5549902e-11  8.1000093      12.150014      16.200019      1594.3285    
        16   0             -322.56         1.6599201e-05 -6.3628276e-06  3.0705809e-05  2.5454623e-05  3.1594575     -1.889028e-11  -2.0023114e-11  8.1000093      12.150014      16.200019      1594.3285    
        17   0             -322.56         1.6599199e-05 -6.3628431e-06  3.0705824e-05  2.5454614e-05  3.1594575      8.8633872e-12 -3.8351776e-12  8.1000093      12.150014      16.200019      1594.3285    
        18   0             -322.56         1.6599253e-05 -6.3627966e-06  3.0705839e-05  2.5454716e-05  3.1594575     -2.2554871e-11 -6.0526076e-12  8.1000093      12.150014      16.200019      1594.3285    
        19   0             -322.56         1.6599218e-05 -6.3628299e-06  3.0705837e-05  2.5454647e-05  3.1594575      1.8862013e-11 -2.9203134e-11  8.1000093      12.150014      16.200019      1594.3285    
        20   0             -322.56         1.6599217e-05 -6.3628024e-06  3.0705819e-05  2.5454636e-05  3.1594575     -8.1945901e-12  1.0072571e-11  8.1000093      12.150014      16.200019      1594.3285    
        21   0             -322.56         1.6599246e-05 -6.362791e-06   3.0705839e-05  2.5454689e-05  3.1594575     -5.4772744e-12 -4.786999e-12   8.1000093      12.150014      16.200019      1594.3285    
        22   0             -322.56         1.6599212e-05 -6.3628134e-06  3.0705831e-05  2.545462e-05   3.1594575     -1.1828596e-12 -2.4008212e-11  8.1000093      12.150014      16.200019      1594.3285    
        23   0             -322.56         1.6599239e-05 -6.3628454e-06  3.0705883e-05  2.545468e-05   3.1594575     -5.344516e-12  -2.1595537e-11  8.1000093      12.150014      16.200019      1594.3285    
        24   0             -322.56         1.6599227e-05 -6.36282e-06    3.0705846e-05  2.5454655e-05  3.1594575     -2.5151713e-12  8.6361227e-12  8.1000093      12.150014      16.200019      1594.3285    
        25   0             -322.56         1.6599234e-05 -6.3627962e-06  3.0705844e-05  2.5454653e-05  3.1594575      1.2623228e-11 -3.6015804e-12  8.1000093      12.150014      16.200019      1594.3285    
        26   0             -322.56         1.6599226e-05 -6.3627968e-06  3.0705822e-05  2.5454652e-05  3.1594575      1.5156547e-11 -1.4706163e-11  8.1000093      12.150014      16.200019      1594.3285    
        27   0             -322.56         1.6599235e-05 -6.3628098e-06  3.0705857e-05  2.5454659e-05  3.1594575     -9.0888393e-12  1.8558773e-11  8.1000093      12.150014      16.200019      1594.3285    
Loop time of 0.007371 on 1 procs for 25 steps with 96 atoms

212.0% CPU use with 1 MPI tasks x 1 OpenMP threads

Minimization stats:
  Stopping criterion = force tolerance
  Energy initial, next-to-last, final = 
     -322.559998827404  -322.559998849924  -322.559998849924
  Force two-norm initial, final = 0.00051426251 7.2434664e-11
  Force max component initial, final = 7.9677996e-05 1.2786744e-11
  Final line search alpha, max atom move = 1 1.2786744e-11
  Iterations, force evaluations = 25 50

MPI task timing breakdown:
Section |  min time  |  avg time  |  max time  |%varavg| %total
---------------------------------------------------------------
Pair    | 0.006883   | 0.006883   | 0.006883   |   0.0 | 93.38
Neigh   | 0          | 0          | 0          |   0.0 |  0.00
Comm    | 0.00014    | 0.00014    | 0.00014    |   0.0 |  1.90
Output  | 0.00024    | 0.00024    | 0.00024    |   0.0 |  3.26
Modify  | 0          | 0          | 0          |   0.0 |  0.00
Other   |            | 0.000108   |            |       |  1.47

Nlocal:             96 ave          96 max          96 min
Histogram: 1 0 0 0 0 0 0 0 0 0
Nghost:            976 ave         976 max         976 min
Histogram: 1 0 0 0 0 0 0 0 0 0
Neighs:           4128 ave        4128 max        4128 min
Histogram: 1 0 0 0 0 0 0 0 0 0

Total # of neighbors = 4128
Ave neighs/atom = 43
Neighbor list builds = 0
Dangerous builds = 0
OMP_NUM_THREADS environment is not set. Defaulting to 1 thread. (src/comm.cpp:98)
  using 1 OpenMP thread(s) per MPI task
Loaded 1 plugins from F:\Lammps\LAMMPS 64-bit 2Aug2023\plugins

The 'box' command has been removed and will be ignored

Reading restart file ...
  restart file = 2 Aug 2023, LAMMPS = 2 Aug 2023
  restoring atom style atomic from restart
  triclinic box = (-4.6617854e-06 -6.9926781e-06 -9.3235709e-06) to (8.1000047 12.150007 16.200009) with tilt (0 0 0)
  1 by 1 by 1 MPI processor grid
  pair style eam/alloy stores no restart info
  96 atoms
  read_restart CPU = 0.000 seconds
Changing box ...
  triclinic box = (-4.6617854e-06 -6.9926781e-06 -9.3235709e-06) to (8.1000047 12.150007 16.200009) with tilt (0.00012150014 0 0)
Neighbor list info ...
  update: every = 1 steps, delay = 0 steps, check = yes
  max neighbors/atom: 2000, page size: 100000
  master list distance cutoff = 7.28721
  ghost atom cutoff = 7.28721
  1 neighbor lists, perpetual/occasional/extra = 1 0 0
  (1) pair eam/alloy, perpetual
      attributes: half, newton on
      pair build: half/nsq/newton
      stencil: none
      bin: none
Setting up cg style minimization ...
  Unit style    : metal
  Current step  : 2
Per MPI rank memory allocation (min/avg/max) = 4.447 | 4.447 | 4.447 Mbytes
   Step          Temp          PotEng         Press           Pxx            Pyy            Pzz            Pxy            Pxz            Pyz             Lx             Ly             Lz           Volume    
         2   0             -322.56         4.2163033e-05  1.8315905e-05  5.4644529e-05  5.3528664e-05 -3.1594567      3.1983629e-06  1.7199199e-06  8.1000093      12.150014      16.200019      1594.3285    
         3   0             -322.56         2.0370608e-05 -2.5485173e-06  3.3892893e-05  2.9767448e-05 -3.1594578     -5.3874876e-07 -4.4537304e-07  8.1000093      12.150014      16.200019      1594.3285    
         4   0             -322.56         1.7424659e-05 -5.5309112e-06  3.1349074e-05  2.6455815e-05 -3.1594576      9.4914816e-08  8.8522552e-08  8.1000093      12.150014      16.200019      1594.3285    
         5   0             -322.56         1.679315e-05  -6.1656946e-06  3.085275e-05   2.5692394e-05 -3.1594575     -5.1081214e-09  1.0739669e-08  8.1000093      12.150014      16.200019      1594.3285    
         6   0             -322.56         1.6665225e-05 -6.313323e-06   3.0765965e-05  2.5543032e-05 -3.1594576     -1.5695525e-09  2.0923648e-09  8.1000093      12.150014      16.200019      1594.3285    
         7   0             -322.56         1.6636203e-05 -6.3330588e-06  3.0735619e-05  2.550605e-05  -3.1594575      9.2822072e-10 -4.3579472e-10  8.1000093      12.150014      16.200019      1594.3285    
         8   0             -322.56         1.6619477e-05 -6.3449655e-06  3.0718229e-05  2.5485168e-05 -3.1594575     -1.0828593e-09 -1.5670536e-10  8.1000093      12.150014      16.200019      1594.3285    
         9   0             -322.56         1.6608606e-05 -6.3542171e-06  3.0710898e-05  2.5469139e-05 -3.1594575     -1.9370859e-10 -5.378488e-10   8.1000093      12.150014      16.200019      1594.3285    
        10   0             -322.56         1.6602743e-05 -6.359961e-06   3.0708296e-05  2.5459893e-05 -3.1594575      5.1799323e-10 -3.9907115e-10  8.1000093      12.150014      16.200019      1594.3285    
        11   0             -322.56         1.6600558e-05 -6.3617766e-06  3.0707203e-05  2.5456248e-05 -3.1594575      4.7149758e-11 -8.5451244e-11  8.1000093      12.150014      16.200019      1594.3285    
        12   0             -322.56         1.659982e-05  -6.3623817e-06  3.0706523e-05  2.545532e-05  -3.1594575      5.8394257e-12  6.8022105e-12  8.1000093      12.150014      16.200019      1594.3285    
        13   0             -322.56         1.6599436e-05 -6.3626365e-06  3.0706066e-05  2.5454879e-05 -3.1594575      2.0213451e-11  2.2899497e-11  8.1000093      12.150014      16.200019      1594.3285    
        14   0             -322.56         1.6599294e-05 -6.3627377e-06  3.0705908e-05  2.5454713e-05 -3.1594575     -4.1191591e-11 -2.8572073e-11  8.1000093      12.150014      16.200019      1594.3285    
        15   0             -322.56         1.6599224e-05 -6.3628171e-06  3.0705834e-05  2.5454655e-05 -3.1594575      9.2118287e-12 -8.5663922e-12  8.1000093      12.150014      16.200019      1594.3285    
        16   0             -322.56         1.6599213e-05 -6.362821e-06   3.0705831e-05  2.5454628e-05 -3.1594575     -1.1998194e-11  1.650521e-11   8.1000093      12.150014      16.200019      1594.3285    
        17   0             -322.56         1.6599266e-05 -6.3627726e-06  3.0705865e-05  2.5454706e-05 -3.1594575      8.1873417e-12 -9.7448377e-12  8.1000093      12.150014      16.200019      1594.3285    
        18   0             -322.56         1.659925e-05  -6.3627833e-06  3.0705881e-05  2.5454652e-05 -3.1594575      3.1896121e-11  5.0380288e-12  8.1000093      12.150014      16.200019      1594.3285    
        19   0             -322.56         1.6599214e-05 -6.3628377e-06  3.0705837e-05  2.5454641e-05 -3.1594575     -7.4044906e-12 -6.5686133e-12  8.1000093      12.150014      16.200019      1594.3285    
        20   0             -322.56         1.6599228e-05 -6.3628316e-06  3.0705855e-05  2.5454661e-05 -3.1594575      1.286891e-11  -1.9688407e-11  8.1000093      12.150014      16.200019      1594.3285    
        21   0             -322.56         1.6599205e-05 -6.3628254e-06  3.0705825e-05  2.5454617e-05 -3.1594575     -1.3757975e-11 -1.9088725e-11  8.1000093      12.150014      16.200019      1594.3285    
        22   0             -322.56         1.6599248e-05 -6.3627833e-06  3.0705853e-05  2.5454674e-05 -3.1594575     -5.5029351e-12 -6.1467438e-12  8.1000093      12.150014      16.200019      1594.3285    
        23   0             -322.56         1.6599232e-05 -6.3627898e-06  3.0705873e-05  2.5454614e-05 -3.1594575      7.3656181e-12  9.3438873e-12  8.1000093      12.150014      16.200019      1594.3285    
        24   0             -322.56         1.6599235e-05 -6.3627822e-06  3.0705848e-05  2.5454638e-05 -3.1594575      1.0617126e-11  2.4649733e-12  8.1000093      12.150014      16.200019      1594.3285    
        25   0             -322.56         1.6599231e-05 -6.3628218e-06  3.0705849e-05  2.5454668e-05 -3.1594575      4.9443502e-13  1.5155925e-11  8.1000093      12.150014      16.200019      1594.3285    
        26   0             -322.56         1.6599265e-05 -6.3627703e-06  3.070587e-05   2.5454696e-05 -3.1594575      4.1941312e-12 -8.2770106e-12  8.1000093      12.150014      16.200019      1594.3285    
        27   0             -322.56         1.6599231e-05 -6.3628134e-06  3.0705824e-05  2.5454683e-05 -3.1594575      2.0420503e-11 -6.938185e-12   8.1000093      12.150014      16.200019      1594.3285    
Loop time of 0.007492 on 1 procs for 25 steps with 96 atoms

208.6% CPU use with 1 MPI tasks x 1 OpenMP threads

Minimization stats:
  Stopping criterion = force tolerance
  Energy initial, next-to-last, final = 
     -322.559998827403  -322.559998849923  -322.559998849922
  Force two-norm initial, final = 0.0005142628 7.2637292e-11
  Force max component initial, final = 7.9678631e-05 1.1881586e-11
  Final line search alpha, max atom move = 1 1.1881586e-11
  Iterations, force evaluations = 25 50

MPI task timing breakdown:
Section |  min time  |  avg time  |  max time  |%varavg| %total
---------------------------------------------------------------
Pair    | 0.007009   | 0.007009   | 0.007009   |   0.0 | 93.55
Neigh   | 0          | 0          | 0          |   0.0 |  0.00
Comm    | 0.000153   | 0.000153   | 0.000153   |   0.0 |  2.04
Output  | 0.000212   | 0.000212   | 0.000212   |   0.0 |  2.83
Modify  | 0          | 0          | 0          |   0.0 |  0.00
Other   |            | 0.000118   |            |       |  1.58

Nlocal:             96 ave          96 max          96 min
Histogram: 1 0 0 0 0 0 0 0 0 0
Nghost:            976 ave         976 max         976 min
Histogram: 1 0 0 0 0 0 0 0 0 0
Neighs:           4128 ave        4128 max        4128 min
Histogram: 1 0 0 0 0 0 0 0 0 0

Total # of neighbors = 4128
Ave neighs/atom = 43
Neighbor list builds = 0
Dangerous builds = 0
=========================================
Components of the Elastic Constant Tensor
=========================================
Elastic Constant C11all = 113.795662972405 GPa
Elastic Constant C22all = 113.795662972407 GPa
Elastic Constant C33all = 113.795662972544 GPa
Elastic Constant C12all = 61.5545955350466 GPa
Elastic Constant C13all = 61.5545955350082 GPa
Elastic Constant C23all = 61.5545955347753 GPa
Elastic Constant C44all = 31.5945751472552 GPa
Elastic Constant C55all = 31.5945751473272 GPa
Elastic Constant C66all = 31.5945751472319 GPa
Elastic Constant C14all = 2.72035279661048e-11 GPa
Elastic Constant C15all = 1.72703332238848e-10 GPa
Elastic Constant C16all = -1.35831880640388e-11 GPa
Elastic Constant C24all = -2.75344577946375e-11 GPa
Elastic Constant C25all = 6.8154831152825e-11 GPa
Elastic Constant C26all = 7.09447958318555e-11 GPa
Elastic Constant C34all = -7.14298388967775e-11 GPa
Elastic Constant C35all = 4.1205926421677e-11 GPa
Elastic Constant C36all = -6.07308631234378e-11 GPa
Elastic Constant C45all = -6.52796944502108e-11 GPa
Elastic Constant C46all = 8.7737179079601e-11 GPa
Elastic Constant C56all = -5.66041477938668e-11 GPa
=========================================
Average properties for a cubic crystal
=========================================
Bulk Modulus = 78.9682846807796 GPa
Shear Modulus 1 = 31.5945751472714 GPa
Shear Modulus 2 = 26.1205337187543 GPa
Poisson Ratio = 0.351037951462999
Total wall time: 0:00:00
