LAMMPS (2 Aug 2023 - Update 3)
OMP_NUM_THREADS environment is not set. Defaulting to 1 thread. (src/comm.cpp:98)
  using 1 OpenMP thread(s) per MPI task
Loaded 1 plugins from F:\Lammps\LAMMPS 64-bit 2Aug2023\plugins
Lattice spacing in x,y,z = 4.05 4.05 4.05
Created triclinic box = (0 0 0) to (8.1 12.15 16.2) with tilt (0 0 0)
  1 by 1 by 1 MPI processor grid
Created 96 atoms
  using lattice units in triclinic box = (0 0 0) to (8.1 12.15 16.2) with tilt (0 0 0)
  create_atoms CPU = 0.000 seconds
Neighbor list info ...
  update: every = 1 steps, delay = 0 steps, check = yes
  max neighbors/atom: 2000, page size: 100000
  master list distance cutoff = 7.28721
  ghost atom cutoff = 7.28721
  1 neighbor lists, perpetual/occasional/extra = 1 0 0
  (1) pair eam/alloy, perpetual
      attributes: half, newton on
      pair build: half/nsq/newton
      stencil: none
      bin: none
Setting up cg style minimization ...
  Unit style    : metal
  Current step  : 0
WARNING: Energy due to 3 extra global DOFs will be included in minimizer energies
 (src/min.cpp:228)
Per MPI rank memory allocation (min/avg/max) = 4.452 | 4.452 | 4.452 Mbytes
   Step          Temp          PotEng         Press           Pxx            Pyy            Pzz            Pxy            Pxz            Pyz             Lx             Ly             Lz           Volume    
         0   0             -322.56         2.726913       2.726913       2.726913       2.726913       2.2732222e-12  5.6691094e-12  8.2700661e-12  8.1            12.15          16.2           1594.323     
         1   0             -322.56        -0.00024358028 -0.00024358023 -0.00024358039 -0.00024358023  3.6538783e-12 -1.8548314e-12  3.8351776e-12  8.1000093      12.150014      16.200019      1594.3285    
         2   0             -322.56         4.4066656e-10  4.3579472e-10  4.388001e-10   4.4740485e-10 -2.2216138e-11 -2.0291576e-12 -5.2995182e-13  8.1000093      12.150014      16.200019      1594.3285    
Loop time of 0.000984 on 1 procs for 2 steps with 96 atoms

0.0% CPU use with 1 MPI tasks x 1 OpenMP threads

Minimization stats:
  Stopping criterion = force tolerance
  Energy initial, next-to-last, final = 
     -322.559998860994  -322.559998865621  -322.559998865637
  Force two-norm initial, final = 0.0047000001 7.6230766e-13
  Force max component initial, final = 0.0027135463 4.452128e-13
  Final line search alpha, max atom move = 1 4.452128e-13
  Iterations, force evaluations = 2 4

MPI task timing breakdown:
Section |  min time  |  avg time  |  max time  |%varavg| %total
---------------------------------------------------------------
Pair    | 0.000777   | 0.000777   | 0.000777   |   0.0 | 78.96
Neigh   | 0          | 0          | 0          |   0.0 |  0.00
Comm    | 2.8e-05    | 2.8e-05    | 2.8e-05    |   0.0 |  2.85
Output  | 1.4e-05    | 1.4e-05    | 1.4e-05    |   0.0 |  1.42
Modify  | 0          | 0          | 0          |   0.0 |  0.00
Other   |            | 0.000165   |            |       | 16.77

Nlocal:             96 ave          96 max          96 min
Histogram: 1 0 0 0 0 0 0 0 0 0
Nghost:            976 ave         976 max         976 min
Histogram: 1 0 0 0 0 0 0 0 0 0
Neighs:           4128 ave        4128 max        4128 min
Histogram: 1 0 0 0 0 0 0 0 0 0

Total # of neighbors = 4128
Ave neighs/atom = 43
Neighbor list builds = 0
Dangerous builds = 0
Displacing atoms ...
System init for write_restart ...
OMP_NUM_THREADS environment is not set. Defaulting to 1 thread. (src/comm.cpp:98)
  using 1 OpenMP thread(s) per MPI task
Loaded 1 plugins from F:\Lammps\LAMMPS 64-bit 2Aug2023\plugins

The 'box' command has been removed and will be ignored

Reading restart file ...
  restart file = 2 Aug 2023, LAMMPS = 2 Aug 2023
  restoring atom style atomic from restart
  triclinic box = (-4.6617854e-06 -6.9926781e-06 -9.3235709e-06) to (8.1000047 12.150007 16.200009) with tilt (0 0 0)
  1 by 1 by 1 MPI processor grid
  pair style eam/alloy stores no restart info
  96 atoms
  read_restart CPU = 0.000 seconds
Changing box ...
  triclinic box = (-4.6617854e-06 -6.9926781e-06 -9.3235709e-06) to (8.1000039 12.150007 16.200009) with tilt (0 0 0)
  triclinic box = (-4.6617854e-06 -6.9926781e-06 -9.3235709e-06) to (8.1000039 12.150007 16.200009) with tilt (0 0 0)
  triclinic box = (-4.6617854e-06 -6.9926781e-06 -9.3235709e-06) to (8.1000039 12.150007 16.200009) with tilt (0 0 0)
Neighbor list info ...
  update: every = 1 steps, delay = 0 steps, check = yes
  max neighbors/atom: 2000, page size: 100000
  master list distance cutoff = 7.28721
  ghost atom cutoff = 7.28721
  1 neighbor lists, perpetual/occasional/extra = 1 0 0
  (1) pair eam/alloy, perpetual
      attributes: half, newton on
      pair build: half/nsq/newton
      stencil: none
      bin: none
Setting up cg style minimization ...
  Unit style    : metal
  Current step  : 2
Per MPI rank memory allocation (min/avg/max) = 4.447 | 4.447 | 4.447 Mbytes
   Step          Temp          PotEng         Press           Pxx            Pyy            Pzz            Pxy            Pxz            Pyz             Lx             Ly             Lz           Volume    
         2   0             -322.56         0.078994002    0.11382051     0.061578682    0.061582818    7.9871193e-07  3.1983202e-06  1.7198878e-06  8.1000085      12.150014      16.200019      1594.3283    
         3   0             -322.56         0.078972209    0.11379964     0.06155793     0.061559056   -2.5755861e-07 -5.3871263e-07 -4.4536006e-07  8.1000085      12.150014      16.200019      1594.3283    
         4   0             -322.56         0.078969263    0.11379666     0.061555386    0.061555744   -9.832715e-08   9.4903114e-08  8.8468164e-08  8.1000085      12.150014      16.200019      1594.3283    
         5   0             -322.56         0.078968632    0.11379602     0.06155489     0.061554981   -2.7297142e-08 -5.0976521e-09  1.0726362e-08  8.1000085      12.150014      16.200019      1594.3283    
         6   0             -322.56         0.078968504    0.11379588     0.061554803    0.061554832   -4.4678316e-08 -1.5552763e-09  2.0627679e-09  8.1000085      12.150014      16.200019      1594.3283    
         7   0             -322.56         0.078968475    0.11379586     0.061554773    0.061554795   -2.9826584e-08  9.1387632e-10 -4.5643848e-10  8.1000085      12.150014      16.200019      1594.3283    
         8   0             -322.56         0.078968458    0.11379584     0.061554756    0.061554774   -1.5068456e-08 -1.0830593e-09 -1.69222e-10    8.1000085      12.150014      16.200019      1594.3283    
         9   0             -322.56         0.078968447    0.11379584     0.061554748    0.061554758   -6.8545009e-09 -2.1394436e-10 -5.7213534e-10  8.1000085      12.150014      16.200019      1594.3283    
        10   0             -322.56         0.078968441    0.11379583     0.061554746    0.061554748   -2.2897768e-09  5.2440536e-10 -3.7749308e-10  8.1000085      12.150014      16.200019      1594.3283    
        11   0             -322.56         0.078968439    0.11379583     0.061554745    0.061554745   -6.7423058e-10  6.9725235e-11 -8.1888024e-11  8.1000085      12.150014      16.200019      1594.3283    
        12   0             -322.56         0.078968438    0.11379583     0.061554744    0.061554744   -2.7562254e-10  5.7161343e-12  2.9851631e-11  8.1000085      12.150014      16.200019      1594.3283    
        13   0             -322.56         0.078968438    0.11379583     0.061554743    0.061554743   -2.1887756e-11  1.2322605e-11 -1.3750856e-11  8.1000085      12.150014      16.200019      1594.3283    
        14   0             -322.56         0.078968438    0.11379583     0.061554743    0.061554743   -3.2522025e-13 -1.3168288e-11  1.1160368e-11  8.1000085      12.150014      16.200019      1594.3283    
        15   0             -322.56         0.078968438    0.11379583     0.061554743    0.061554743   -2.4937436e-11  1.3351681e-11 -1.3632315e-12  8.1000085      12.150014      16.200019      1594.3283    
        16   0             -322.56         0.078968438    0.11379583     0.061554743    0.061554743   -1.1396523e-11  1.1577618e-11 -1.4165753e-11  8.1000085      12.150014      16.200019      1594.3283    
        17   0             -322.56         0.078968438    0.11379583     0.061554743    0.061554743    6.6707387e-12  1.6137833e-11  2.4475409e-12  8.1000085      12.150014      16.200019      1594.3283    
        18   0             -322.56         0.078968438    0.11379583     0.061554743    0.061554743    2.3639864e-12  9.3679924e-13  1.8600613e-11  8.1000085      12.150014      16.200019      1594.3283    
        19   0             -322.56         0.078968438    0.11379583     0.061554743    0.061554743    1.7342197e-13 -1.4028136e-11 -6.0874735e-12  8.1000085      12.150014      16.200019      1594.3283    
        20   0             -322.56         0.078968438    0.11379583     0.061554743    0.061554743   -5.3404979e-12 -4.3901717e-12  1.333596e-11   8.1000085      12.150014      16.200019      1594.3283    
        21   0             -322.56         0.078968438    0.11379583     0.061554743    0.061554743    2.7091516e-13 -9.1172546e-12 -2.7968907e-11  8.1000085      12.150014      16.200019      1594.3283    
        22   0             -322.56         0.078968438    0.11379583     0.061554743    0.061554743    8.2574469e-12 -1.4631134e-11  2.0493797e-11  8.1000085      12.150014      16.200019      1594.3283    
        23   0             -322.56         0.078968438    0.11379583     0.061554743    0.061554743   -1.0903492e-11 -3.491556e-12  -3.34044e-11    8.1000085      12.150014      16.200019      1594.3283    
        24   0             -322.56         0.078968438    0.11379583     0.061554743    0.061554743    2.5033896e-12 -4.5280361e-12  1.5598715e-11  8.1000085      12.150014      16.200019      1594.3283    
        25   0             -322.56         0.078968438    0.11379583     0.061554743    0.061554743    5.5897592e-13  1.8566551e-12 -9.4205918e-12  8.1000085      12.150014      16.200019      1594.3283    
        26   0             -322.56         0.078968438    0.11379583     0.061554743    0.061554743    3.2471257e-13  2.2471225e-13 -7.6912752e-12  8.1000085      12.150014      16.200019      1594.3283    
        27   0             -322.56         0.078968438    0.11379583     0.061554743    0.061554743    1.1773144e-11  5.0829352e-12 -1.0808229e-13  8.1000085      12.150014      16.200019      1594.3283    
Loop time of 0.007421 on 1 procs for 25 steps with 96 atoms

0.0% CPU use with 1 MPI tasks x 1 OpenMP threads

Minimization stats:
  Stopping criterion = force tolerance
  Energy initial, next-to-last, final = 
     -322.559998843117  -322.559998865638   -322.55999886564
  Force two-norm initial, final = 0.00051426273 5.551626e-11
  Force max component initial, final = 7.9678323e-05 8.3029694e-12
  Final line search alpha, max atom move = 1 8.3029694e-12
  Iterations, force evaluations = 25 50

MPI task timing breakdown:
Section |  min time  |  avg time  |  max time  |%varavg| %total
---------------------------------------------------------------
Pair    | 0.006934   | 0.006934   | 0.006934   |   0.0 | 93.44
Neigh   | 0          | 0          | 0          |   0.0 |  0.00
Comm    | 0.000134   | 0.000134   | 0.000134   |   0.0 |  1.81
Output  | 0.000232   | 0.000232   | 0.000232   |   0.0 |  3.13
Modify  | 0          | 0          | 0          |   0.0 |  0.00
Other   |            | 0.000121   |            |       |  1.63

Nlocal:             96 ave          96 max          96 min
Histogram: 1 0 0 0 0 0 0 0 0 0
Nghost:            976 ave         976 max         976 min
Histogram: 1 0 0 0 0 0 0 0 0 0
Neighs:           4128 ave        4128 max        4128 min
Histogram: 1 0 0 0 0 0 0 0 0 0

Total # of neighbors = 4128
Ave neighs/atom = 43
Neighbor list builds = 0
Dangerous builds = 0
OMP_NUM_THREADS environment is not set. Defaulting to 1 thread. (src/comm.cpp:98)
  using 1 OpenMP thread(s) per MPI task
Loaded 1 plugins from F:\Lammps\LAMMPS 64-bit 2Aug2023\plugins

The 'box' command has been removed and will be ignored

Reading restart file ...
  restart file = 2 Aug 2023, LAMMPS = 2 Aug 2023
  restoring atom style atomic from restart
  triclinic box = (-4.6617854e-06 -6.9926781e-06 -9.3235709e-06) to (8.1000047 12.150007 16.200009) with tilt (0 0 0)
  1 by 1 by 1 MPI processor grid
  pair style eam/alloy stores no restart info
  96 atoms
  read_restart CPU = 0.000 seconds
Changing box ...
  triclinic box = (-4.6617854e-06 -6.9926781e-06 -9.3235709e-06) to (8.1000055 12.150007 16.200009) with tilt (0 0 0)
  triclinic box = (-4.6617854e-06 -6.9926781e-06 -9.3235709e-06) to (8.1000055 12.150007 16.200009) with tilt (0 0 0)
  triclinic box = (-4.6617854e-06 -6.9926781e-06 -9.3235709e-06) to (8.1000055 12.150007 16.200009) with tilt (0 0 0)
Neighbor list info ...
  update: every = 1 steps, delay = 0 steps, check = yes
  max neighbors/atom: 2000, page size: 100000
  master list distance cutoff = 7.28721
  ghost atom cutoff = 7.28721
  1 neighbor lists, perpetual/occasional/extra = 1 0 0
  (1) pair eam/alloy, perpetual
      attributes: half, newton on
      pair build: half/nsq/newton
      stencil: none
      bin: none
Setting up cg style minimization ...
  Unit style    : metal
  Current step  : 2
Per MPI rank memory allocation (min/avg/max) = 4.447 | 4.447 | 4.447 Mbytes
   Step          Temp          PotEng         Press           Pxx            Pyy            Pzz            Pxy            Pxz            Pyz             Lx             Ly             Lz           Volume    
         2   0             -322.56        -0.078942867   -0.11377112    -0.061530808   -0.061526673    7.9867706e-07  3.1983444e-06  1.7198952e-06  8.1000101      12.150014      16.200019      1594.3287    
         3   0             -322.56        -0.07896466    -0.11379199    -0.061551561   -0.061550435   -2.5755273e-07 -5.3872025e-07 -4.454196e-07   8.1000101      12.150014      16.200019      1594.3287    
         4   0             -322.56        -0.078967606   -0.11379497    -0.061554104   -0.061553747   -9.8341812e-08  9.4899147e-08  8.8485394e-08  8.1000101      12.150014      16.200019      1594.3287    
         5   0             -322.56        -0.078968238   -0.1137956     -0.061554601   -0.06155451    -2.7286614e-08 -5.0794843e-09  1.0737876e-08  8.1000101      12.150014      16.200019      1594.3287    
         6   0             -322.56        -0.078968366   -0.11379575    -0.061554688   -0.061554659   -4.4640583e-08 -1.5755458e-09  2.0419739e-09  8.1000101      12.150014      16.200019      1594.3287    
         7   0             -322.56        -0.078968395   -0.11379577    -0.061554718   -0.061554696   -2.981013e-08   9.2063868e-10 -4.16305e-10    8.1000101      12.150014      16.200019      1594.3287    
         8   0             -322.56        -0.078968412   -0.11379578    -0.061554735   -0.061554717   -1.5062849e-08 -1.0683573e-09 -1.3530854e-10  8.1000101      12.150014      16.200019      1594.3287    
         9   0             -322.56        -0.078968422   -0.11379579    -0.061554743   -0.061554733   -6.8393131e-09 -1.9341771e-10 -5.3309312e-10  8.1000101      12.150014      16.200019      1594.3287    
        10   0             -322.56        -0.078968428   -0.1137958     -0.061554745   -0.061554743   -2.2816476e-09  5.1022433e-10 -3.9489077e-10  8.1000101      12.150014      16.200019      1594.3287    
        11   0             -322.56        -0.07896843    -0.1137958     -0.061554746   -0.061554746   -6.9571691e-10  6.3989834e-11 -8.9391008e-11  8.1000101      12.150014      16.200019      1594.3287    
        12   0             -322.56        -0.078968431   -0.1137958     -0.061554747   -0.061554747   -2.9162248e-10  1.8193025e-11 -7.3426212e-12  8.1000101      12.150014      16.200019      1594.3287    
        13   0             -322.56        -0.078968432   -0.1137958     -0.061554747   -0.061554748   -2.5575159e-11 -1.2432501e-11 -1.1052284e-12  8.1000101      12.150014      16.200019      1594.3287    
        14   0             -322.56        -0.078968432   -0.1137958     -0.061554748   -0.061554748   -3.8959795e-11 -9.6417933e-12  1.1554343e-11  8.1000101      12.150014      16.200019      1594.3287    
        15   0             -322.56        -0.078968432   -0.1137958     -0.061554748   -0.061554748   -3.6071613e-12  1.7713227e-11 -9.2776424e-12  8.1000101      12.150014      16.200019      1594.3287    
        16   0             -322.56        -0.078968432   -0.1137958     -0.061554748   -0.061554748   -4.6381593e-12  1.7508357e-11  1.162756e-11   8.1000101      12.150014      16.200019      1594.3287    
        17   0             -322.56        -0.078968432   -0.1137958     -0.061554748   -0.061554748   -3.022143e-12   1.3298005e-11 -1.1889049e-12  8.1000101      12.150014      16.200019      1594.3287    
        18   0             -322.56        -0.078968432   -0.1137958     -0.061554748   -0.061554748   -4.926304e-12   6.7814086e-12  1.2900142e-13  8.1000101      12.150014      16.200019      1594.3287    
        19   0             -322.56        -0.078968432   -0.1137958     -0.061554748   -0.061554748    5.4705628e-12 -2.242741e-11  -6.4361247e-12  8.1000101      12.150014      16.200019      1594.3287    
        20   0             -322.56        -0.078968432   -0.1137958     -0.061554748   -0.061554748    1.0298462e-11  2.3741604e-11 -2.3976831e-11  8.1000101      12.150014      16.200019      1594.3287    
        21   0             -322.56        -0.078968432   -0.1137958     -0.061554748   -0.061554748    1.4443526e-11  5.8152072e-12  9.6262949e-12  8.1000101      12.150014      16.200019      1594.3287    
        22   0             -322.56        -0.078968432   -0.1137958     -0.061554748   -0.061554748    5.7121899e-12  1.1060261e-11  2.3882695e-11  8.1000101      12.150014      16.200019      1594.3287    
        23   0             -322.56        -0.078968432   -0.1137958     -0.061554748   -0.061554748    6.7540233e-12 -2.894709e-11   6.338502e-12   8.1000101      12.150014      16.200019      1594.3287    
        24   0             -322.56        -0.078968432   -0.1137958     -0.061554748   -0.061554748    1.3414301e-11 -6.4889454e-12 -1.8931829e-12  8.1000101      12.150014      16.200019      1594.3287    
        25   0             -322.56        -0.078968432   -0.1137958     -0.061554748   -0.061554748    3.2638653e-12 -1.4213004e-11 -3.5600904e-11  8.1000101      12.150014      16.200019      1594.3287    
        26   0             -322.56        -0.078968432   -0.1137958     -0.061554748   -0.061554748    3.1851259e-12 -5.5503676e-12  9.7099715e-12  8.1000101      12.150014      16.200019      1594.3287    
        27   0             -322.56        -0.078968432   -0.1137958     -0.061554748   -0.061554748    5.1235027e-12 -1.2769281e-12  4.710295e-12   8.1000101      12.150014      16.200019      1594.3287    
Loop time of 0.007524 on 1 procs for 25 steps with 96 atoms

0.0% CPU use with 1 MPI tasks x 1 OpenMP threads

Minimization stats:
  Stopping criterion = force tolerance
  Energy initial, next-to-last, final = 
     -322.559998843117  -322.559998865638  -322.559998865639
  Force two-norm initial, final = 0.00051426258 5.5524345e-11
  Force max component initial, final = 7.9678304e-05 8.3225371e-12
  Final line search alpha, max atom move = 1 8.3225371e-12
  Iterations, force evaluations = 25 50

MPI task timing breakdown:
Section |  min time  |  avg time  |  max time  |%varavg| %total
---------------------------------------------------------------
Pair    | 0.007027   | 0.007027   | 0.007027   |   0.0 | 93.39
Neigh   | 0          | 0          | 0          |   0.0 |  0.00
Comm    | 0.000143   | 0.000143   | 0.000143   |   0.0 |  1.90
Output  | 0.000231   | 0.000231   | 0.000231   |   0.0 |  3.07
Modify  | 0          | 0          | 0          |   0.0 |  0.00
Other   |            | 0.000123   |            |       |  1.63

Nlocal:             96 ave          96 max          96 min
Histogram: 1 0 0 0 0 0 0 0 0 0
Nghost:            976 ave         976 max         976 min
Histogram: 1 0 0 0 0 0 0 0 0 0
Neighs:           4128 ave        4128 max        4128 min
Histogram: 1 0 0 0 0 0 0 0 0 0

Total # of neighbors = 4128
Ave neighs/atom = 43
Neighbor list builds = 0
Dangerous builds = 0
OMP_NUM_THREADS environment is not set. Defaulting to 1 thread. (src/comm.cpp:98)
  using 1 OpenMP thread(s) per MPI task
Loaded 1 plugins from F:\Lammps\LAMMPS 64-bit 2Aug2023\plugins

The 'box' command has been removed and will be ignored

Reading restart file ...
  restart file = 2 Aug 2023, LAMMPS = 2 Aug 2023
  restoring atom style atomic from restart
  triclinic box = (-4.6617854e-06 -6.9926781e-06 -9.3235709e-06) to (8.1000047 12.150007 16.200009) with tilt (0 0 0)
  1 by 1 by 1 MPI processor grid
  pair style eam/alloy stores no restart info
  96 atoms
  read_restart CPU = 0.000 seconds
Changing box ...
  triclinic box = (-4.6617854e-06 -6.9926781e-06 -9.3235709e-06) to (8.1000047 12.150006 16.200009) with tilt (0 0 0)
  triclinic box = (-4.6617854e-06 -6.9926781e-06 -9.3235709e-06) to (8.1000047 12.150006 16.200009) with tilt (0 0 0)
Neighbor list info ...
  update: every = 1 steps, delay = 0 steps, check = yes
  max neighbors/atom: 2000, page size: 100000
  master list distance cutoff = 7.28721
  ghost atom cutoff = 7.28721
  1 neighbor lists, perpetual/occasional/extra = 1 0 0
  (1) pair eam/alloy, perpetual
      attributes: half, newton on
      pair build: half/nsq/newton
      stencil: none
      bin: none
Setting up cg style minimization ...
  Unit style    : metal
  Current step  : 2
Per MPI rank memory allocation (min/avg/max) = 4.447 | 4.447 | 4.447 Mbytes
   Step          Temp          PotEng         Press           Pxx            Pyy            Pzz            Pxy            Pxz            Pyz             Lx             Ly             Lz           Volume    
         2   0             -322.56         0.078994002    0.061579422    0.11381977     0.061582818    7.9869964e-07  3.1983256e-06  1.7198666e-06  8.1000093      12.150013      16.200019      1594.3283    
         3   0             -322.56         0.078972209    0.061558558    0.11379901     0.061559056   -2.575661e-07  -5.3871624e-07 -4.4541081e-07  8.1000093      12.150013      16.200019      1594.3283    
         4   0             -322.56         0.078969263    0.061555575    0.11379647     0.061555744   -9.8342995e-08  9.4917547e-08  8.8456376e-08  8.1000093      12.150013      16.200019      1594.3283    
         5   0             -322.56         0.078968632    0.06155494     0.11379597     0.061554981   -2.7302955e-08 -5.1208197e-09  1.072768e-08   8.1000093      12.150013      16.200019      1594.3283    
         6   0             -322.56         0.078968504    0.061554793    0.11379589     0.061554832   -4.4656374e-08 -1.582293e-09   2.0555264e-09  8.1000093      12.150013      16.200019      1594.3283    
         7   0             -322.56         0.078968475    0.061554773    0.11379586     0.061554795   -2.9802047e-08  9.1569652e-10 -4.5944038e-10  8.1000093      12.150013      16.200019      1594.3283    
         8   0             -322.56         0.078968458    0.061554761    0.11379584     0.061554774   -1.506658e-08  -1.0579393e-09 -1.5107463e-10  8.1000093      12.150013      16.200019      1594.3283    
         9   0             -322.56         0.078968447    0.061554752    0.11379583     0.061554758   -6.8506948e-09 -1.6448717e-10 -5.1804887e-10  8.1000093      12.150013      16.200019      1594.3283    
        10   0             -322.56         0.078968441    0.061554746    0.11379583     0.061554748   -2.285595e-09   5.4042271e-10 -3.8259039e-10  8.1000093      12.150013      16.200019      1594.3283    
        11   0             -322.56         0.078968439    0.061554744    0.11379583     0.061554745   -6.750538e-10   2.8293589e-11 -1.0601129e-10  8.1000093      12.150013      16.200019      1594.3283    
        12   0             -322.56         0.078968438    0.061554744    0.11379583     0.061554744   -2.950998e-10   1.2174022e-11  1.7613927e-11  8.1000093      12.150013      16.200019      1594.3283    
        13   0             -322.56         0.078968438    0.061554743    0.11379583     0.061554743   -2.5570491e-11 -3.6858229e-12  1.7247841e-11  8.1000093      12.150013      16.200019      1594.3283    
        14   0             -322.56         0.078968438    0.061554743    0.11379583     0.061554743   -1.0898255e-11  5.2712482e-13  8.9743165e-12  8.1000093      12.150013      16.200019      1594.3283    
        15   0             -322.56         0.078968438    0.061554743    0.11379583     0.061554743   -2.5572385e-12 -1.253993e-11   1.6634213e-11  8.1000093      12.150013      16.200019      1594.3283    
        16   0             -322.56         0.078968438    0.061554743    0.11379583     0.061554743   -5.7298475e-12 -2.6254976e-12  1.159967e-11   8.1000093      12.150013      16.200019      1594.3283    
        17   0             -322.56         0.078968438    0.061554743    0.11379583     0.061554743    1.9082396e-12  4.6974155e-12 -1.004468e-11   8.1000093      12.150013      16.200019      1594.3283    
        18   0             -322.56         0.078968438    0.061554743    0.11379583     0.061554743   -5.3154655e-12 -4.7690381e-12  1.4008859e-11  8.1000093      12.150013      16.200019      1594.3283    
        19   0             -322.56         0.078968438    0.061554743    0.11379583     0.061554743    4.0647749e-12 -1.4929748e-11  8.4722569e-13  8.1000093      12.150013      16.200019      1594.3283    
        20   0             -322.56         0.078968438    0.061554743    0.11379583     0.061554743    5.6633853e-12  6.1776212e-13  4.4941313e-12  8.1000093      12.150013      16.200019      1594.3283    
        21   0             -322.56         0.078968438    0.061554743    0.11379583     0.061554743    4.2725443e-12  5.4639092e-12  1.5511552e-11  8.1000093      12.150013      16.200019      1594.3283    
        22   0             -322.56         0.078968438    0.061554743    0.11379583     0.061554743    4.4867161e-12  3.5996478e-12 -4.8811356e-12  8.1000093      12.150013      16.200019      1594.3283    
        23   0             -322.56         0.078968438    0.061554743    0.11379583     0.061554743    4.7164528e-12  2.3457386e-11 -7.9876298e-12  8.1000093      12.150013      16.200019      1594.3283    
        24   0             -322.56         0.078968438    0.061554743    0.11379583     0.061554743    4.2384651e-12 -3.6286658e-12 -6.840563e-12   8.1000093      12.150013      16.200019      1594.3283    
        25   0             -322.56         0.078968438    0.061554743    0.11379583     0.061554743    6.3217796e-13  2.0869173e-11 -3.556256e-12   8.1000093      12.150013      16.200019      1594.3283    
        26   0             -322.56         0.078968438    0.061554743    0.11379583     0.061554743    1.0100332e-11 -1.4645656e-11 -2.0689042e-11  8.1000093      12.150013      16.200019      1594.3283    
        27   0             -322.56         0.078968438    0.061554743    0.11379583     0.061554743   -1.0158947e-11  3.5285267e-12 -1.9060835e-11  8.1000093      12.150013      16.200019      1594.3283    
Loop time of 0.007116 on 1 procs for 25 steps with 96 atoms

0.0% CPU use with 1 MPI tasks x 1 OpenMP threads

Minimization stats:
  Stopping criterion = force tolerance
  Energy initial, next-to-last, final = 
     -322.559998843117  -322.559998865638   -322.55999886564
  Force two-norm initial, final = 0.00051426273 5.5472399e-11
  Force max component initial, final = 7.967833e-05 8.323231e-12
  Final line search alpha, max atom move = 1 8.323231e-12
  Iterations, force evaluations = 25 50

MPI task timing breakdown:
Section |  min time  |  avg time  |  max time  |%varavg| %total
---------------------------------------------------------------
Pair    | 0.006643   | 0.006643   | 0.006643   |   0.0 | 93.35
Neigh   | 0          | 0          | 0          |   0.0 |  0.00
Comm    | 0.000132   | 0.000132   | 0.000132   |   0.0 |  1.85
Output  | 0.000228   | 0.000228   | 0.000228   |   0.0 |  3.20
Modify  | 0          | 0          | 0          |   0.0 |  0.00
Other   |            | 0.000113   |            |       |  1.59

Nlocal:             96 ave          96 max          96 min
Histogram: 1 0 0 0 0 0 0 0 0 0
Nghost:            976 ave         976 max         976 min
Histogram: 1 0 0 0 0 0 0 0 0 0
Neighs:           4128 ave        4128 max        4128 min
Histogram: 1 0 0 0 0 0 0 0 0 0

Total # of neighbors = 4128
Ave neighs/atom = 43
Neighbor list builds = 0
Dangerous builds = 0
OMP_NUM_THREADS environment is not set. Defaulting to 1 thread. (src/comm.cpp:98)
  using 1 OpenMP thread(s) per MPI task
Loaded 1 plugins from F:\Lammps\LAMMPS 64-bit 2Aug2023\plugins

The 'box' command has been removed and will be ignored

Reading restart file ...
  restart file = 2 Aug 2023, LAMMPS = 2 Aug 2023
  restoring atom style atomic from restart
  triclinic box = (-4.6617854e-06 -6.9926781e-06 -9.3235709e-06) to (8.1000047 12.150007 16.200009) with tilt (0 0 0)
  1 by 1 by 1 MPI processor grid
  pair style eam/alloy stores no restart info
  96 atoms
  read_restart CPU = 0.000 seconds
Changing box ...
  triclinic box = (-4.6617854e-06 -6.9926781e-06 -9.3235709e-06) to (8.1000047 12.150008 16.200009) with tilt (0 0 0)
  triclinic box = (-4.6617854e-06 -6.9926781e-06 -9.3235709e-06) to (8.1000047 12.150008 16.200009) with tilt (0 0 0)
Neighbor list info ...
  update: every = 1 steps, delay = 0 steps, check = yes
  max neighbors/atom: 2000, page size: 100000
  master list distance cutoff = 7.28721
  ghost atom cutoff = 7.28721
  1 neighbor lists, perpetual/occasional/extra = 1 0 0
  (1) pair eam/alloy, perpetual
      attributes: half, newton on
      pair build: half/nsq/newton
      stencil: none
      bin: none
Setting up cg style minimization ...
  Unit style    : metal
  Current step  : 2
Per MPI rank memory allocation (min/avg/max) = 4.447 | 4.447 | 4.447 Mbytes
   Step          Temp          PotEng         Press           Pxx            Pyy            Pzz            Pxy            Pxz            Pyz             Lx             Ly             Lz           Volume    
         2   0             -322.56        -0.078942867   -0.061530068   -0.11377186    -0.061526673    7.9869633e-07  3.1983157e-06  1.719881e-06   8.1000093      12.150015      16.200019      1594.3287    
         3   0             -322.56        -0.07896466    -0.061550933   -0.11379261    -0.061550435   -2.575647e-07  -5.3873643e-07 -4.4539441e-07  8.1000093      12.150015      16.200019      1594.3287    
         4   0             -322.56        -0.078967606   -0.061553916   -0.11379516    -0.061553747   -9.8333928e-08  9.4888234e-08  8.8498981e-08  8.1000093      12.150015      16.200019      1594.3287    
         5   0             -322.56        -0.078968238   -0.061554551   -0.11379565    -0.06155451    -2.7306532e-08 -5.1187917e-09  1.0715461e-08  8.1000093      12.150015      16.200019      1594.3287    
         6   0             -322.56        -0.078968366   -0.061554698   -0.11379574    -0.061554659   -4.464635e-08  -1.5481841e-09  2.0633567e-09  8.1000093      12.150015      16.200019      1594.3287    
         7   0             -322.56        -0.078968395   -0.061554718   -0.11379577    -0.061554696   -2.9795416e-08  9.3703544e-10 -4.1865143e-10  8.1000093      12.150015      16.200019      1594.3287    
         8   0             -322.56        -0.078968412   -0.06155473    -0.11379579    -0.061554717   -1.5071337e-08 -1.0555162e-09 -1.3225783e-10  8.1000093      12.150015      16.200019      1594.3287    
         9   0             -322.56        -0.078968422   -0.061554739   -0.11379579    -0.061554733   -6.8232908e-09 -2.0436637e-10 -5.2704749e-10  8.1000093      12.150015      16.200019      1594.3287    
        10   0             -322.56        -0.078968428   -0.061554745   -0.1137958     -0.061554743   -2.2843223e-09  5.3067938e-10 -3.7746512e-10  8.1000093      12.150015      16.200019      1594.3287    
        11   0             -322.56        -0.078968431   -0.061554747   -0.1137958     -0.061554746   -6.8266682e-10  2.9621111e-11 -8.7996399e-11  8.1000093      12.150015      16.200019      1594.3287    
        12   0             -322.56        -0.078968431   -0.061554747   -0.1137958     -0.061554747   -2.8160798e-10  1.9063663e-11  2.7982848e-11  8.1000093      12.150015      16.200019      1594.3287    
        13   0             -322.56        -0.078968432   -0.061554748   -0.1137958     -0.061554748   -2.9922284e-11 -4.8966447e-12  3.4031968e-11  8.1000093      12.150015      16.200019      1594.3287    
        14   0             -322.56        -0.078968432   -0.061554748   -0.1137958     -0.061554748   -8.9128032e-12  1.0335339e-11 -8.862746e-12   8.1000093      12.150015      16.200019      1594.3287    
        15   0             -322.56        -0.078968432   -0.061554748   -0.1137958     -0.061554748   -1.4497494e-12 -1.0056583e-11 -3.6887432e-12  8.1000093      12.150015      16.200019      1594.3287    
        16   0             -322.56        -0.078968432   -0.061554748   -0.1137958     -0.061554748   -6.1210455e-12 -1.9022689e-12  1.7080485e-11  8.1000093      12.150015      16.200019      1594.3287    
        17   0             -322.56        -0.078968432   -0.061554748   -0.1137958     -0.061554748   -7.9686253e-13  8.5745771e-12 -5.8643347e-12  8.1000093      12.150015      16.200019      1594.3287    
        18   0             -322.56        -0.078968432   -0.061554748   -0.1137958     -0.061554748    2.0815427e-11 -1.6834421e-11  9.567024e-12   8.1000093      12.150015      16.200019      1594.3287    
        19   0             -322.56        -0.078968432   -0.061554748   -0.1137958     -0.061554748    4.6100997e-12  7.564276e-13   3.2703602e-12  8.1000093      12.150015      16.200019      1594.3287    
        20   0             -322.56        -0.078968432   -0.061554748   -0.1137958     -0.061554748   -1.3402874e-12  1.0003099e-11  1.7784763e-11  8.1000093      12.150015      16.200019      1594.3287    
        21   0             -322.56        -0.078968432   -0.061554748   -0.1137958     -0.061554748    2.2319105e-12 -5.2619887e-12 -1.0707118e-11  8.1000093      12.150015      16.200019      1594.3287    
        22   0             -322.56        -0.078968432   -0.061554748   -0.1137958     -0.061554748    6.9391318e-12  1.5070031e-11  4.863702e-12   8.1000093      12.150015      16.200019      1594.3287    
        23   0             -322.56        -0.078968432   -0.061554748   -0.1137958     -0.061554748    8.2797756e-12 -4.3585312e-12 -2.2470652e-11  8.1000093      12.150015      16.200019      1594.3287    
        24   0             -322.56        -0.078968432   -0.061554748   -0.1137958     -0.061554748   -5.2132223e-13 -5.8127207e-12  1.5616144e-11  8.1000093      12.150015      16.200019      1594.3287    
        25   0             -322.56        -0.078968432   -0.061554748   -0.1137958     -0.061554748   -1.703401e-11   8.4417874e-12 -4.0855097e-11  8.1000093      12.150015      16.200019      1594.3287    
        26   0             -322.56        -0.078968432   -0.061554748   -0.1137958     -0.061554748   -3.9941112e-12 -9.2600074e-12  9.0649644e-12  8.1000093      12.150015      16.200019      1594.3287    
        27   0             -322.56        -0.078968432   -0.061554748   -0.1137958     -0.061554748   -1.8918719e-12 -1.901431e-12  -2.2704249e-11  8.1000093      12.150015      16.200019      1594.3287    
Loop time of 0.007233 on 1 procs for 25 steps with 96 atoms

216.0% CPU use with 1 MPI tasks x 1 OpenMP threads

Minimization stats:
  Stopping criterion = force tolerance
  Energy initial, next-to-last, final = 
     -322.559998843117  -322.559998865638  -322.559998865639
  Force two-norm initial, final = 0.00051426258 5.5527005e-11
  Force max component initial, final = 7.9678297e-05 8.3351104e-12
  Final line search alpha, max atom move = 1 8.3351104e-12
  Iterations, force evaluations = 25 50

MPI task timing breakdown:
Section |  min time  |  avg time  |  max time  |%varavg| %total
---------------------------------------------------------------
Pair    | 0.006714   | 0.006714   | 0.006714   |   0.0 | 92.82
Neigh   | 0          | 0          | 0          |   0.0 |  0.00
Comm    | 0.000145   | 0.000145   | 0.000145   |   0.0 |  2.00
Output  | 0.00024    | 0.00024    | 0.00024    |   0.0 |  3.32
Modify  | 0          | 0          | 0          |   0.0 |  0.00
Other   |            | 0.000134   |            |       |  1.85

Nlocal:             96 ave          96 max          96 min
Histogram: 1 0 0 0 0 0 0 0 0 0
Nghost:            976 ave         976 max         976 min
Histogram: 1 0 0 0 0 0 0 0 0 0
Neighs:           4128 ave        4128 max        4128 min
Histogram: 1 0 0 0 0 0 0 0 0 0

Total # of neighbors = 4128
Ave neighs/atom = 43
Neighbor list builds = 0
Dangerous builds = 0
OMP_NUM_THREADS environment is not set. Defaulting to 1 thread. (src/comm.cpp:98)
  using 1 OpenMP thread(s) per MPI task
Loaded 1 plugins from F:\Lammps\LAMMPS 64-bit 2Aug2023\plugins

The 'box' command has been removed and will be ignored

Reading restart file ...
  restart file = 2 Aug 2023, LAMMPS = 2 Aug 2023
  restoring atom style atomic from restart
  triclinic box = (-4.6617854e-06 -6.9926781e-06 -9.3235709e-06) to (8.1000047 12.150007 16.200009) with tilt (0 0 0)
  1 by 1 by 1 MPI processor grid
  pair style eam/alloy stores no restart info
  96 atoms
  read_restart CPU = 0.000 seconds
Changing box ...
  triclinic box = (-4.6617854e-06 -6.9926781e-06 -9.3235709e-06) to (8.1000047 12.150007 16.200008) with tilt (0 0 0)
Neighbor list info ...
  update: every = 1 steps, delay = 0 steps, check = yes
  max neighbors/atom: 2000, page size: 100000
  master list distance cutoff = 7.28721
  ghost atom cutoff = 7.28721
  1 neighbor lists, perpetual/occasional/extra = 1 0 0
  (1) pair eam/alloy, perpetual
      attributes: half, newton on
      pair build: half/nsq/newton
      stencil: none
      bin: none
Setting up cg style minimization ...
  Unit style    : metal
  Current step  : 2
Per MPI rank memory allocation (min/avg/max) = 4.447 | 4.447 | 4.447 Mbytes
   Step          Temp          PotEng         Press           Pxx            Pyy            Pzz            Pxy            Pxz            Pyz             Lx             Ly             Lz           Volume    
         2   0             -322.56         0.078994002    0.061579422    0.061578682    0.1138239      7.9868289e-07  3.1983213e-06  1.7198669e-06  8.1000093      12.150014      16.200017      1594.3283    
         3   0             -322.56         0.078972209    0.061558558    0.06155793     0.11380014    -2.57555e-07   -5.3869578e-07 -4.4538238e-07  8.1000093      12.150014      16.200017      1594.3283    
         4   0             -322.56         0.078969263    0.061555575    0.061555386    0.11379683    -9.8321647e-08  9.4900588e-08  8.8501889e-08  8.1000093      12.150014      16.200017      1594.3283    
         5   0             -322.56         0.078968632    0.06155494     0.06155489     0.11379606    -2.7293967e-08 -5.1050329e-09  1.0735005e-08  8.1000093      12.150014      16.200017      1594.3283    
         6   0             -322.56         0.078968504    0.061554793    0.061554803    0.11379592    -4.4663683e-08 -1.5856008e-09  2.0462697e-09  8.1000093      12.150014      16.200017      1594.3283    
         7   0             -322.56         0.078968475    0.061554773    0.061554773    0.11379588    -2.9797597e-08  9.0406132e-10 -4.1906293e-10  8.1000093      12.150014      16.200017      1594.3283    
         8   0             -322.56         0.078968458    0.061554761    0.061554756    0.11379586    -1.5081323e-08 -1.0600374e-09 -1.293222e-10   8.1000093      12.150014      16.200017      1594.3283    
         9   0             -322.56         0.078968447    0.061554752    0.061554748    0.11379584    -6.8419211e-09 -1.898285e-10  -5.3421938e-10  8.1000093      12.150014      16.200017      1594.3283    
        10   0             -322.56         0.078968441    0.061554746    0.061554746    0.11379583    -2.2836682e-09  5.2493428e-10 -3.6882907e-10  8.1000093      12.150014      16.200017      1594.3283    
        11   0             -322.56         0.078968439    0.061554744    0.061554745    0.11379583    -6.9674894e-10  6.0318372e-11 -1.1117832e-10  8.1000093      12.150014      16.200017      1594.3283    
        12   0             -322.56         0.078968438    0.061554744    0.061554744    0.11379583    -2.6185567e-10  7.1778515e-12  9.7901635e-12  8.1000093      12.150014      16.200017      1594.3283    
        13   0             -322.56         0.078968438    0.061554743    0.061554743    0.11379583    -2.4774792e-11  2.1580371e-12  2.0190469e-11  8.1000093      12.150014      16.200017      1594.3283    
        14   0             -322.56         0.078968438    0.061554743    0.061554743    0.11379583    -2.2303091e-11 -7.7422446e-12 -1.0128356e-11  8.1000093      12.150014      16.200017      1594.3283    
        15   0             -322.56         0.078968438    0.061554743    0.061554743    0.11379583    -5.7684914e-12 -4.3128732e-12 -3.8247184e-12  8.1000093      12.150014      16.200017      1594.3283    
        16   0             -322.56         0.078968438    0.061554743    0.061554743    0.11379583     5.2098818e-12 -1.8705897e-11 -1.1502048e-11  8.1000093      12.150014      16.200017      1594.3283    
        17   0             -322.56         0.078968438    0.061554743    0.061554743    0.11379583     8.2570582e-12 -2.2690882e-12  1.4852598e-11  8.1000093      12.150014      16.200017      1594.3283    
        18   0             -322.56         0.078968438    0.061554743    0.061554743    0.11379583     5.2626809e-12 -1.4391329e-11 -1.4141347e-11  8.1000093      12.150014      16.200017      1594.3283    
        19   0             -322.56         0.078968438    0.061554743    0.061554743    0.11379583     1.5217067e-11  1.9802906e-11  1.7547683e-11  8.1000093      12.150014      16.200017      1594.3283    
        20   0             -322.56         0.078968438    0.061554743    0.061554743    0.11379583    -7.9751008e-12 -9.7726248e-12  1.621583e-11   8.1000093      12.150014      16.200017      1594.3283    
        21   0             -322.56         0.078968438    0.061554743    0.061554743    0.11379583     2.3849401e-12 -5.6308611e-12 -3.496985e-11   8.1000093      12.150014      16.200017      1594.3283    
        22   0             -322.56         0.078968438    0.061554743    0.061554743    0.11379583    -7.4581315e-12 -1.533321e-11  -1.3925183e-11  8.1000093      12.150014      16.200017      1594.3283    
        23   0             -322.56         0.078968438    0.061554743    0.061554743    0.11379583    -3.2727103e-11  2.013023e-11   2.2711227e-11  8.1000093      12.150014      16.200017      1594.3283    
        24   0             -322.56         0.078968438    0.061554743    0.061554743    0.11379583    -5.1475032e-12  7.038213e-13  -2.7878258e-11  8.1000093      12.150014      16.200017      1594.3283    
        25   0             -322.56         0.078968438    0.061554743    0.061554743    0.11379583    -1.1001029e-11  5.0320851e-12 -9.7622713e-13  8.1000093      12.150014      16.200017      1594.3283    
        26   0             -322.56         0.078968438    0.061554743    0.061554743    0.11379583    -1.0974374e-11 -7.2889617e-13 -4.3825625e-12  8.1000093      12.150014      16.200017      1594.3283    
        27   0             -322.56         0.078968438    0.061554743    0.061554743    0.11379583    -1.589195e-11   3.4781011e-12  1.9761626e-11  8.1000093      12.150014      16.200017      1594.3283    
Loop time of 0.007502 on 1 procs for 25 steps with 96 atoms

208.3% CPU use with 1 MPI tasks x 1 OpenMP threads

Minimization stats:
  Stopping criterion = force tolerance
  Energy initial, next-to-last, final = 
     -322.559998843117  -322.559998865637  -322.559998865639
  Force two-norm initial, final = 0.00051426273 5.5524275e-11
  Force max component initial, final = 7.9678326e-05 8.3500706e-12
  Final line search alpha, max atom move = 1 8.3500706e-12
  Iterations, force evaluations = 25 50

MPI task timing breakdown:
Section |  min time  |  avg time  |  max time  |%varavg| %total
---------------------------------------------------------------
Pair    | 0.00702    | 0.00702    | 0.00702    |   0.0 | 93.58
Neigh   | 0          | 0          | 0          |   0.0 |  0.00
Comm    | 0.000132   | 0.000132   | 0.000132   |   0.0 |  1.76
Output  | 0.00024    | 0.00024    | 0.00024    |   0.0 |  3.20
Modify  | 0          | 0          | 0          |   0.0 |  0.00
Other   |            | 0.00011    |            |       |  1.47

Nlocal:             96 ave          96 max          96 min
Histogram: 1 0 0 0 0 0 0 0 0 0
Nghost:            976 ave         976 max         976 min
Histogram: 1 0 0 0 0 0 0 0 0 0
Neighs:           4128 ave        4128 max        4128 min
Histogram: 1 0 0 0 0 0 0 0 0 0

Total # of neighbors = 4128
Ave neighs/atom = 43
Neighbor list builds = 0
Dangerous builds = 0
OMP_NUM_THREADS environment is not set. Defaulting to 1 thread. (src/comm.cpp:98)
  using 1 OpenMP thread(s) per MPI task
Loaded 1 plugins from F:\Lammps\LAMMPS 64-bit 2Aug2023\plugins

The 'box' command has been removed and will be ignored

Reading restart file ...
  restart file = 2 Aug 2023, LAMMPS = 2 Aug 2023
  restoring atom style atomic from restart
  triclinic box = (-4.6617854e-06 -6.9926781e-06 -9.3235709e-06) to (8.1000047 12.150007 16.200009) with tilt (0 0 0)
  1 by 1 by 1 MPI processor grid
  pair style eam/alloy stores no restart info
  96 atoms
  read_restart CPU = 0.000 seconds
Changing box ...
  triclinic box = (-4.6617854e-06 -6.9926781e-06 -9.3235709e-06) to (8.1000047 12.150007 16.200011) with tilt (0 0 0)
Neighbor list info ...
  update: every = 1 steps, delay = 0 steps, check = yes
  max neighbors/atom: 2000, page size: 100000
  master list distance cutoff = 7.28721
  ghost atom cutoff = 7.28721
  1 neighbor lists, perpetual/occasional/extra = 1 0 0
  (1) pair eam/alloy, perpetual
      attributes: half, newton on
      pair build: half/nsq/newton
      stencil: none
      bin: none
Setting up cg style minimization ...
  Unit style    : metal
  Current step  : 2
Per MPI rank memory allocation (min/avg/max) = 4.447 | 4.447 | 4.447 Mbytes
   Step          Temp          PotEng         Press           Pxx            Pyy            Pzz            Pxy            Pxz            Pyz             Lx             Ly             Lz           Volume    
         2   0             -322.56        -0.078942867   -0.061530068   -0.061530808   -0.11376773     7.9869278e-07  3.1983091e-06  1.7198716e-06  8.1000093      12.150014      16.20002       1594.3287    
         3   0             -322.56        -0.07896466    -0.061550933   -0.061551561   -0.11379149    -2.575476e-07  -5.3871343e-07 -4.4539248e-07  8.1000093      12.150014      16.20002       1594.3287    
         4   0             -322.56        -0.078967606   -0.061553916   -0.061554104   -0.1137948     -9.8341447e-08  9.4884574e-08  8.8473449e-08  8.1000093      12.150014      16.20002       1594.3287    
         5   0             -322.56        -0.078968238   -0.061554551   -0.061554601   -0.11379556    -2.7299892e-08 -5.1026594e-09  1.0719502e-08  8.1000093      12.150014      16.20002       1594.3287    
         6   0             -322.56        -0.078968366   -0.061554698   -0.061554688   -0.11379571    -4.4649994e-08 -1.5751637e-09  2.0727843e-09  8.1000093      12.150014      16.20002       1594.3287    
         7   0             -322.56        -0.078968395   -0.061554718   -0.061554718   -0.11379575    -2.9805062e-08  9.1283265e-10 -4.3627233e-10  8.1000093      12.150014      16.20002       1594.3287    
         8   0             -322.56        -0.078968412   -0.06155473    -0.061554735   -0.11379577    -1.5081183e-08 -1.067643e-09  -1.331713e-10   8.1000093      12.150014      16.20002       1594.3287    
         9   0             -322.56        -0.078968422   -0.061554739   -0.061554743   -0.11379579    -6.8403143e-09 -2.0959139e-10 -5.3030739e-10  8.1000093      12.150014      16.20002       1594.3287    
        10   0             -322.56        -0.078968428   -0.061554745   -0.061554745   -0.11379579    -2.2871875e-09  5.0885502e-10 -4.0559091e-10  8.1000093      12.150014      16.20002       1594.3287    
        11   0             -322.56        -0.07896843    -0.061554747   -0.061554746   -0.1137958     -6.9203164e-10  4.6205793e-11 -1.1245088e-10  8.1000093      12.150014      16.20002       1594.3287    
        12   0             -322.56        -0.078968431   -0.061554747   -0.061554747   -0.1137958     -3.0704819e-10  1.7048279e-11 -5.355302e-12   8.1000093      12.150014      16.20002       1594.3287    
        13   0             -322.56        -0.078968432   -0.061554748   -0.061554747   -0.1137958     -2.9984327e-11  3.4413809e-11  3.219457e-11   8.1000093      12.150014      16.20002       1594.3287    
        14   0             -322.56        -0.078968432   -0.061554748   -0.061554748   -0.1137958     -1.5256455e-11 -2.2727551e-12  1.7143242e-11  8.1000093      12.150014      16.20002       1594.3287    
        15   0             -322.56        -0.078968432   -0.061554748   -0.061554748   -0.1137958     -1.164245e-11  -1.5365408e-11 -1.7415191e-11  8.1000093      12.150014      16.20002       1594.3287    
        16   0             -322.56        -0.078968432   -0.061554748   -0.061554748   -0.1137958     -8.0435704e-12  4.0009695e-12  3.2947659e-12  8.1000093      12.150014      16.20002       1594.3287    
        17   0             -322.56        -0.078968432   -0.061554748   -0.061554748   -0.1137958     -1.2562784e-11 -1.7798058e-12 -1.2868763e-11  8.1000093      12.150014      16.20002       1594.3287    
        18   0             -322.56        -0.078968432   -0.061554748   -0.061554748   -0.1137958      4.0770482e-12 -1.1190247e-11  9.4031573e-12  8.1000093      12.150014      16.20002       1594.3287    
        19   0             -322.56        -0.078968432   -0.061554748   -0.061554748   -0.1137958      5.5946758e-12  1.6247179e-11 -1.5724227e-12  8.1000093      12.150014      16.20002       1594.3287    
        20   0             -322.56        -0.078968432   -0.061554748   -0.061554748   -0.1137958     -1.0022733e-11 -4.1723994e-12 -3.3101066e-11  8.1000093      12.150014      16.20002       1594.3287    
        21   0             -322.56        -0.078968432   -0.061554748   -0.061554748   -0.1137958      4.6315332e-12  5.7874634e-12  4.3128311e-12  8.1000093      12.150014      16.20002       1594.3287    
        22   0             -322.56        -0.078968432   -0.061554748   -0.061554748   -0.1137958      8.2487788e-12  6.1734542e-12 -9.7622693e-12  8.1000093      12.150014      16.20002       1594.3287    
        23   0             -322.56        -0.078968432   -0.061554748   -0.061554748   -0.1137958      4.4705262e-12 -8.454179e-12  -1.2380649e-11  8.1000093      12.150014      16.20002       1594.3287    
        24   0             -322.56        -0.078968432   -0.061554748   -0.061554748   -0.1137958      7.9999129e-12  2.4029664e-12  1.5542927e-11  8.1000093      12.150014      16.20002       1594.3287    
        25   0             -322.56        -0.078968432   -0.061554748   -0.061554748   -0.1137958      1.0999048e-11 -2.2677796e-11  8.9603686e-13  8.1000093      12.150014      16.20002       1594.3287    
        26   0             -322.56        -0.078968432   -0.061554748   -0.061554748   -0.1137958      3.1384561e-12  9.8059308e-12  6.2862042e-12  8.1000093      12.150014      16.20002       1594.3287    
        27   0             -322.56        -0.078968432   -0.061554748   -0.061554748   -0.1137958     -1.2460472e-11  1.6805323e-12 -5.4041134e-13  8.1000093      12.150014      16.20002       1594.3287    
Loop time of 0.007438 on 1 procs for 25 steps with 96 atoms

210.1% CPU use with 1 MPI tasks x 1 OpenMP threads

Minimization stats:
  Stopping criterion = force tolerance
  Energy initial, next-to-last, final = 
     -322.559998843118  -322.559998865639  -322.559998865639
  Force two-norm initial, final = 0.00051426258 5.5524614e-11
  Force max component initial, final = 7.9678301e-05 8.2866769e-12
  Final line search alpha, max atom move = 1 8.2866769e-12
  Iterations, force evaluations = 25 50

MPI task timing breakdown:
Section |  min time  |  avg time  |  max time  |%varavg| %total
---------------------------------------------------------------
Pair    | 0.006979   | 0.006979   | 0.006979   |   0.0 | 93.83
Neigh   | 0          | 0          | 0          |   0.0 |  0.00
Comm    | 0.000128   | 0.000128   | 0.000128   |   0.0 |  1.72
Output  | 0.000225   | 0.000225   | 0.000225   |   0.0 |  3.03
Modify  | 0          | 0          | 0          |   0.0 |  0.00
Other   |            | 0.000106   |            |       |  1.43

Nlocal:             96 ave          96 max          96 min
Histogram: 1 0 0 0 0 0 0 0 0 0
Nghost:            976 ave         976 max         976 min
Histogram: 1 0 0 0 0 0 0 0 0 0
Neighs:           4128 ave        4128 max        4128 min
Histogram: 1 0 0 0 0 0 0 0 0 0

Total # of neighbors = 4128
Ave neighs/atom = 43
Neighbor list builds = 0
Dangerous builds = 0
OMP_NUM_THREADS environment is not set. Defaulting to 1 thread. (src/comm.cpp:98)
  using 1 OpenMP thread(s) per MPI task
Loaded 1 plugins from F:\Lammps\LAMMPS 64-bit 2Aug2023\plugins

The 'box' command has been removed and will be ignored

Reading restart file ...
  restart file = 2 Aug 2023, LAMMPS = 2 Aug 2023
  restoring atom style atomic from restart
  triclinic box = (-4.6617854e-06 -6.9926781e-06 -9.3235709e-06) to (8.1000047 12.150007 16.200009) with tilt (0 0 0)
  1 by 1 by 1 MPI processor grid
  pair style eam/alloy stores no restart info
  96 atoms
  read_restart CPU = 0.000 seconds
Changing box ...
  triclinic box = (-4.6617854e-06 -6.9926781e-06 -9.3235709e-06) to (8.1000047 12.150007 16.200009) with tilt (0 0 -1.6200019e-06)
Neighbor list info ...
  update: every = 1 steps, delay = 0 steps, check = yes
  max neighbors/atom: 2000, page size: 100000
  master list distance cutoff = 7.28721
  ghost atom cutoff = 7.28721
  1 neighbor lists, perpetual/occasional/extra = 1 0 0
  (1) pair eam/alloy, perpetual
      attributes: half, newton on
      pair build: half/nsq/newton
      stencil: none
      bin: none
Setting up cg style minimization ...
  Unit style    : metal
  Current step  : 2
Per MPI rank memory allocation (min/avg/max) = 4.447 | 4.447 | 4.447 Mbytes
   Step          Temp          PotEng         Press           Pxx            Pyy            Pzz            Pxy            Pxz            Pyz             Lx             Ly             Lz           Volume    
         2   0             -322.56         2.5566346e-05  2.4682108e-05  2.3938985e-05  2.8077945e-05  7.9869492e-07  3.1983078e-06  0.031596295    8.1000093      12.150014      16.200019      1594.3285    
         3   0             -322.56         3.7734061e-06  3.8172041e-06  3.1867649e-06  4.3162494e-06 -2.5755207e-07 -5.3872793e-07  0.03159413     8.1000093      12.150014      16.200019      1594.3285    
         4   0             -322.56         8.2736314e-07  8.3472828e-07  6.4290754e-07  1.0044536e-06 -9.8331771e-08  9.4905473e-08  0.031594664    8.1000093      12.150014      16.200019      1594.3285    
         5   0             -322.56         1.9589392e-07  1.9995466e-07  1.4659236e-07  2.4113473e-07 -2.7297765e-08 -5.0937853e-09  0.031594586    8.1000093      12.150014      16.200019      1594.3285    
         6   0             -322.56         6.793712e-08   5.2258224e-08  5.9817569e-08  9.1735566e-08 -4.4654732e-08 -1.5857255e-09  0.031594577    8.1000093      12.150014      16.200019      1594.3285    
         7   0             -322.56         3.885856e-08   3.251002e-08   2.9392477e-08  5.4673184e-08 -2.9799247e-08  9.1817649e-10  0.031594575    8.1000093      12.150014      16.200019      1594.3285    
         8   0             -322.56         2.2201499e-08  2.0672627e-08  1.2042855e-08  3.3889014e-08 -1.5086698e-08 -1.0558115e-09  0.031594575    8.1000093      12.150014      16.200019      1594.3285    
         9   0             -322.56         1.1350133e-08  1.143811e-08   4.760226e-09   1.7852062e-08 -6.8479737e-09 -2.0130818e-10  0.031594575    8.1000093      12.150014      16.200019      1594.3285    
        10   0             -322.56         5.5274929e-09  5.7335144e-09  2.214564e-09   8.6344004e-09 -2.266363e-09   5.3147171e-10  0.031594575    8.1000093      12.150014      16.200019      1594.3285    
        11   0             -322.56         3.2677625e-09  3.8615201e-09  1.0208476e-09  4.9209199e-09 -6.7809412e-10  5.4099187e-11  0.031594575    8.1000093      12.150014      16.200019      1594.3285    
        12   0             -322.56         2.515253e-09   3.2342488e-09  3.4542748e-10  3.9660827e-09 -2.8737422e-10  3.6745855e-11  0.031594575    8.1000093      12.150014      16.200019      1594.3285    
        13   0             -322.56         2.1842174e-09  3.0313631e-09 -5.2266498e-11  3.5735558e-09 -4.4540614e-11  3.4350994e-11  0.031594575    8.1000093      12.150014      16.200019      1594.3285    
        14   0             -322.56         2.021132e-09   2.8939425e-09 -2.5514042e-10  3.424594e-09  -6.8897809e-12  2.6727961e-11  0.031594575    8.1000093      12.150014      16.200019      1594.3285    
        15   0             -322.56         2.0025308e-09  2.8643993e-09 -2.8818919e-10  3.4313822e-09 -1.7084822e-11 -3.0516061e-12  0.031594575    8.1000093      12.150014      16.200019      1594.3285    
        16   0             -322.56         1.9500448e-09  2.8379058e-09 -3.1015081e-10  3.3223795e-09 -6.0923488e-12  1.2625899e-11  0.031594575    8.1000093      12.150014      16.200019      1594.3285    
        17   0             -322.56         1.9695331e-09  2.8402307e-09 -3.1436602e-10  3.3827347e-09 -1.3934924e-11  2.0040005e-12  0.031594575    8.1000093      12.150014      16.200019      1594.3285    
        18   0             -322.56         1.9575958e-09  2.8376277e-09 -3.032719e-10   3.3384315e-09  9.8016095e-12  1.7065783e-11  0.031594575    8.1000093      12.150014      16.200019      1594.3285    
        19   0             -322.56         1.9641374e-09  2.8278507e-09 -2.8771851e-10  3.35228e-09    5.4410155e-14 -4.2972874e-12  0.031594575    8.1000093      12.150014      16.200019      1594.3285    
        20   0             -322.56         1.9720357e-09  2.852358e-09  -3.1106777e-10  3.3748168e-09  2.1240285e-11 -8.0380928e-12  0.031594575    8.1000093      12.150014      16.200019      1594.3285    
        21   0             -322.56         1.9389935e-09  2.8136704e-09 -3.5421352e-10  3.3575237e-09 -7.4786789e-12  1.5153536e-12  0.031594575    8.1000093      12.150014      16.200019      1594.3285    
        22   0             -322.56         1.9432956e-09  2.8238535e-09 -3.2580183e-10  3.331835e-09   2.464216e-12   7.5573306e-12  0.031594575    8.1000093      12.150014      16.200019      1594.3285    
        23   0             -322.56         1.9484754e-09  2.8477503e-09 -3.5169625e-10  3.3493722e-09 -4.7168501e-12  1.2214729e-11  0.031594575    8.1000093      12.150014      16.200019      1594.3285    
        24   0             -322.56         1.9282179e-09  2.8075239e-09 -3.3989785e-10  3.3170277e-09 -1.3413274e-11 -7.5128341e-12  0.031594575    8.1000093      12.150014      16.200019      1594.3285    
        25   0             -322.56         1.9621222e-09  2.8425533e-09 -3.3702495e-10  3.3808381e-09  8.2405891e-13  6.6732605e-12  0.031594575    8.1000093      12.150014      16.200019      1594.3285    
        26   0             -322.56         1.9371866e-09  2.8036089e-09 -3.3875427e-10  3.346705e-09   2.7096684e-13  2.3509408e-12  0.031594575    8.1000093      12.150014      16.200019      1594.3285    
        27   0             -322.56         1.9569319e-09  2.8471592e-09 -3.0617269e-10  3.3298093e-09 -7.4835567e-12 -1.0016527e-11  0.031594575    8.1000093      12.150014      16.200019      1594.3285    
Loop time of 0.00721 on 1 procs for 25 steps with 96 atoms

0.0% CPU use with 1 MPI tasks x 1 OpenMP threads

Minimization stats:
  Stopping criterion = force tolerance
  Energy initial, next-to-last, final = 
     -322.559998843122  -322.559998865641  -322.559998865642
  Force two-norm initial, final = 0.00051426266 5.5810792e-11
  Force max component initial, final = 7.9678311e-05 8.3310581e-12
  Final line search alpha, max atom move = 1 8.3310581e-12
  Iterations, force evaluations = 25 50

MPI task timing breakdown:
Section |  min time  |  avg time  |  max time  |%varavg| %total
---------------------------------------------------------------
Pair    | 0.006745   | 0.006745   | 0.006745   |   0.0 | 93.55
Neigh   | 0          | 0          | 0          |   0.0 |  0.00
Comm    | 0.000133   | 0.000133   | 0.000133   |   0.0 |  1.84
Output  | 0.000219   | 0.000219   | 0.000219   |   0.0 |  3.04
Modify  | 0          | 0          | 0          |   0.0 |  0.00
Other   |            | 0.000113   |            |       |  1.57

Nlocal:             96 ave          96 max          96 min
Histogram: 1 0 0 0 0 0 0 0 0 0
Nghost:            976 ave         976 max         976 min
Histogram: 1 0 0 0 0 0 0 0 0 0
Neighs:           4128 ave        4128 max        4128 min
Histogram: 1 0 0 0 0 0 0 0 0 0

Total # of neighbors = 4128
Ave neighs/atom = 43
Neighbor list builds = 0
Dangerous builds = 0
OMP_NUM_THREADS environment is not set. Defaulting to 1 thread. (src/comm.cpp:98)
  using 1 OpenMP thread(s) per MPI task
Loaded 1 plugins from F:\Lammps\LAMMPS 64-bit 2Aug2023\plugins

The 'box' command has been removed and will be ignored

Reading restart file ...
  restart file = 2 Aug 2023, LAMMPS = 2 Aug 2023
  restoring atom style atomic from restart
  triclinic box = (-4.6617854e-06 -6.9926781e-06 -9.3235709e-06) to (8.1000047 12.150007 16.200009) with tilt (0 0 0)
  1 by 1 by 1 MPI processor grid
  pair style eam/alloy stores no restart info
  96 atoms
  read_restart CPU = 0.000 seconds
Changing box ...
  triclinic box = (-4.6617854e-06 -6.9926781e-06 -9.3235709e-06) to (8.1000047 12.150007 16.200009) with tilt (0 0 1.6200019e-06)
Neighbor list info ...
  update: every = 1 steps, delay = 0 steps, check = yes
  max neighbors/atom: 2000, page size: 100000
  master list distance cutoff = 7.28721
  ghost atom cutoff = 7.28721
  1 neighbor lists, perpetual/occasional/extra = 1 0 0
  (1) pair eam/alloy, perpetual
      attributes: half, newton on
      pair build: half/nsq/newton
      stencil: none
      bin: none
Setting up cg style minimization ...
  Unit style    : metal
  Current step  : 2
Per MPI rank memory allocation (min/avg/max) = 4.447 | 4.447 | 4.447 Mbytes
   Step          Temp          PotEng         Press           Pxx            Pyy            Pzz            Pxy            Pxz            Pyz             Lx             Ly             Lz           Volume    
         2   0             -322.56         2.5566336e-05  2.4682087e-05  2.3938982e-05  2.8077941e-05  7.9868618e-07  3.1983175e-06 -0.031592855    8.1000093      12.150014      16.200019      1594.3285    
         3   0             -322.56         3.7734029e-06  3.8171962e-06  3.1867645e-06  4.3162479e-06 -2.5754189e-07 -5.3871482e-07 -0.031595021    8.1000093      12.150014      16.200019      1594.3285    
         4   0             -322.56         8.2739183e-07  8.3472856e-07  6.4292705e-07  1.0045199e-06 -9.8350066e-08  9.491384e-08  -0.031594487    8.1000093      12.150014      16.200019      1594.3285    
         5   0             -322.56         1.9587629e-07  1.9994631e-07  1.4657298e-07  2.4110957e-07 -2.7311323e-08 -5.1071676e-09 -0.031594564    8.1000093      12.150014      16.200019      1594.3285    
         6   0             -322.56         6.7933348e-08  5.227429e-08   5.9817196e-08  9.1708559e-08 -4.4667454e-08 -1.5608488e-09 -0.031594573    8.1000093      12.150014      16.200019      1594.3285    
         7   0             -322.56         3.8866534e-08  3.2525919e-08  2.9397804e-08  5.4675879e-08 -2.9799384e-08  9.2136959e-10 -0.031594576    8.1000093      12.150014      16.200019      1594.3285    
         8   0             -322.56         2.2209691e-08  2.067352e-08   1.207991e-08   3.3875643e-08 -1.506697e-08  -1.054684e-09  -0.031594575    8.1000093      12.150014      16.200019      1594.3285    
         9   0             -322.56         1.1317341e-08  1.141458e-08   4.7103512e-09  1.7827091e-08 -6.8433032e-09 -1.8005136e-10 -0.031594576    8.1000093      12.150014      16.200019      1594.3285    
        10   0             -322.56         5.4608073e-09  5.6812897e-09  2.1305911e-09  8.5705412e-09 -2.2833292e-09  5.270266e-10  -0.031594576    8.1000093      12.150014      16.200019      1594.3285    
        11   0             -322.56         3.2641319e-09  3.8829064e-09  1.0025015e-09  4.9069877e-09 -6.805455e-10   4.5308491e-11 -0.031594575    8.1000093      12.150014      16.200019      1594.3285    
        12   0             -322.56         2.5428395e-09  3.2461448e-09  3.8966102e-10  3.9927128e-09 -2.6706879e-10  1.5229525e-11 -0.031594575    8.1000093      12.150014      16.200019      1594.3285    
        13   0             -322.56         2.1712522e-09  3.0139653e-09 -7.0243021e-11  3.5700344e-09 -4.108852e-11   1.6735253e-11 -0.031594575    8.1000093      12.150014      16.200019      1594.3285    
        14   0             -322.56         2.0461176e-09  2.9090845e-09 -2.148083e-10   3.4440767e-09 -2.1093657e-11 -1.05822e-12   -0.031594575    8.1000093      12.150014      16.200019      1594.3285    
        15   0             -322.56         1.9696924e-09  2.8544941e-09 -2.8933975e-10  3.3439228e-09  7.8511491e-12 -6.4178157e-12 -0.031594575    8.1000093      12.150014      16.200019      1594.3285    
        16   0             -322.56         1.9463305e-09  2.8337882e-09 -3.3242971e-10  3.3376331e-09  5.2870665e-12  1.1836632e-11 -0.031594575    8.1000093      12.150014      16.200019      1594.3285    
        17   0             -322.56         1.9474855e-09  2.8257337e-09 -3.3430197e-10  3.3510248e-09 -1.5001801e-12  1.6243427e-11 -0.031594575    8.1000093      12.150014      16.200019      1594.3285    
        18   0             -322.56         1.9483704e-09  2.8300236e-09 -3.1712735e-10  3.332215e-09   9.6613936e-12  4.399484e-12  -0.031594575    8.1000093      12.150014      16.200019      1594.3285    
        19   0             -322.56         1.953271e-09   2.8206406e-09 -3.101543e-10   3.3493269e-09 -1.0901931e-11 -2.7042461e-12 -0.031594575    8.1000093      12.150014      16.200019      1594.3285    
        20   0             -322.56         1.971006e-09   2.8378889e-09 -3.1693908e-10  3.3920682e-09  3.9514926e-12 -1.371128e-12  -0.031594575    8.1000093      12.150014      16.200019      1594.3285    
        21   0             -322.56         1.9677934e-09  2.8387594e-09 -3.0231311e-10  3.3669338e-09 -1.5332812e-12  4.0071782e-11 -0.031594575    8.1000093      12.150014      16.200019      1594.3285    
        22   0             -322.56         1.947061e-09   2.8354427e-09 -3.3723414e-10  3.3429744e-09 -8.2756702e-12 -1.2108386e-11 -0.031594575    8.1000093      12.150014      16.200019      1594.3285    
        23   0             -322.56         1.9824272e-09  2.8505221e-09 -3.0102309e-10  3.3977826e-09 -1.2219777e-11  9.7121789e-12 -0.031594575    8.1000093      12.150014      16.200019      1594.3285    
        24   0             -322.56         1.9539473e-09  2.8265568e-09 -3.0321263e-10  3.3384977e-09  4.7066945e-12  1.0029751e-11 -0.031594575    8.1000093      12.150014      16.200019      1594.3285    
        25   0             -322.56         1.9402907e-09  2.8354548e-09 -3.2908265e-10  3.3145e-09    -4.7227798e-12 -1.4210741e-11 -0.031594575    8.1000093      12.150014      16.200019      1594.3285    
        26   0             -322.56         1.9502738e-09  2.8023294e-09 -3.0476762e-10  3.3532597e-09  4.2638451e-12  1.544176e-11  -0.031594575    8.1000093      12.150014      16.200019      1594.3285    
        27   0             -322.56         1.9434705e-09  2.8149332e-09 -3.3590229e-10  3.3513804e-09  1.4639311e-11  4.8030656e-12 -0.031594575    8.1000093      12.150014      16.200019      1594.3285    
Loop time of 0.007281 on 1 procs for 25 steps with 96 atoms

0.0% CPU use with 1 MPI tasks x 1 OpenMP threads

Minimization stats:
  Stopping criterion = force tolerance
  Energy initial, next-to-last, final = 
     -322.559998843122  -322.559998865642  -322.559998865642
  Force two-norm initial, final = 0.00051426265 5.5328508e-11
  Force max component initial, final = 7.9678316e-05 8.301998e-12
  Final line search alpha, max atom move = 1 8.301998e-12
  Iterations, force evaluations = 25 50

MPI task timing breakdown:
Section |  min time  |  avg time  |  max time  |%varavg| %total
---------------------------------------------------------------
Pair    | 0.006794   | 0.006794   | 0.006794   |   0.0 | 93.31
Neigh   | 0          | 0          | 0          |   0.0 |  0.00
Comm    | 0.000151   | 0.000151   | 0.000151   |   0.0 |  2.07
Output  | 0.000223   | 0.000223   | 0.000223   |   0.0 |  3.06
Modify  | 0          | 0          | 0          |   0.0 |  0.00
Other   |            | 0.000113   |            |       |  1.55

Nlocal:             96 ave          96 max          96 min
Histogram: 1 0 0 0 0 0 0 0 0 0
Nghost:            976 ave         976 max         976 min
Histogram: 1 0 0 0 0 0 0 0 0 0
Neighs:           4128 ave        4128 max        4128 min
Histogram: 1 0 0 0 0 0 0 0 0 0

Total # of neighbors = 4128
Ave neighs/atom = 43
Neighbor list builds = 0
Dangerous builds = 0
OMP_NUM_THREADS environment is not set. Defaulting to 1 thread. (src/comm.cpp:98)
  using 1 OpenMP thread(s) per MPI task
Loaded 1 plugins from F:\Lammps\LAMMPS 64-bit 2Aug2023\plugins

The 'box' command has been removed and will be ignored

Reading restart file ...
  restart file = 2 Aug 2023, LAMMPS = 2 Aug 2023
  restoring atom style atomic from restart
  triclinic box = (-4.6617854e-06 -6.9926781e-06 -9.3235709e-06) to (8.1000047 12.150007 16.200009) with tilt (0 0 0)
  1 by 1 by 1 MPI processor grid
  pair style eam/alloy stores no restart info
  96 atoms
  read_restart CPU = 0.000 seconds
Changing box ...
  triclinic box = (-4.6617854e-06 -6.9926781e-06 -9.3235709e-06) to (8.1000047 12.150007 16.200009) with tilt (0 -1.6200019e-06 0)
Neighbor list info ...
  update: every = 1 steps, delay = 0 steps, check = yes
  max neighbors/atom: 2000, page size: 100000
  master list distance cutoff = 7.28721
  ghost atom cutoff = 7.28721
  1 neighbor lists, perpetual/occasional/extra = 1 0 0
  (1) pair eam/alloy, perpetual
      attributes: half, newton on
      pair build: half/nsq/newton
      stencil: none
      bin: none
Setting up cg style minimization ...
  Unit style    : metal
  Current step  : 2
Per MPI rank memory allocation (min/avg/max) = 4.447 | 4.447 | 4.447 Mbytes
   Step          Temp          PotEng         Press           Pxx            Pyy            Pzz            Pxy            Pxz            Pyz             Lx             Ly             Lz           Volume    
         2   0             -322.56         2.5566372e-05  2.4678946e-05  2.3942233e-05  2.8077938e-05  7.9869023e-07  0.031597773    1.7198746e-06  8.1000093      12.150014      16.200019      1594.3285    
         3   0             -322.56         3.7733902e-06  3.8140074e-06  3.1899224e-06  4.3162407e-06 -2.5757458e-07  0.031594036   -4.4539243e-07  8.1000093      12.150014      16.200019      1594.3285    
         4   0             -322.56         8.273644e-07   8.3154791e-07  6.4607384e-07  1.0044715e-06 -9.8331513e-08  0.03159467     8.8471199e-08  8.1000093      12.150014      16.200019      1594.3285    
         5   0             -322.56         1.9589621e-07  1.9678365e-07  1.4979428e-07  2.4111071e-07 -2.7304527e-08  0.03159457     1.0739648e-08  8.1000093      12.150014      16.200019      1594.3285    
         6   0             -322.56         6.7932108e-08  4.90754e-08    6.3014224e-08  9.1706701e-08 -4.4670506e-08  0.031594574    2.0701696e-09  8.1000093      12.150014      16.200019      1594.3285    
         7   0             -322.56         3.8884712e-08  2.9352916e-08  3.2603821e-08  5.4697397e-08 -2.9804828e-08  0.031594576   -4.27183e-10    8.1000093      12.150014      16.200019      1594.3285    
         8   0             -322.56         2.2203398e-08  1.7472451e-08  1.5252857e-08  3.3884886e-08 -1.5076766e-08  0.031594574   -1.2635516e-10  8.1000093      12.150014      16.200019      1594.3285    
         9   0             -322.56         1.1336356e-08  8.2280474e-09  7.9258269e-09  1.7855192e-08 -6.8569536e-09  0.031594575   -5.3996512e-10  8.1000093      12.150014      16.200019      1594.3285    
        10   0             -322.56         5.4782805e-09  2.5183555e-09  5.3283378e-09  8.5881481e-09 -2.2870172e-09  0.031594576   -3.8329114e-10  8.1000093      12.150014      16.200019      1594.3285    
        11   0             -322.56         3.2571163e-09  6.7650403e-10  4.1739284e-09  4.9209164e-09 -6.7476185e-10  0.031594575   -1.0449464e-10  8.1000093      12.150014      16.200019      1594.3285    
        12   0             -322.56         2.5342275e-09  6.8674925e-11  3.537139e-09   3.9968687e-09 -2.9258148e-10  0.031594575   -1.388683e-11   8.1000093      12.150014      16.200019      1594.3285    
        13   0             -322.56         2.1916524e-09 -1.5083225e-10  3.116556e-09   3.6092334e-09 -9.4539906e-12  0.031594575    1.5783499e-11  8.1000093      12.150014      16.200019      1594.3285    
        14   0             -322.56         2.0648521e-09 -2.4243015e-10  2.9771473e-09  3.4598393e-09  3.3388648e-12  0.031594575    5.205382e-12   8.1000093      12.150014      16.200019      1594.3285    
        15   0             -322.56         1.9926021e-09 -3.2474676e-10  2.9084627e-09  3.3940904e-09 -7.2005363e-12  0.031594575    3.1978408e-11  8.1000093      12.150014      16.200019      1594.3285    
        16   0             -322.56         1.9780061e-09 -3.1956297e-10  2.898038e-09   3.3555433e-09 -7.6762691e-12  0.031594575   -1.3831045e-11  8.1000093      12.150014      16.200019      1594.3285    
        17   0             -322.56         1.9265114e-09 -3.5183757e-10  2.83155e-09    3.2998217e-09 -2.4064448e-12  0.031594575    2.3220257e-12  8.1000093      12.150014      16.200019      1594.3285    
        18   0             -322.56         1.9250618e-09 -3.6723872e-10  2.8635214e-09  3.2789025e-09 -6.0317348e-12  0.031594575    3.3324207e-11  8.1000093      12.150014      16.200019      1594.3285    
        19   0             -322.56         1.962798e-09  -3.6901563e-10  2.8778545e-09  3.379555e-09  -1.5210533e-11  0.031594575    2.2418356e-11  8.1000093      12.150014      16.200019      1594.3285    
        20   0             -322.56         1.9571614e-09 -3.6304317e-10  2.8749049e-09  3.3596226e-09  2.6320964e-12  0.031594575    9.5461058e-12  8.1000093      12.150014      16.200019      1594.3285    
        21   0             -322.56         1.9409917e-09 -3.8033069e-10  2.8717043e-09  3.3316014e-09  3.24416e-12    0.031594575    1.4625973e-11  8.1000093      12.150014      16.200019      1594.3285    
        22   0             -322.56         1.9515031e-09 -3.7256391e-10  2.8586403e-09  3.368433e-09   2.2171078e-12  0.031594575    4.3198046e-12  8.1000093      12.150014      16.200019      1594.3285    
        23   0             -322.56         1.988437e-09  -3.1993503e-10  2.9149442e-09  3.3703018e-09  9.0574542e-12  0.031594575   -1.239111e-11   8.1000093      12.150014      16.200019      1594.3285    
        24   0             -322.56         1.9561777e-09 -3.5118377e-10  2.8761461e-09  3.3435706e-09  5.652302e-12   0.031594575   -1.7352435e-11  8.1000093      12.150014      16.200019      1594.3285    
        25   0             -322.56         1.9275046e-09 -3.5895146e-10  2.8302007e-09  3.3112645e-09  1.0843933e-11  0.031594575   -1.5539442e-11  8.1000093      12.150014      16.200019      1594.3285    
        26   0             -322.56         1.9504041e-09 -3.4406391e-10  2.8689011e-09  3.3263751e-09  3.3796911e-12  0.031594575   -1.8656396e-11  8.1000093      12.150014      16.200019      1594.3285    
        27   0             -322.56         1.9670453e-09 -3.4255421e-10  2.8812399e-09  3.3624501e-09 -8.2642185e-12  0.031594575   -2.9774924e-12  8.1000093      12.150014      16.200019      1594.3285    
Loop time of 0.007118 on 1 procs for 25 steps with 96 atoms

219.5% CPU use with 1 MPI tasks x 1 OpenMP threads

Minimization stats:
  Stopping criterion = force tolerance
  Energy initial, next-to-last, final = 
     -322.559998843122  -322.559998865644  -322.559998865644
  Force two-norm initial, final = 0.00051426267 5.5828811e-11
  Force max component initial, final = 7.967831e-05 8.2872598e-12
  Final line search alpha, max atom move = 1 8.2872598e-12
  Iterations, force evaluations = 25 50

MPI task timing breakdown:
Section |  min time  |  avg time  |  max time  |%varavg| %total
---------------------------------------------------------------
Pair    | 0.006621   | 0.006621   | 0.006621   |   0.0 | 93.02
Neigh   | 0          | 0          | 0          |   0.0 |  0.00
Comm    | 0.000162   | 0.000162   | 0.000162   |   0.0 |  2.28
Output  | 0.000225   | 0.000225   | 0.000225   |   0.0 |  3.16
Modify  | 0          | 0          | 0          |   0.0 |  0.00
Other   |            | 0.00011    |            |       |  1.55

Nlocal:             96 ave          96 max          96 min
Histogram: 1 0 0 0 0 0 0 0 0 0
Nghost:            976 ave         976 max         976 min
Histogram: 1 0 0 0 0 0 0 0 0 0
Neighs:           4128 ave        4128 max        4128 min
Histogram: 1 0 0 0 0 0 0 0 0 0

Total # of neighbors = 4128
Ave neighs/atom = 43
Neighbor list builds = 0
Dangerous builds = 0
OMP_NUM_THREADS environment is not set. Defaulting to 1 thread. (src/comm.cpp:98)
  using 1 OpenMP thread(s) per MPI task
Loaded 1 plugins from F:\Lammps\LAMMPS 64-bit 2Aug2023\plugins

The 'box' command has been removed and will be ignored

Reading restart file ...
  restart file = 2 Aug 2023, LAMMPS = 2 Aug 2023
  restoring atom style atomic from restart
  triclinic box = (-4.6617854e-06 -6.9926781e-06 -9.3235709e-06) to (8.1000047 12.150007 16.200009) with tilt (0 0 0)
  1 by 1 by 1 MPI processor grid
  pair style eam/alloy stores no restart info
  96 atoms
  read_restart CPU = 0.000 seconds
Changing box ...
  triclinic box = (-4.6617854e-06 -6.9926781e-06 -9.3235709e-06) to (8.1000047 12.150007 16.200009) with tilt (0 1.6200019e-06 0)
Neighbor list info ...
  update: every = 1 steps, delay = 0 steps, check = yes
  max neighbors/atom: 2000, page size: 100000
  master list distance cutoff = 7.28721
  ghost atom cutoff = 7.28721
  1 neighbor lists, perpetual/occasional/extra = 1 0 0
  (1) pair eam/alloy, perpetual
      attributes: half, newton on
      pair build: half/nsq/newton
      stencil: none
      bin: none
Setting up cg style minimization ...
  Unit style    : metal
  Current step  : 2
Per MPI rank memory allocation (min/avg/max) = 4.447 | 4.447 | 4.447 Mbytes
[...]
        26   0             -322.56         1.9507723e-09 -3.7307238e-10  2.8694625e-09  3.3559269e-09 -2.9715742e-12 -0.031594575   -6.8510218e-12  8.1000093      12.150014      16.200019      1594.3285    
        27   0             -322.56         1.9634644e-09 -3.58408e-10    2.8949838e-09  3.3538175e-09  5.0390481e-12 -0.031594575    1.3527717e-11  8.1000093      12.150014      16.200019      1594.3285    
Loop time of 0.007055 on 1 procs for 25 steps with 96 atoms

0.0% CPU use with 1 MPI tasks x 1 OpenMP threads

Minimization stats:
  Stopping criterion = force tolerance
  Energy initial, next-to-last, final = 
     -322.559998843121  -322.559998865643  -322.559998865642
  Force two-norm initial, final = 0.00051426264 5.5160473e-11
  Force max component initial, final = 7.9678317e-05 8.31335e-12
  Final line search alpha, max atom move = 1 8.31335e-12
  Iterations, force evaluations = 25 50

MPI task timing breakdown:
Section |  min time  |  avg time  |  max time  |%varavg| %total
---------------------------------------------------------------
Pair    | 0.006582   | 0.006582   | 0.006582   |   0.0 | 93.30
Neigh   | 0          | 0          | 0          |   0.0 |  0.00
Comm    | 0.000133   | 0.000133   | 0.000133   |   0.0 |  1.89
Output  | 0.000227   | 0.000227   | 0.000227   |   0.0 |  3.22
Modify  | 0          | 0          | 0          |   0.0 |  0.00
Other   |            | 0.000113   |            |       |  1.60

Nlocal:             96 ave          96 max          96 min
Histogram: 1 0 0 0 0 0 0 0 0 0
Nghost:            976 ave         976 max         976 min
Histogram: 1 0 0 0 0 0 0 0 0 0
Neighs:           4128 ave        4128 max        4128 min
Histogram: 1 0 0 0 0 0 0 0 0 0

Total # of neighbors = 4128
Ave neighs/atom = 43
Neighbor list builds = 0
Dangerous builds = 0
OMP_NUM_THREADS environment is not set. Defaulting to 1 thread. (src/comm.cpp:98)
  using 1 OpenMP thread(s) per MPI task
Loaded 1 plugins from F:\Lammps\LAMMPS 64-bit 2Aug2023\plugins

The 'box' command has been removed and will be ignored

Reading restart file ...
  restart file = 2 Aug 2023, LAMMPS = 2 Aug 2023
  restoring atom style atomic from restart
  triclinic box = (-4.6617854e-06 -6.9926781e-06 -9.3235709e-06) to (8.1000047 12.150007 16.200009) with tilt (0 0 0)
  1 by 1 by 1 MPI processor grid
  pair style eam/alloy stores no restart info
  96 atoms
  read_restart CPU = 0.000 seconds
Changing box ...
  triclinic box = (-4.6617854e-06 -6.9926781e-06 -9.3235709e-06) to (8.1000047 12.150007 16.200009) with tilt (-1.2150014e-06 0 0)
Neighbor list info ...
  update: every = 1 steps, delay = 0 steps, check = yes
  max neighbors/atom: 2000, page size: 100000
  master list distance cutoff = 7.28721
  ghost atom cutoff = 7.28721
  1 neighbor lists, perpetual/occasional/extra = 1 0 0
  (1) pair eam/alloy, perpetual
      attributes: half, newton on
      pair build: half/nsq/newton
      stencil: none
      bin: none
Setting up cg style minimization ...
  Unit style    : metal
  Current step  : 2
Per MPI rank memory allocation (min/avg/max) = 4.447 | 4.447 | 4.447 Mbytes
   Step          Temp          PotEng         Press           Pxx            Pyy            Pzz            Pxy            Pxz            Pyz             Lx             Ly             Lz           Volume    
         2   0             -322.56         2.5566316e-05  2.46789e-05    2.3942659e-05  2.8077388e-05  0.031595374    3.1983249e-06  1.7198647e-06  8.1000093      12.150014      16.200019      1594.3285    
         3   0             -322.56         3.773389e-06   3.8140083e-06  3.1904542e-06  4.3157045e-06  0.031594318   -5.3871473e-07 -4.4539506e-07  8.1000093      12.150014      16.200019      1594.3285    
         4   0             -322.56         8.2740616e-07  8.3156587e-07  6.4665822e-07  1.0039944e-06  0.031594477    9.4903379e-08  8.8461119e-08  8.1000093      12.150014      16.200019      1594.3285    
         5   0             -322.56         1.958822e-07   1.9677671e-07  1.503059e-07   2.4056398e-07  0.031594548   -5.0889713e-09  1.072407e-08   8.1000093      12.150014      16.200019      1594.3285    
         6   0             -322.56         6.7912216e-08  4.9065369e-08  6.3513882e-08  9.1157396e-08  0.031594531   -1.5648468e-09  2.0770555e-09  8.1000093      12.150014      16.200019      1594.3285    
         7   0             -322.56         3.8863063e-08  2.9342589e-08  3.3102677e-08  5.4143922e-08  0.031594545    9.2690242e-10 -4.3691738e-10  8.1000093      12.150014      16.200019      1594.3285    
         8   0             -322.56         2.2199022e-08  1.7500131e-08  1.5760662e-08  3.3336274e-08  0.03159456    -1.0567895e-09 -1.6398174e-10  8.1000093      12.150014      16.200019      1594.3285    
         9   0             -322.56         1.1320427e-08  8.2180132e-09  8.4515635e-09  1.7291704e-08  0.031594568   -2.06228e-10   -5.358545e-10   8.1000093      12.150014      16.200019      1594.3285    
        10   0             -322.56         5.4772996e-09  2.5107549e-09  5.8749587e-09  8.0461852e-09  0.031594573    5.2288025e-10 -4.056572e-10   8.1000093      12.150014      16.200019      1594.3285    
        11   0             -322.56         3.26466e-09    6.8076456e-10  4.7209224e-09  4.392293e-09   0.031594574    1.7706455e-11 -9.3243628e-11  8.1000093      12.150014      16.200019      1594.3285    
        12   0             -322.56         2.5501215e-09  8.6118008e-11  4.0637682e-09  3.5004782e-09  0.031594575    8.9010748e-12 -7.6006247e-12  8.1000093      12.150014      16.200019      1594.3285    
        13   0             -322.56         2.1525789e-09 -1.5877456e-10  3.5863199e-09  3.0301913e-09  0.031594575   -2.4163158e-11  3.2093464e-11  8.1000093      12.150014      16.200019      1594.3285    
        14   0             -322.56         1.9997157e-09 -3.3651403e-10  3.4249531e-09  2.9107081e-09  0.031594575   -8.555801e-12   7.6703553e-13  8.1000093      12.150014      16.200019      1594.3285    
        15   0             -322.56         1.9730264e-09 -3.600025e-10   3.4142773e-09  2.8648045e-09  0.031594575   -1.1475114e-11  8.1619553e-12  8.1000093      12.150014      16.200019      1594.3285    
        16   0             -322.56         1.9734388e-09 -3.5003171e-10  3.4078831e-09  2.862465e-09   0.031594575   -8.098621e-12  -5.3692487e-13  8.1000093      12.150014      16.200019      1594.3285    
        17   0             -322.56         1.9577227e-09 -3.4871016e-10  3.4024127e-09  2.8194657e-09  0.031594575    2.0934405e-11  6.1014189e-12  8.1000093      12.150014      16.200019      1594.3285    
        18   0             -322.56         1.9454498e-09 -3.7859433e-10  3.3787601e-09  2.8361836e-09  0.031594575   -9.7443873e-12  8.3293085e-12  8.1000093      12.150014      16.200019      1594.3285    
        19   0             -322.56         1.9602912e-09 -3.5150281e-10  3.4082457e-09  2.8241307e-09  0.031594575    6.7178595e-12  9.573998e-12   8.1000093      12.150014      16.200019      1594.3285    
        20   0             -322.56         1.9521943e-09 -3.6416235e-10  3.3689699e-09  2.8517753e-09  0.031594575   -1.2590723e-11 -1.3189525e-11  8.1000093      12.150014      16.200019      1594.3285    
        21   0             -322.56         1.9459541e-09 -3.5146227e-10  3.3608917e-09  2.828433e-09   0.031594575   -1.0426219e-11 -3.5876343e-12  8.1000093      12.150014      16.200019      1594.3285    
        22   0             -322.56         1.9443476e-09 -3.5562288e-10  3.3909839e-09  2.7976819e-09  0.031594575   -4.502655e-12   9.235805e-12   8.1000093      12.150014      16.200019      1594.3285    
        23   0             -322.56         1.9810607e-09 -3.4114007e-10  3.436884e-09   2.8474381e-09  0.031594575   -7.5517924e-12  1.568239e-11   8.1000093      12.150014      16.200019      1594.3285    
        24   0             -322.56         1.9696287e-09 -3.4041389e-10  3.4083224e-09  2.8409776e-09  0.031594575   -1.4630913e-11 -9.9017313e-13  8.1000093      12.150014      16.200019      1594.3285    
        25   0             -322.56         1.9416715e-09 -3.6045067e-10  3.3670454e-09  2.8184197e-09  0.031594575    3.4331726e-12  1.6763213e-11  8.1000093      12.150014      16.200019      1594.3285    
        26   0             -322.56         1.9606533e-09 -3.5062206e-10  3.3767065e-09  2.8558755e-09  0.031594575    2.5084569e-11  1.6128665e-11  8.1000093      12.150014      16.200019      1594.3285    
        27   0             -322.56         1.977004e-09  -3.4514469e-10  3.4120076e-09  2.864149e-09   0.031594575   -2.392937e-11   1.8729613e-11  8.1000093      12.150014      16.200019      1594.3285    
Loop time of 0.007248 on 1 procs for 25 steps with 96 atoms

0.0% CPU use with 1 MPI tasks x 1 OpenMP threads

Minimization stats:
  Stopping criterion = force tolerance
  Energy initial, next-to-last, final = 
     -322.559998843123  -322.559998865642  -322.559998865642
  Force two-norm initial, final = 0.00051426265 5.5094118e-11
  Force max component initial, final = 7.967831e-05 8.3829055e-12
  Final line search alpha, max atom move = 1 8.3829055e-12
  Iterations, force evaluations = 25 50

MPI task timing breakdown:
Section |  min time  |  avg time  |  max time  |%varavg| %total
---------------------------------------------------------------
Pair    | 0.006782   | 0.006782   | 0.006782   |   0.0 | 93.57
Neigh   | 0          | 0          | 0          |   0.0 |  0.00
Comm    | 0.000131   | 0.000131   | 0.000131   |   0.0 |  1.81
Output  | 0.000226   | 0.000226   | 0.000226   |   0.0 |  3.12
Modify  | 0          | 0          | 0          |   0.0 |  0.00
Other   |            | 0.000109   |            |       |  1.50

Nlocal:             96 ave          96 max          96 min
Histogram: 1 0 0 0 0 0 0 0 0 0
Nghost:            976 ave         976 max         976 min
Histogram: 1 0 0 0 0 0 0 0 0 0
Neighs:           4128 ave        4128 max        4128 min
Histogram: 1 0 0 0 0 0 0 0 0 0

Total # of neighbors = 4128
Ave neighs/atom = 43
Neighbor list builds = 0
Dangerous builds = 0
OMP_NUM_THREADS environment is not set. Defaulting to 1 thread. (src/comm.cpp:98)
  using 1 OpenMP thread(s) per MPI task
Loaded 1 plugins from F:\Lammps\LAMMPS 64-bit 2Aug2023\plugins

The 'box' command has been removed and will be ignored

Reading restart file ...
  restart file = 2 Aug 2023, LAMMPS = 2 Aug 2023
  restoring atom style atomic from restart
  triclinic box = (-4.6617854e-06 -6.9926781e-06 -9.3235709e-06) to (8.1000047 12.150007 16.200009) with tilt (0 0 0)
  1 by 1 by 1 MPI processor grid
  pair style eam/alloy stores no restart info
  96 atoms
  read_restart CPU = 0.000 seconds
Changing box ...
  triclinic box = (-4.6617854e-06 -6.9926781e-06 -9.3235709e-06) to (8.1000047 12.150007 16.200009) with tilt (1.2150014e-06 0 0)
Neighbor list info ...
  update: every = 1 steps, delay = 0 steps, check = yes
  max neighbors/atom: 2000, page size: 100000
  master list distance cutoff = 7.28721
  ghost atom cutoff = 7.28721
  1 neighbor lists, perpetual/occasional/extra = 1 0 0
  (1) pair eam/alloy, perpetual
      attributes: half, newton on
      pair build: half/nsq/newton
      stencil: none
      bin: none
Setting up cg style minimization ...
  Unit style    : metal
  Current step  : 2
Per MPI rank memory allocation (min/avg/max) = 4.447 | 4.447 | 4.447 Mbytes
   Step          Temp          PotEng         Press           Pxx            Pyy            Pzz            Pxy            Pxz            Pyz             Lx             Ly             Lz           Volume    
         2   0             -322.56         2.5566306e-05  2.4678886e-05  2.394265e-05   2.8077384e-05 -0.031593776    3.1983168e-06  1.7198546e-06  8.1000093      12.150014      16.200019      1594.3285    
         3   0             -322.56         3.7734533e-06  3.8140671e-06  3.1905164e-06  4.3157763e-06 -0.031594833   -5.387151e-07  -4.4537059e-07  8.1000093      12.150014      16.200019      1594.3285    
         4   0             -322.56         8.2740009e-07  8.315791e-07   6.4662785e-07  1.0039933e-06 -0.031594673    9.4878287e-08  8.8503128e-08  8.1000093      12.150014      16.200019      1594.3285    
         5   0             -322.56         1.9589313e-07  1.9679176e-07  1.502932e-07   2.4059441e-07 -0.031594602   -5.0861111e-09  1.0720758e-08  8.1000093      12.150014      16.200019      1594.3285    
         6   0             -322.56         6.7874558e-08  4.9026403e-08  6.3476747e-08  9.1120526e-08 -0.03159462    -1.5717908e-09  2.078858e-09   8.1000093      12.150014      16.200019      1594.3285    
         7   0             -322.56         3.8904817e-08  2.9370658e-08  3.3148249e-08  5.4195544e-08 -0.031594605    9.4101367e-10 -4.5940198e-10  8.1000093      12.150014      16.200019      1594.3285    
         8   0             -322.56         2.221298e-08   1.7498327e-08  1.5787463e-08  3.3353149e-08 -0.03159459    -1.0565195e-09 -1.4906638e-10  8.1000093      12.150014      16.200019      1594.3285    
         9   0             -322.56         1.1339696e-08  8.2243063e-09  8.4684383e-09  1.7326342e-08 -0.031594582   -2.0151409e-10 -5.4200473e-10  8.1000093      12.150014      16.200019      1594.3285    
        10   0             -322.56         5.4751302e-09  2.5105677e-09  5.864004e-09   8.0508188e-09 -0.031594577    5.5159013e-10 -4.0608953e-10  8.1000093      12.150014      16.200019      1594.3285    
        11   0             -322.56         3.2828437e-09  6.611538e-10   4.753096e-09   4.4342812e-09 -0.031594576    4.4908072e-11 -5.5923863e-11  8.1000093      12.150014      16.200019      1594.3285    
        12   0             -322.56         2.5356913e-09  6.8349039e-11  4.0552157e-09  3.4835093e-09 -0.031594575    6.0304536e-12  1.0030733e-11  8.1000093      12.150014      16.200019      1594.3285    
        13   0             -322.56         2.1846993e-09 -1.4803185e-10  3.6434536e-09  3.0586762e-09 -0.031594575    2.3177989e-11  3.0057333e-11  8.1000093      12.150014      16.200019      1594.3285    
        14   0             -322.56         2.0386946e-09 -2.9847737e-10  3.5053593e-09  2.9092019e-09 -0.031594575   -4.0702912e-12  2.0465902e-11  8.1000093      12.150014      16.200019      1594.3285    
        15   0             -322.56         1.9688396e-09 -3.4889996e-10  3.4094206e-09  2.8459982e-09 -0.031594575   -3.1195008e-12 -1.0428197e-11  8.1000093      12.150014      16.200019      1594.3285    
        16   0             -322.56         1.950085e-09  -3.5418716e-10  3.3906143e-09  2.813828e-09  -0.031594575   -2.4920867e-11  6.2164743e-12  8.1000093      12.150014      16.200019      1594.3285    
        17   0             -322.56         1.9412114e-09 -3.5457208e-10  3.3543056e-09  2.8239006e-09 -0.031594575   -1.3819132e-11  3.2076031e-13  8.1000093      12.150014      16.200019      1594.3285    
        18   0             -322.56         1.9312122e-09 -3.6568306e-10  3.3530853e-09  2.8062343e-09 -0.031594575   -3.7457658e-12  1.6738807e-11  8.1000093      12.150014      16.200019      1594.3285    
        19   0             -322.56         1.9244056e-09 -3.8696067e-10  3.3592391e-09  2.8009383e-09 -0.031594575   -1.0037463e-11  3.3889024e-12  8.1000093      12.150014      16.200019      1594.3285    
        20   0             -322.56         1.9510673e-09 -3.5667923e-10  3.384987e-09   2.8248942e-09 -0.031594575    2.5610477e-11  1.9308376e-11  8.1000093      12.150014      16.200019      1594.3285    
        21   0             -322.56         1.9590024e-09 -3.612335e-10   3.3829579e-09  2.8552828e-09 -0.031594575    1.5352864e-11  4.3616429e-12  8.1000093      12.150014      16.200019      1594.3285    
        22   0             -322.56         1.9600353e-09 -3.6783781e-10  3.4303293e-09  2.8176144e-09 -0.031594575    1.9812376e-12  2.4789194e-11  8.1000093      12.150014      16.200019      1594.3285    
        23   0             -322.56         1.9501163e-09 -3.4791537e-10  3.3696986e-09  2.8285655e-09 -0.031594575    9.7590745e-12 -1.8736586e-11  8.1000093      12.150014      16.200019      1594.3285    
        24   0             -322.56         1.9741609e-09 -3.4552581e-10  3.4102121e-09  2.8577966e-09 -0.031594575    7.6510154e-12 -5.8085508e-12  8.1000093      12.150014      16.200019      1594.3285    
        25   0             -322.56         1.9773849e-09 -3.5061926e-10  3.4131582e-09  2.8696159e-09 -0.031594575    1.4794767e-11 -1.1613615e-11  8.1000093      12.150014      16.200019      1594.3285    
        26   0             -322.56         1.9511419e-09 -3.4222361e-10  3.4077924e-09  2.7878569e-09 -0.031594575   -1.771626e-11  -1.1003473e-11  8.1000093      12.150014      16.200019      1594.3285    
        27   0             -322.56         1.9646289e-09 -3.268933e-10   3.3888152e-09  2.8319649e-09 -0.031594575    2.6189021e-13 -1.4315672e-11  8.1000093      12.150014      16.200019      1594.3285    
Loop time of 0.007442 on 1 procs for 25 steps with 96 atoms

0.0% CPU use with 1 MPI tasks x 1 OpenMP threads

Minimization stats:
  Stopping criterion = force tolerance
  Energy initial, next-to-last, final = 
     -322.559998843122  -322.559998865642  -322.559998865643
  Force two-norm initial, final = 0.00051426266 5.5997395e-11
  Force max component initial, final = 7.9678317e-05 8.2554519e-12
  Final line search alpha, max atom move = 1 8.2554519e-12
  Iterations, force evaluations = 25 50

MPI task timing breakdown:
Section |  min time  |  avg time  |  max time  |%varavg| %total
---------------------------------------------------------------
Pair    | 0.00698    | 0.00698    | 0.00698    |   0.0 | 93.79
Neigh   | 0          | 0          | 0          |   0.0 |  0.00
Comm    | 0.000134   | 0.000134   | 0.000134   |   0.0 |  1.80
Output  | 0.000225   | 0.000225   | 0.000225   |   0.0 |  3.02
Modify  | 0          | 0          | 0          |   0.0 |  0.00
Other   |            | 0.000103   |            |       |  1.38

Nlocal:             96 ave          96 max          96 min
Histogram: 1 0 0 0 0 0 0 0 0 0
Nghost:            976 ave         976 max         976 min
Histogram: 1 0 0 0 0 0 0 0 0 0
Neighs:           4128 ave        4128 max        4128 min
Histogram: 1 0 0 0 0 0 0 0 0 0

Total # of neighbors = 4128
Ave neighs/atom = 43
Neighbor list builds = 0
Dangerous builds = 0
=========================================
Components of the Elastic Constant Tensor
=========================================
Elastic Constant C11all = 113.795813431379 GPa
Elastic Constant C22all = 113.795813494377 GPa
Elastic Constant C33all = 113.795813410191 GPa
Elastic Constant C12all = 61.554745487421 GPa
Elastic Constant C13all = 61.5547454699144 GPa
Elastic Constant C23all = 61.5547454784651 GPa
Elastic Constant C44all = 31.5945751426148 GPa
Elastic Constant C55all = 31.5945751625102 GPa
Elastic Constant C66all = 31.5945751580089 GPa
Elastic Constant C14all = 6.85189357261909e-09 GPa
Elastic Constant C15all = 5.5534152459666e-09 GPa
Elastic Constant C16all = -2.9004372633708e-09 GPa
Elastic Constant C24all = 8.34325355380793e-09 GPa
Elastic Constant C25all = -2.07848106187918e-09 GPa
Elastic Constant C26all = 3.73132257904905e-09 GPa
Elastic Constant C34all = -3.17273304848149e-10 GPa
Elastic Constant C35all = 2.60755125469029e-09 GPa
Elastic Constant C36all = 7.18815871504688e-09 GPa
Elastic Constant C45all = -7.83120071297959e-09 GPa
Elastic Constant C46all = 2.73060439898125e-09 GPa
Elastic Constant C56all = -9.37363158173555e-09 GPa
=========================================
Average properties for a cubic crystal
=========================================
Bulk Modulus = 78.9684348008388 GPa
Shear Modulus 1 = 31.594575154378 GPa
Shear Modulus 2 = 26.1205339833579 GPa
Poisson Ratio = 0.351038205160832
Total wall time: 0:00:00
