LAMMPS (2 Aug 2023 - Update 3)
OMP_NUM_THREADS environment is not set. Defaulting to 1 thread. (src/comm.cpp:98)
  using 1 OpenMP thread(s) per MPI task
Loaded 1 plugins from F:\Lammps\LAMMPS 64-bit 2Aug2023\plugins
Lattice spacing in x,y,z = 3.21 5.5598831 5.241908
Created triclinic box = (0 0 0) to (6.42 16.679649 20.967632) with tilt (0 0 0)
  1 by 1 by 1 MPI processor grid
Created 96 atoms
  using lattice units in triclinic box = (0 0 0) to (6.42 16.679649 20.967632) with tilt (0 0 0)
  create_atoms CPU = 0.000 seconds
Neighbor list info ...
  update: every = 1 steps, delay = 0 steps, check = yes
  max neighbors/atom: 2000, page size: 100000
  master list distance cutoff = 8.5
  ghost atom cutoff = 8.5
  1 neighbor lists, perpetual/occasional/extra = 1 0 0
  (1) pair eam/alloy, perpetual
      attributes: half, newton on
      pair build: half/nsq/newton
      stencil: none
      bin: none
Setting up cg style minimization ...
  Unit style    : metal
  Current step  : 0
WARNING: Energy due to 3 extra global DOFs will be included in minimizer energies
 (src/min.cpp:228)
Per MPI rank memory allocation (min/avg/max) = 4.472 | 4.472 | 4.472 Mbytes
   Step          Temp          PotEng         Press           Pxx            Pyy            Pzz            Pxy            Pxz            Pyz             Lx             Ly             Lz           Volume    
         0   0             -146.56845     -9864.3832     -9673.7539     -9673.7539     -10245.642     -2.4955128e-12  2.5747355e-12 -2.9708486e-13  6.42           16.679649      20.967632      2245.2843    
         1   0             -146.57242     -9756.6247     -9563.4759     -9563.4759     -10142.922     -3.1500093e-12 -9.7670099e-12  2.1029779e-11  6.4193938      16.678074      20.965535      2244.6358    
         2   0             -146.57635     -9647.857      -9452.1746     -9452.1746     -10039.222      1.7562903e-11  7.2530578e-12  1.2881114e-12  6.4187885      16.676502      20.963439      2243.9881    
         3   0             -146.58023     -9538.7815     -9340.2259     -9340.2259     -9935.8925     -6.5910854e-13 -5.0349946e-12  4.2817277e-12  6.4181841      16.674931      20.961342      2243.3411    
         4   0             -146.58406     -9431.1326     -9229.8164     -9229.8164     -9833.765       1.5233264e-11  3.0535929e-12  3.3272265e-11  6.4175806      16.673363      20.959245      2242.6948    
         5   0             -146.58784     -9323.2119     -9119.4704     -9119.4704     -9730.695       7.5469258e-12  2.5586161e-12 -1.8842522e-12  6.416978       16.671798      20.957148      2242.0494    
         6   0             -146.59157     -9216.6124     -9010.1468     -9010.1468     -9629.5435     -9.0222119e-12  1.9046341e-12  2.1754492e-11  6.4163763      16.670235      20.955052      2241.4047    
         7   0             -146.59526     -9109.3171     -8900.4154     -8900.4154     -9527.1203     -1.3395806e-13 -7.3230409e-12 -1.5370448e-11  6.4157757      16.668674      20.952955      2240.7608    
         8   0             -146.5989      -9001.3603     -8789.6154     -8789.6154     -9424.8501      5.6973336e-12  4.5459561e-12 -1.5106867e-11  6.4151759      16.667116      20.950858      2240.1177    
         9   0             -146.60249     -8895.2656     -8681.1149     -8681.1149     -9323.5672      5.7783956e-12  5.1429707e-12  5.8379667e-12  6.4145772      16.66556       20.948761      2239.4755    
        10   0             -146.60603     -8787.8035     -8571.2943     -8571.2943     -9220.8219      2.0458601e-12  2.1451736e-12 -4.0420633e-12  6.4139795      16.664008      20.946665      2238.834     
        11   0             -146.60953     -8680.4544     -8460.9889     -8460.9889     -9119.3854     -1.2040253e-11 -6.8943363e-12  4.4405883e-12  6.4133828      16.662457      20.944568      2238.1934    
        12   0             -146.61298     -8574.1671     -8352.0707     -8352.0707     -9018.36        4.8592137e-12 -4.9883953e-12  8.3968008e-12  6.4127871      16.66091       20.942471      2237.5537    
        13   0             -146.61638     -8469.5129     -8245.1839     -8245.1839     -8918.1711     -1.3518237e-12  7.0175555e-12 -2.7632867e-12  6.4121926      16.659365      20.940374      2236.9148    
        14   0             -146.61974     -8363.3443     -8136.6345     -8136.6345     -8816.7638     -7.6558914e-13 -2.346481e-12   9.7935754e-12  6.4115991      16.657823      20.938278      2236.2768    
        15   0             -146.62304     -8255.4003     -8026.2591     -8026.2591     -8713.6827     -2.2476942e-11  5.6490722e-12  1.7156073e-11  6.4110067      16.656284      20.936181      2235.6397    
        16   0             -146.62631     -8148.9875     -7917.1021     -7917.1021     -8612.7581      1.2495166e-11 -1.750915e-12   4.7752228e-13  6.4104154      16.654748      20.934084      2235.0034    
        17   0             -146.62952     -8044.6833     -7810.2014     -7810.2014     -8513.6471      1.6384666e-11  5.3736531e-12  1.0538331e-11  6.4098253      16.653215      20.931987      2234.3682    
        18   0             -146.63269     -7940.75       -7704.2691     -7704.2691     -8413.7118     -6.9628476e-12  1.6722779e-12 -2.2187544e-11  6.4092364      16.651685      20.92989       2233.7339    
        19   0             -146.63582     -7834.6993     -7595.8697     -7595.8697     -8312.3584      2.2696659e-11 -1.4138739e-12 -1.3640896e-12  6.4086486      16.650158      20.927794      2233.1004    
        20   0             -146.63889     -7728.1906     -7487.3524     -7487.3524     -8209.867      -8.4806671e-12 -5.6969367e-12  2.0616537e-11  6.4080621      16.648634      20.925697      2232.468     
        21   0             -146.64193     -7623.4722     -7379.9272     -7379.9272     -8110.5624     -6.6698923e-12 -3.6064242e-12 -2.4298532e-11  6.4074766      16.647113      20.9236        2231.8364    
        22   0             -146.64491     -7519.5298     -7273.2329     -7273.2329     -8012.1235      4.5342174e-13 -1.6343113e-12 -5.1819627e-13  6.4068926      16.645595      20.921503      2231.2059    
        23   0             -146.64785     -7415.7555     -7167.5484     -7167.5484     -7912.1697     -6.6786437e-12  2.8508837e-12  9.4298461e-12  6.4063099      16.644081      20.919407      2230.5765    
        24   0             -146.65075     -7311.5991     -7061.7158     -7061.7158     -7811.3658      2.8467017e-12  2.2135474e-12 -9.0934919e-12  6.4057284      16.642571      20.91731       2229.9481    
        25   0             -146.6536      -7207.8811     -6955.773      -6955.773      -7712.0974     -1.0622034e-11  1.5160086e-12  9.2057626e-12  6.4051481      16.641063      20.915213      2229.3206    
        26   0             -146.6564      -7103.4914     -6849.0107     -6849.0107     -7612.4527     -6.7092258e-12 -1.085448e-11   3.5915558e-13  6.4045692      16.639559      20.913116      2228.6942    
        27   0             -146.65916     -6999.8613     -6743.1869     -6743.1869     -7513.2102     -8.3078038e-12 -2.2952491e-12 -1.8621456e-11  6.4039917      16.638058      20.91102       2228.0689    
        28   0             -146.66188     -6897.2087     -6638.4493     -6638.4493     -7414.7275      8.3650337e-12  7.7860696e-13  9.8124441e-12  6.4034156      16.636562      20.908923      2227.4447    
        29   0             -146.66455     -6794.1538     -6533.3766     -6533.3766     -7315.7083     -1.2705828e-11 -6.9894536e-13 -1.503731e-11   6.4028409      16.635069      20.906826      2226.8215    
        30   0             -146.66717     -6690.7955     -6428.5986     -6428.5986     -7215.1893      1.1985268e-13  1.0986496e-12 -3.3458873e-12  6.4022677      16.633579      20.904729      2226.1996    
        31   0             -146.66975     -6588.1525     -6323.4725     -6323.4725     -7117.5124     -1.0150358e-11 -4.2159952e-12 -4.4957295e-12  6.4016958      16.632094      20.902633      2225.5786    
        32   0             -146.67229     -6485.7587     -6219.2797     -6219.2797     -7018.7168     -9.2437955e-12  2.2584841e-12 -1.7718108e-11  6.4011256      16.630612      20.900536      2224.9589    
        33   0             -146.67478     -6383.9516     -6115.7681     -6115.7681     -6920.3186      1.3094853e-12 -3.07879e-12    5.5977999e-12  6.4005569      16.629135      20.898439      2224.3404    
        34   0             -146.67723     -6281.9599     -6011.8996     -6011.8996     -6822.0804     -9.3739185e-12  1.0598777e-12  2.0477637e-11  6.3999897      16.627661      20.896342      2223.7231    
        35   0             -146.67964     -6180.3081     -5908.8162     -5908.8162     -6723.2919      4.9908071e-12 -1.8603009e-12 -1.6212622e-11  6.3994241      16.626191      20.894245      2223.107     
        36   0             -146.682       -6078.8898     -5805.5072     -5805.5072     -6625.655       8.4136876e-12  1.4606402e-12 -6.9030255e-13  6.39886        16.624726      20.892149      2222.492     
        37   0             -146.68432     -5977.0717     -5702.0362     -5702.0362     -6527.1429      4.8284488e-12 -1.0287348e-11  1.9794138e-11  6.3982976      16.623265      20.890052      2221.8784    
        38   0             -146.68659     -5875.7368     -5598.8877     -5598.8877     -6429.4351      1.0630521e-11 -1.2412284e-11 -9.6795796e-12  6.397737       16.621808      20.887955      2221.266     
        39   0             -146.68882     -5776.0056     -5497.7079     -5497.7079     -6332.6011     -8.1803438e-12 -1.2876282e-11  1.5990219e-11  6.3971781      16.620356      20.885858      2220.655     
        40   0             -146.69101     -5675.4591     -5396.4061     -5396.4061     -6233.565      -4.6271197e-12 -3.2049314e-13 -1.4151775e-11  6.3966209      16.618909      20.883762      2220.0453    
        41   0             -146.69316     -5575.2197     -5294.5302     -5294.5302     -6136.5988      1.5878778e-12  2.0036313e-14  6.8223645e-12  6.3960654      16.617465      20.881665      2219.4369    
        42   0             -146.69526     -5475.1206     -5192.6784     -5192.6784     -6040.0051     -4.1586724e-12 -4.9703651e-12  1.8498576e-11  6.3955117      16.616027      20.879568      2218.8298    
        43   0             -146.69732     -5375.8019     -5092.0425     -5092.0425     -5943.3205      0             -6.7158342e-12 -1.249947e-11   6.3949599      16.614593      20.877471      2218.2242    
        44   0             -146.69934     -5276.1471     -4991.4893     -4991.4893     -5845.4626     -1.7596269e-12  4.0105456e-13 -5.6949747e-12  6.3944101      16.613165      20.875375      2217.62      
        45   0             -146.70132     -5177.2752     -4891.2519     -4891.2519     -5749.3219     -9.7282172e-13 -9.14653e-12    7.471672e-12   6.3938621      16.611741      20.873278      2217.0173    
        46   0             -146.70326     -5078.4368     -4791.4962     -4791.4962     -5652.318      -4.4440921e-12 -3.1098613e-12 -2.7386843e-11  6.3933162      16.610323      20.871181      2216.416     
        47   0             -146.70515     -4979.7729     -4691.8304     -4691.8304     -5555.6579     -6.3267686e-12 -3.7127746e-12  1.7911629e-11  6.3927722      16.608909      20.869084      2215.8162    
        48   0             -146.70701     -4881.362      -4592.1502     -4592.1502     -5459.7856      2.7050351e-12  5.9219692e-12  1.797669e-11   6.3922303      16.607501      20.866988      2215.218     
        49   0             -146.70882     -4784.1106     -4494.0227     -4494.0227     -5364.2863      6.8773589e-13  1.7670294e-12  4.3171742e-13  6.3916905      16.606099      20.864891      2214.6214    
        50   0             -146.71059     -4685.9172     -4395.3247     -4395.3247     -5267.1021     -6.8089087e-12 -1.4059694e-13  9.6007622e-12  6.391153       16.604702      20.862794      2214.0263    
        51   0             -146.71232     -4588.6275     -4297.6776     -4297.6776     -5170.5274     -1.2933363e-11  0             -1.4555684e-11  6.3906175      16.603311      20.860697      2213.4329    
        52   0             -146.71401     -4491.9531     -4200.2557     -4200.2557     -5075.3477     -5.8630183e-12  1.708163e-12  -5.8278503e-12  6.3900842      16.601926      20.858601      2212.841     
        53   0             -146.71566     -4395.3625     -4102.8641     -4102.8641     -4980.3592     -1.0332118e-11  1.2583474e-11  1.2744285e-11  6.3895531      16.600546      20.856504      2212.2508    
        54   0             -146.71727     -4298.0887     -4005.3573     -4005.3573     -4883.5515      4.0967491e-12  4.0213488e-13 -1.3391092e-11  6.3890245      16.599173      20.854407      2211.6625    
        55   0             -146.71885     -4202.8249     -3909.5978     -3909.5978     -4789.2792      2.2676369e-12  6.8381068e-13 -1.0880635e-11  6.3884983      16.597805      20.85231       2211.0758    
        56   0             -146.72038     -4106.7608     -3813.1767     -3813.1767     -4693.9292      7.026002e-12   3.922893e-12   2.0399044e-11  6.3879745      16.596445      20.850213      2210.491     
        57   0             -146.72187     -4010.8087     -3717.2323     -3717.2323     -4597.9616      1.2144054e-11 -1.0302826e-11 -3.3504307e-12  6.3874533      16.595091      20.848117      2209.908     
        58   0             -146.72332     -3915.4112     -3621.7194     -3621.7194     -4502.7949      1.831648e-12   8.0109439e-12  1.1342128e-11  6.3869346      16.593743      20.84602       2209.3269    
        59   0             -146.72474     -3821.4142     -3527.4731     -3527.4731     -4409.2963      7.5751458e-12  4.1071887e-12  4.0759821e-11  6.3864186      16.592402      20.843923      2208.7477    
        60   0             -146.72611     -3727.2365     -3433.3401     -3433.3401     -4315.0293     -5.4776829e-12 -4.7526955e-12 -1.1076197e-12  6.3859053      16.591069      20.841826      2208.1705    
        61   0             -146.72745     -3632.5188     -3339.157      -3339.157      -4219.2425     -3.7114927e-12 -1.8935159e-12  8.117946e-12   6.3853949      16.589742      20.83973       2207.5954    
        62   0             -146.72875     -3538.7272     -3245.7118     -3245.7118     -4124.7582      1.5464371e-12  7.4349875e-12 -1.3560289e-11  6.3848871      16.588423      20.837633      2207.0223    
        63   0             -146.73001     -3446.399      -3153.616      -3153.616      -4031.965      -5.4517198e-12 -2.4789706e-12 -2.085963e-11   6.3843823      16.587112      20.835536      2206.4513    
        64   0             -146.73124     -3353.4649     -3061.2917     -3061.2917     -3937.8114      1.7488305e-12  5.9470316e-12  2.3445416e-11  6.3838806      16.585808      20.833439      2205.8824    
        65   0             -146.73242     -3260.7499     -2969.3762     -2969.3762     -3843.4972     -9.7092591e-12  2.8633744e-12 -1.8763168e-11  6.3833819      16.584513      20.831343      2205.3158    
        66   0             -146.73358     -3168.9129     -2878.4568     -2878.4568     -3749.8252     -5.4710502e-12 -4.8004053e-12  1.3513746e-11  6.3828863      16.583225      20.829246      2204.7515    
        67   0             -146.73469     -3077.0407     -2787.1701     -2787.1701     -3656.7819      1.2009117e-11 -5.0033786e-12  1.1963724e-11  6.3823938      16.581946      20.827149      2204.1894    
        68   0             -146.73577     -2984.4975     -2695.4973     -2695.4973     -3562.4978      4.0259173e-12 -8.293995e-12  -1.2138292e-11  6.3819049      16.580675      20.825052      2203.6299    
        69   0             -146.73681     -2894.3912     -2606.4731     -2606.4731     -3470.2273     -4.8948961e-13 -1.5946259e-12  5.4499874e-12  6.3814196      16.579414      20.822956      2203.0729    
        70   0             -146.73782     -2805.0553     -2518.5169     -2518.5169     -3378.1322      9.2218828e-12 -5.1283158e-12  2.7822123e-11  6.3809378      16.578163      20.820859      2202.5184    
        71   0             -146.73879     -2714.7801     -2430.0155     -2430.0155     -3284.3092     -8.3356018e-12 -5.9778029e-12 -1.4177087e-11  6.3804596      16.57692       20.818762      2201.9666    
        72   0             -146.73972     -2625.2723     -2341.7622     -2341.7622     -3192.2924     -6.8984089e-12  2.4644389e-12  5.6257888e-12  6.3799851      16.575687      20.816665      2201.4173    
        73   0             -146.74062     -2536.2575     -2254.4775     -2254.4775     -3099.8176     -4.2481714e-12 -2.8287467e-13  3.8390134e-12  6.3795146      16.574465      20.814568      2200.8709    
        74   0             -146.74149     -2447.6978     -2167.7359     -2167.7359     -3007.6215     -1.3288288e-12  6.2652007e-13 -1.5945946e-11  6.3790481      16.573253      20.812472      2200.3274    
        75   0             -146.74232     -2360.1022     -2082.036      -2082.036      -2916.2344      1.5313083e-12 -7.4392269e-12 -1.5767927e-12  6.3785859      16.572052      20.810375      2199.7869    
        76   0             -146.74312     -2272.0819     -1996.6047     -1996.6047     -2823.0363      5.2572599e-13  6.5917951e-12 -3.1907524e-11  6.378128       16.570863      20.808278      2199.2495    
        77   0             -146.74389     -2184.9845     -1911.6905     -1911.6905     -2731.5724     -1.1513164e-11 -2.2854413e-12  1.0415949e-11  6.3776745      16.569684      20.806181      2198.7151    
        78   0             -146.74462     -2099.306      -1828.4857     -1828.4857     -2640.9465     -1.0256625e-11  9.8115646e-12  2.8099512e-11  6.3772257      16.568518      20.804085      2198.1841    
        79   0             -146.74532     -2013.5276     -1745.7404     -1745.7404     -2549.1018      6.3891654e-12 -3.7232191e-12 -7.233972e-12   6.3767817      16.567365      20.801988      2197.6565    
        80   0             -146.74599     -1928.6665     -1663.5011     -1663.5011     -2458.9973     -4.5792353e-12  9.5430252e-12 -6.1731128e-13  6.3763425      16.566224      20.799891      2197.1324    
        81   0             -146.74662     -1844.3897     -1582.2553     -1582.2553     -2368.6587     -6.4276316e-13 -3.6946229e-12  3.1601678e-11  6.3759087      16.565097      20.797794      2196.612     
        82   0             -146.74723     -1760.5943     -1501.9595     -1501.9595     -2277.864       7.8010315e-12  8.9096791e-13 -7.6744736e-12  6.3754804      16.563984      20.795698      2196.0954    
        83   0             -146.7478      -1676.8053     -1421.9737     -1421.9737     -2186.4686     -2.5722578e-12  1.1544779e-12  8.7801084e-12  6.3750576      16.562886      20.793601      2195.5828    
        84   0             -146.74835     -1594.7032     -1343.2583     -1343.2583     -2097.5929     -1.2383125e-11 -5.2672597e-13 -4.1712645e-11  6.3746406      16.561802      20.791504      2195.0742    
        85   0             -146.74886     -1513.2909     -1265.6929     -1265.6929     -2008.4867     -1.3490322e-11  9.7162738e-12 -8.287708e-12   6.3742301      16.560736      20.789407      2194.5701    
        86   0             -146.74935     -1432.2316     -1188.8796     -1188.8796     -1918.9355     -1.7633123e-12  1.1299386e-11  7.0431153e-12  6.3738261      16.559686      20.787311      2194.0706    
        87   0             -146.7498      -1351.5915     -1112.7737     -1112.7737     -1829.2271      3.3094903e-12 -7.6528796e-12 -1.3937364e-11  6.3734289      16.558654      20.785214      2193.5759    
        88   0             -146.75023     -1272.2644     -1037.8558     -1037.8558     -1741.0816      5.0692639e-13 -2.919896e-12   2.0074285e-12  6.3730389      16.557641      20.783117      2193.0862    
        89   0             -146.75063     -1193.6151     -963.99438     -963.99438     -1652.8564     -8.1785283e-12 -3.8940544e-12  3.5695499e-12  6.3726568      16.556648      20.78102       2192.602     
        90   0             -146.751       -1116.3145     -892.01965     -892.01965     -1564.9043      3.0479655e-12  2.8400344e-13 -2.2253698e-11  6.3722829      16.555677      20.778924      2192.1236    
        91   0             -146.75134     -1040.5963     -822.08268     -822.08268     -1477.6236     -2.0036705e-12  3.6319698e-12  1.2884362e-12  6.3719175      16.554727      20.776827      2191.651     
        92   0             -146.75166     -965.40865     -752.81968     -752.81968     -1390.5866     -3.6276693e-12 -5.7230923e-12  3.0888462e-11  6.3715609      16.553801      20.77473       2191.1846    
        93   0             -146.75195     -890.43872     -684.17465     -684.17465     -1302.9669      1.1468886e-12  2.8925951e-12 -4.1003804e-12  6.371214       16.552899      20.772633      2190.7248    
        94   0             -146.75222     -816.80927     -617.40777     -617.40777     -1215.6123     -1.5486195e-11 -1.0121099e-11  2.2932359e-11  6.3708774      16.552025      20.770536      2190.2722    
        95   0             -146.75246     -745.76228     -553.12718     -553.12718     -1131.0325      9.1230237e-12  2.193181e-12  -2.2287186e-11  6.3705519      16.551179      20.76844       2189.8274    
        96   0             -146.75269     -675.71114     -490.41582     -490.41582     -1046.3018      7.3222165e-12 -6.7027225e-13 -7.647197e-12   6.3702385      16.550365      20.766343      2189.3908    
        97   0             -146.75288     -606.83068     -429.2916      -429.2916      -961.90884     -1.4850445e-11  1.4169885e-11  2.4408769e-11  6.3699382      16.549585      20.764246      2188.9634    
        98   0             -146.75306     -539.71267     -370.38405     -370.38405     -878.36991     -6.5732363e-12 -6.0957369e-14 -3.1636874e-11  6.3696522      16.548842      20.762149      2188.5458    
        99   0             -146.75321     -474.0867      -313.88249     -313.88249     -794.49512      4.1966787e-12  5.0705633e-12 -1.4632487e-12  6.369382       16.54814       20.760053      2188.1391    
       100   0             -146.75335     -410.6318      -260.11286     -260.11286     -711.66969     -1.4889211e-12 -5.3662138e-12  2.2664123e-11  6.3691289      16.547482      20.757956      2187.7442    
Loop time of 0.023635 on 1 procs for 100 steps with 96 atoms

66.1% CPU use with 1 MPI tasks x 1 OpenMP threads

Minimization stats:
  Stopping criterion = max iterations
  Energy initial, next-to-last, final = 
     -146.568450621862  -146.753213887664  -146.753348893176
  Force two-norm initial, final = 23.952655 1.1044762
  Force max component initial, final = 14.358205 0.98158851
  Final line search alpha, max atom move = 9.1247978e-05 8.9567967e-05
  Iterations, force evaluations = 100 100

MPI task timing breakdown:
Section |  min time  |  avg time  |  max time  |%varavg| %total
---------------------------------------------------------------
Pair    | 0.018504   | 0.018504   | 0.018504   |   0.0 | 78.29
Neigh   | 0          | 0          | 0          |   0.0 |  0.00
Comm    | 0.000367   | 0.000367   | 0.000367   |   0.0 |  1.55
Output  | 0.000965   | 0.000965   | 0.000965   |   0.0 |  4.08
Modify  | 0          | 0          | 0          |   0.0 |  0.00
Other   |            | 0.003799   |            |       | 16.07

Nlocal:             96 ave          96 max          96 min
Histogram: 1 0 0 0 0 0 0 0 0 0
Nghost:           1310 ave        1310 max        1310 min
Histogram: 1 0 0 0 0 0 0 0 0 0
Neighs:           6144 ave        6144 max        6144 min
Histogram: 1 0 0 0 0 0 0 0 0 0

Total # of neighbors = 6144
Ave neighs/atom = 64
Neighbor list builds = 0
Dangerous builds = 0
Displacing atoms ...
System init for write_restart ...
OMP_NUM_THREADS environment is not set. Defaulting to 1 thread. (src/comm.cpp:98)
  using 1 OpenMP thread(s) per MPI task
Loaded 1 plugins from F:\Lammps\LAMMPS 64-bit 2Aug2023\plugins

The 'box' command has been removed and will be ignored

Reading restart file ...
  restart file = 2 Aug 2023, LAMMPS = 2 Aug 2023
  restoring atom style atomic from restart
  triclinic box = (0.025435542 0.066083476 0.10483816) to (6.3945645 16.613566 20.862794) with tilt (0 0 0)
  1 by 1 by 1 MPI processor grid
  pair style eam/alloy stores no restart info
  96 atoms
  read_restart CPU = 0.000 seconds
Changing box ...
  triclinic box = (0.025435542 0.066083476 0.10483816) to (6.3308732 16.613566 20.862794) with tilt (0 0 0)
  triclinic box = (0.025435542 0.066083476 0.10483816) to (6.3308732 16.613566 20.862794) with tilt (0 0 0)
  triclinic box = (0.025435542 0.066083476 0.10483816) to (6.3308732 16.613566 20.862794) with tilt (0 0 0)
Neighbor list info ...
  update: every = 1 steps, delay = 0 steps, check = yes
  max neighbors/atom: 2000, page size: 100000
  master list distance cutoff = 8.5
  ghost atom cutoff = 8.5
  1 neighbor lists, perpetual/occasional/extra = 1 0 0
  (1) pair eam/alloy, perpetual
      attributes: half, newton on
      pair build: half/nsq/newton
      stencil: none
      bin: none
Setting up cg style minimization ...
  Unit style    : metal
  Current step  : 100
Per MPI rank memory allocation (min/avg/max) = 4.467 | 4.467 | 4.467 Mbytes
   Step          Temp          PotEng         Press           Pxx            Pyy            Pzz            Pxy            Pxz            Pyz             Lx             Ly             Lz           Volume    
       100   0             -146.70993      3174.5924      6561.0056      2185.1546      777.61685      0.022385537    5.753328e-06  -0.0039665975   6.3054376      16.547482      20.757956      2165.8668    
       101   0             -146.71058      3152.2899      6452.0784      2254.9583      749.8331       0.0019381023   5.6915155e-06  0.014347421    6.3054376      16.547482      20.757956      2165.8668    
       102   0             -146.71058      3152.2729      6451.9926      2255.0107      749.81552      0.001683335    8.0265015e-07 -0.0016102558   6.3054376      16.547482      20.757956      2165.8668    
       103   0             -146.71058      3152.2499      6451.8776      2255.0803      749.79185      0.0012270838   8.4586208e-07  0.00061718188  6.3054376      16.547482      20.757956      2165.8668    
       104   0             -146.71058      3152.2195      6451.7258      2255.1722      749.7606       0.00059452169 -4.2050297e-07 -0.00019530547  6.3054376      16.547482      20.757956      2165.8668    
       105   0             -146.71058      3152.2038      6451.6474      2255.2196      749.74447      0.00023190512  1.8451067e-07 -1.1309444e-05  6.3054376      16.547482      20.757956      2165.8668    
       106   0             -146.71058      3152.1999      6451.6281      2255.2312      749.74049      0.0001086444   4.8520705e-08  3.9008156e-05  6.3054376      16.547482      20.757956      2165.8668    
       107   0             -146.71058      3152.1993      6451.6251      2255.2331      749.73988      6.5172865e-05  9.3325829e-08 -2.7204785e-05  6.3054376      16.547482      20.757956      2165.8668    
       108   0             -146.71058      3152.1992      6451.6244      2255.2335      749.73973      2.4818651e-05  4.7666428e-08  3.2447896e-05  6.3054376      16.547482      20.757956      2165.8668    
       109   0             -146.71058      3152.1992      6451.6245      2255.2334      749.73975     -2.8812877e-05  4.4275709e-08 -4.8229133e-05  6.3054376      16.547482      20.757956      2165.8668    
       110   0             -146.71058      3152.1993      6451.6251      2255.2331      749.73987     -6.3106641e-05  1.5779899e-08  3.2026662e-05  6.3054376      16.547482      20.757956      2165.8668    
       111   0             -146.71058      3152.1994      6451.6255      2255.2328      749.73995     -5.3916448e-05  1.0171218e-08 -1.4926415e-05  6.3054376      16.547482      20.757956      2165.8668    
       112   0             -146.71058      3152.1994      6451.6255      2255.2328      749.73997     -3.3131526e-05  6.8310702e-09  1.1327455e-05  6.3054376      16.547482      20.757956      2165.8668    
       113   0             -146.71058      3152.1994      6451.6255      2255.2328      749.73996      4.6975741e-06  1.0065693e-09 -7.1108391e-06  6.3054376      16.547482      20.757956      2165.8668    
       114   0             -146.71058      3152.1994      6451.6255      2255.2328      749.73995      3.4425911e-05 -2.265686e-09   3.0137269e-06  6.3054376      16.547482      20.757956      2165.8668    
       115   0             -146.71058      3152.1994      6451.6254      2255.2329      749.73994      3.3996749e-05 -2.2206031e-09 -1.0616465e-06  6.3054376      16.547482      20.757956      2165.8668    
       116   0             -146.71058      3152.1994      6451.6254      2255.2329      749.73994      1.96934e-05   -1.6580897e-09 -2.7192393e-07  6.3054376      16.547482      20.757956      2165.8668    
       117   0             -146.71058      3152.1994      6451.6254      2255.2329      749.73994     -7.6213121e-06 -2.579562e-10   1.7382667e-06  6.3054376      16.547482      20.757956      2165.8668    
       118   0             -146.71058      3152.1994      6451.6254      2255.2329      749.73994     -2.4959751e-05  3.3545638e-10 -2.3407547e-06  6.3054376      16.547482      20.757956      2165.8668    
       119   0             -146.71058      3152.1994      6451.6254      2255.2329      749.73995     -2.6361217e-05  4.6291191e-10  2.2658555e-06  6.3054376      16.547482      20.757956      2165.8668    
       120   0             -146.71058      3152.1994      6451.6254      2255.2328      749.73995     -1.4540051e-05  3.3941518e-10 -2.5796586e-06  6.3054376      16.547482      20.757956      2165.8668    
       121   0             -146.71058      3152.1994      6451.6254      2255.2329      749.73995      2.1516127e-06  8.3119492e-11  2.3753412e-06  6.3054376      16.547482      20.757956      2165.8668    
       122   0             -146.71058      3152.1994      6451.6254      2255.2329      749.73995      1.2145583e-05  2.1992217e-11 -9.374857e-07   6.3054376      16.547482      20.757956      2165.8668    
       123   0             -146.71058      3152.1994      6451.6254      2255.2329      749.73994      9.7955652e-06  5.1945672e-12  7.0475798e-07  6.3054376      16.547482      20.757956      2165.8668    
       124   0             -146.71058      3152.1994      6451.6254      2255.2329      749.73994      6.1861254e-06 -1.1393914e-11 -2.7338859e-07  6.3054376      16.547482      20.757956      2165.8668    
       125   0             -146.71058      3152.1994      6451.6254      2255.2329      749.73995      1.4175199e-06 -2.8783138e-12  2.0772498e-07  6.3054376      16.547482      20.757956      2165.8668    
       126   0             -146.71058      3152.1994      6451.6254      2255.2329      749.73995     -1.4299288e-06 -1.9171649e-12 -1.3991803e-07  6.3054376      16.547482      20.757956      2165.8668    
       127   0             -146.71058      3152.1994      6451.6254      2255.2329      749.73995     -2.0720751e-06 -2.2264264e-12  1.0918919e-07  6.3054376      16.547482      20.757956      2165.8668    
       128   0             -146.71058      3152.1994      6451.6254      2255.2329      749.73995     -1.4807191e-06  3.1824424e-13 -9.1023274e-08  6.3054376      16.547482      20.757956      2165.8668    
       129   0             -146.71058      3152.1994      6451.6254      2255.2329      749.73995      4.4512223e-07 -4.8314095e-12  6.6699974e-08  6.3054376      16.547482      20.757956      2165.8668    
       130   0             -146.71058      3152.1994      6451.6254      2255.2329      749.73995      1.579767e-06  -1.6541001e-12 -2.7068755e-08  6.3054376      16.547482      20.757956      2165.8668    
       131   0             -146.71058      3152.1994      6451.6254      2255.2329      749.73995      1.5488635e-06 -5.2664288e-12  1.1566606e-09  6.3054376      16.547482      20.757956      2165.8668    
       132   0             -146.71058      3152.1994      6451.6254      2255.2329      749.73995      7.4078948e-07  1.0700963e-11  9.8413412e-09  6.3054376      16.547482      20.757956      2165.8668    
       133   0             -146.71058      3152.1994      6451.6254      2255.2329      749.73995     -2.340995e-07   4.8981381e-12 -1.6100111e-08  6.3054376      16.547482      20.757956      2165.8668    
       134   0             -146.71058      3152.1994      6451.6254      2255.2329      749.73995     -6.5585362e-07  2.9155279e-12  1.5946319e-08  6.3054376      16.547482      20.757956      2165.8668    
       135   0             -146.71058      3152.1994      6451.6254      2255.2329      749.73995     -4.753473e-07  -3.8048152e-12 -2.7229259e-08  6.3054376      16.547482      20.757956      2165.8668    
       136   0             -146.71058      3152.1994      6451.6254      2255.2329      749.73995     -1.7394152e-07 -3.0900489e-12  2.8143374e-08  6.3054376      16.547482      20.757956      2165.8668    
       137   0             -146.71058      3152.1994      6451.6254      2255.2329      749.73995      8.6740524e-08 -3.9742032e-12 -1.8934491e-08  6.3054376      16.547482      20.757956      2165.8668    
       138   0             -146.71058      3152.1994      6451.6254      2255.2329      749.73995      1.9963136e-07 -1.1959824e-12  9.6893276e-09  6.3054376      16.547482      20.757956      2165.8668    
       139   0             -146.71058      3152.1994      6451.6254      2255.2329      749.73995      1.7962898e-07 -4.8378257e-13 -2.4243923e-09  6.3054376      16.547482      20.757956      2165.8668    
       140   0             -146.71058      3152.1994      6451.6254      2255.2329      749.73995      7.0483463e-08  6.0273919e-12 -2.8940137e-09  6.3054376      16.547482      20.757956      2165.8668    
       141   0             -146.71058      3152.1994      6451.6254      2255.2329      749.73995      1.247443e-08  -7.5660001e-12  4.5111711e-09  6.3054376      16.547482      20.757956      2165.8668    
       142   0             -146.71058      3152.1994      6451.6254      2255.2329      749.73995     -1.0224867e-08 -6.6651636e-12 -2.784904e-09   6.3054376      16.547482      20.757956      2165.8668    
       143   0             -146.71058      3152.1994      6451.6254      2255.2329      749.73995     -1.2365341e-08 -4.5465296e-12  2.8369761e-09  6.3054376      16.547482      20.757956      2165.8668    
Loop time of 0.017532 on 1 procs for 43 steps with 96 atoms

89.1% CPU use with 1 MPI tasks x 1 OpenMP threads

Minimization stats:
  Stopping criterion = force tolerance
  Energy initial, next-to-last, final = 
     -146.709926157206  -146.710576688357  -146.710576688359
  Force two-norm initial, final = 0.042976798 7.8384644e-11
  Force max component initial, final = 0.0044459463 1.8064888e-11
  Final line search alpha, max atom move = 1 1.8064888e-11
  Iterations, force evaluations = 43 86

MPI task timing breakdown:
Section |  min time  |  avg time  |  max time  |%varavg| %total
---------------------------------------------------------------
Pair    | 0.016593   | 0.016593   | 0.016593   |   0.0 | 94.64
Neigh   | 0          | 0          | 0          |   0.0 |  0.00
Comm    | 0.000314   | 0.000314   | 0.000314   |   0.0 |  1.79
Output  | 0.000425   | 0.000425   | 0.000425   |   0.0 |  2.42
Modify  | 0          | 0          | 0          |   0.0 |  0.00
Other   |            | 0.0002     |            |       |  1.14

Nlocal:             96 ave          96 max          96 min
Histogram: 1 0 0 0 0 0 0 0 0 0
Nghost:           1310 ave        1310 max        1310 min
Histogram: 1 0 0 0 0 0 0 0 0 0
Neighs:           6144 ave        6144 max        6144 min
Histogram: 1 0 0 0 0 0 0 0 0 0

Total # of neighbors = 6144
Ave neighs/atom = 64
Neighbor list builds = 0
Dangerous builds = 0
OMP_NUM_THREADS environment is not set. Defaulting to 1 thread. (src/comm.cpp:98)
  using 1 OpenMP thread(s) per MPI task
Loaded 1 plugins from F:\Lammps\LAMMPS 64-bit 2Aug2023\plugins

The 'box' command has been removed and will be ignored

Reading restart file ...
  restart file = 2 Aug 2023, LAMMPS = 2 Aug 2023
  restoring atom style atomic from restart
  triclinic box = (0.025435542 0.066083476 0.10483816) to (6.3945645 16.613566 20.862794) with tilt (0 0 0)
  1 by 1 by 1 MPI processor grid
  pair style eam/alloy stores no restart info
  96 atoms
  read_restart CPU = 0.000 seconds
Changing box ...
  triclinic box = (0.025435542 0.066083476 0.10483816) to (6.4582557 16.613566 20.862794) with tilt (0 0 0)
  triclinic box = (0.025435542 0.066083476 0.10483816) to (6.4582557 16.613566 20.862794) with tilt (0 0 0)
  triclinic box = (0.025435542 0.066083476 0.10483816) to (6.4582557 16.613566 20.862794) with tilt (0 0 0)
Neighbor list info ...
  update: every = 1 steps, delay = 0 steps, check = yes
  max neighbors/atom: 2000, page size: 100000
  master list distance cutoff = 8.5
  ghost atom cutoff = 8.5
  1 neighbor lists, perpetual/occasional/extra = 1 0 0
  (1) pair eam/alloy, perpetual
      attributes: half, newton on
      pair build: half/nsq/newton
      stencil: none
      bin: none
Setting up cg style minimization ...
  Unit style    : metal
  Current step  : 100
Per MPI rank memory allocation (min/avg/max) = 4.467 | 4.467 | 4.467 Mbytes
   Step          Temp          PotEng         Press           Pxx            Pyy            Pzz            Pxy            Pxz            Pyz             Lx             Ly             Lz           Volume    
       100   0             -146.70188     -4189.952      -7286.4624     -2884.6614     -2398.7321      0.013374623   -8.5458235e-06  0.0039414659   6.4328202      16.547482      20.757956      2209.6217    
       101   0             -146.70223     -4203.2951     -7241.4599     -2950.8146     -2417.6108     -0.0013264683  -4.5420485e-05 -0.010986797    6.4328202      16.547482      20.757956      2209.6217    
       102   0             -146.70223     -4203.3019     -7241.4378     -2950.8474     -2417.6204     -0.0009835749  -2.5865706e-06  0.0019959084   6.4328202      16.547482      20.757956      2209.6217    
       103   0             -146.70223     -4203.2866     -7241.4969     -2950.7611     -2417.6017     -0.00057541606 -1.5242178e-07 -0.0015441114   6.4328202      16.547482      20.757956      2209.6217    
       104   0             -146.70223     -4203.2685     -7241.5668     -2950.6591     -2417.5795     -0.0001336794   5.2338572e-09  0.0011455635   6.4328202      16.547482      20.757956      2209.6217    
       105   0             -146.70223     -4203.2611     -7241.5952     -2950.6178     -2417.5704      1.8514354e-05  1.2894798e-07 -0.00055970276  6.4328202      16.547482      20.757956      2209.6217    
       106   0             -146.70223     -4203.2595     -7241.6017     -2950.6083     -2417.5684      3.3573216e-05  2.36697e-08    0.00023393949  6.4328202      16.547482      20.757956      2209.6217    
       107   0             -146.70223     -4203.2592     -7241.6025     -2950.607      -2417.5681      2.178524e-05   3.1143763e-08 -0.00012136883  6.4328202      16.547482      20.757956      2209.6217    
       108   0             -146.70223     -4203.2592     -7241.6025     -2950.6071     -2417.5681      5.42051e-07    1.5919851e-08  0.00011501072  6.4328202      16.547482      20.757956      2209.6217    
       109   0             -146.70223     -4203.2594     -7241.6019     -2950.6079     -2417.5683     -2.2638406e-05 -8.6689339e-09 -0.00010964599  6.4328202      16.547482      20.757956      2209.6217    
       110   0             -146.70223     -4203.2594     -7241.6017     -2950.6083     -2417.5684     -2.0318873e-05 -8.4430587e-09  6.1789773e-05  6.4328202      16.547482      20.757956      2209.6217    
       111   0             -146.70223     -4203.2595     -7241.6017     -2950.6083     -2417.5684     -9.7666573e-06 -6.1668227e-09 -3.3161168e-05  6.4328202      16.547482      20.757956      2209.6217    
       112   0             -146.70223     -4203.2594     -7241.6017     -2950.6082     -2417.5683      1.5438399e-06 -2.9527132e-09  2.9060653e-05  6.4328202      16.547482      20.757956      2209.6217    
       113   0             -146.70223     -4203.2594     -7241.6019     -2950.608      -2417.5683      1.2369375e-05  5.2492354e-10 -2.0177379e-05  6.4328202      16.547482      20.757956      2209.6217    
       114   0             -146.70223     -4203.2594     -7241.6019     -2950.6079     -2417.5683      1.1387554e-05  1.1781208e-09  7.5730725e-06  6.4328202      16.547482      20.757956      2209.6217    
       115   0             -146.70223     -4203.2594     -7241.6019     -2950.608      -2417.5683      3.368914e-06   7.8246971e-10 -5.0535374e-06  6.4328202      16.547482      20.757956      2209.6217    
       116   0             -146.70223     -4203.2594     -7241.6018     -2950.6081     -2417.5683     -5.5654542e-06  2.2335954e-10  4.9088111e-06  6.4328202      16.547482      20.757956      2209.6217    
       117   0             -146.70223     -4203.2594     -7241.6017     -2950.6082     -2417.5684     -9.8166359e-06 -1.6345529e-11 -3.528953e-06   6.4328202      16.547482      20.757956      2209.6217    
       118   0             -146.70223     -4203.2594     -7241.6017     -2950.6082     -2417.5684     -6.602185e-06  -1.1208542e-11  1.5833263e-06  6.4328202      16.547482      20.757956      2209.6217    
       119   0             -146.70223     -4203.2594     -7241.6018     -2950.6081     -2417.5683     -2.1149317e-06 -1.1119236e-12 -8.5104367e-07  6.4328202      16.547482      20.757956      2209.6217    
       120   0             -146.70223     -4203.2594     -7241.6018     -2950.6081     -2417.5683      5.2473241e-07 -7.2954264e-14  4.0705041e-07  6.4328202      16.547482      20.757956      2209.6217    
       121   0             -146.70223     -4203.2594     -7241.6018     -2950.6081     -2417.5683      1.1672504e-06 -8.2375427e-12 -3.3789438e-07  6.4328202      16.547482      20.757956      2209.6217    
       122   0             -146.70223     -4203.2594     -7241.6018     -2950.6081     -2417.5683      8.1854581e-07 -5.4149674e-12  2.2640677e-07  6.4328202      16.547482      20.757956      2209.6217    
       123   0             -146.70223     -4203.2594     -7241.6018     -2950.6081     -2417.5683      2.5470122e-08 -4.091728e-12  -2.666547e-07   6.4328202      16.547482      20.757956      2209.6217    
       124   0             -146.70223     -4203.2594     -7241.6018     -2950.6081     -2417.5683     -4.9192516e-07 -9.0010468e-12  2.3811178e-07  6.4328202      16.547482      20.757956      2209.6217    
       125   0             -146.70223     -4203.2594     -7241.6018     -2950.6081     -2417.5683     -3.9907714e-07 -5.695464e-12  -3.5725723e-07  6.4328202      16.547482      20.757956      2209.6217    
       126   0             -146.70223     -4203.2594     -7241.6018     -2950.6081     -2417.5683     -6.9752367e-08  2.4980546e-12  3.6590553e-07  6.4328202      16.547482      20.757956      2209.6217    
       127   0             -146.70223     -4203.2594     -7241.6018     -2950.6081     -2417.5683      1.7743676e-07 -5.8564665e-12 -3.3605015e-07  6.4328202      16.547482      20.757956      2209.6217    
       128   0             -146.70223     -4203.2594     -7241.6018     -2950.6081     -2417.5683      1.8798099e-07  1.233556e-11   1.7087465e-07  6.4328202      16.547482      20.757956      2209.6217    
       129   0             -146.70223     -4203.2594     -7241.6018     -2950.6081     -2417.5683      7.0534384e-08  4.8728417e-12 -1.1438804e-07  6.4328202      16.547482      20.757956      2209.6217    
       130   0             -146.70223     -4203.2594     -7241.6018     -2950.6081     -2417.5683     -5.5610025e-08 -7.996039e-12   1.0011822e-07  6.4328202      16.547482      20.757956      2209.6217    
       131   0             -146.70223     -4203.2594     -7241.6018     -2950.6081     -2417.5683     -1.2247861e-07  4.6753621e-12 -9.8349202e-08  6.4328202      16.547482      20.757956      2209.6217    
       132   0             -146.70223     -4203.2594     -7241.6018     -2950.6081     -2417.5683     -9.6615264e-08 -3.3206769e-13  5.747093e-08   6.4328202      16.547482      20.757956      2209.6217    
       133   0             -146.70223     -4203.2594     -7241.6018     -2950.6081     -2417.5683     -3.2338945e-08 -3.1823153e-13 -3.2089011e-08  6.4328202      16.547482      20.757956      2209.6217    
       134   0             -146.70223     -4203.2594     -7241.6018     -2950.6081     -2417.5683      1.0852229e-08 -3.2125033e-12  1.7731643e-08  6.4328202      16.547482      20.757956      2209.6217    
       135   0             -146.70223     -4203.2594     -7241.6018     -2950.6081     -2417.5683      2.1450798e-08 -8.4551477e-12 -6.650285e-09   6.4328202      16.547482      20.757956      2209.6217    
       136   0             -146.70223     -4203.2594     -7241.6018     -2950.6081     -2417.5683      1.3637575e-08 -1.9786957e-11  2.5955454e-09  6.4328202      16.547482      20.757956      2209.6217    
       137   0             -146.70223     -4203.2594     -7241.6018     -2950.6081     -2417.5683      2.7544838e-09 -9.0563915e-14 -1.3318084e-09  6.4328202      16.547482      20.757956      2209.6217    
       138   0             -146.70223     -4203.2594     -7241.6018     -2950.6081     -2417.5683     -2.5314878e-09 -3.3898576e-12  6.7536656e-10  6.4328202      16.547482      20.757956      2209.6217    
       139   0             -146.70223     -4203.2594     -7241.6018     -2950.6081     -2417.5683     -2.7944804e-09 -3.132002e-13  -3.6555055e-10  6.4328202      16.547482      20.757956      2209.6217    
Loop time of 0.015418 on 1 procs for 39 steps with 96 atoms

101.3% CPU use with 1 MPI tasks x 1 OpenMP threads

Minimization stats:
  Stopping criterion = force tolerance
  Energy initial, next-to-last, final = 
     -146.701877494449  -146.702234272362  -146.702234272361
  Force two-norm initial, final = 0.033030647 4.8082417e-11
  Force max component initial, final = 0.0034289138 8.4061167e-12
  Final line search alpha, max atom move = 1 8.4061167e-12
  Iterations, force evaluations = 39 78

MPI task timing breakdown:
Section |  min time  |  avg time  |  max time  |%varavg| %total
---------------------------------------------------------------
Pair    | 0.014561   | 0.014561   | 0.014561   |   0.0 | 94.44
Neigh   | 0          | 0          | 0          |   0.0 |  0.00
Comm    | 0.000294   | 0.000294   | 0.000294   |   0.0 |  1.91
Output  | 0.000372   | 0.000372   | 0.000372   |   0.0 |  2.41
Modify  | 0          | 0          | 0          |   0.0 |  0.00
Other   |            | 0.000191   |            |       |  1.24

Nlocal:             96 ave          96 max          96 min
Histogram: 1 0 0 0 0 0 0 0 0 0
Nghost:           1310 ave        1310 max        1310 min
Histogram: 1 0 0 0 0 0 0 0 0 0
Neighs:           5952 ave        5952 max        5952 min
Histogram: 1 0 0 0 0 0 0 0 0 0

Total # of neighbors = 5952
Ave neighs/atom = 62
Neighbor list builds = 0
Dangerous builds = 0
OMP_NUM_THREADS environment is not set. Defaulting to 1 thread. (src/comm.cpp:98)
  using 1 OpenMP thread(s) per MPI task
Loaded 1 plugins from F:\Lammps\LAMMPS 64-bit 2Aug2023\plugins

The 'box' command has been removed and will be ignored

Reading restart file ...
  restart file = 2 Aug 2023, LAMMPS = 2 Aug 2023
  restoring atom style atomic from restart
  triclinic box = (0.025435542 0.066083476 0.10483816) to (6.3945645 16.613566 20.862794) with tilt (0 0 0)
  1 by 1 by 1 MPI processor grid
  pair style eam/alloy stores no restart info
  96 atoms
  read_restart CPU = 0.000 seconds
Changing box ...
  triclinic box = (0.025435542 0.066083476 0.10483816) to (6.3945645 16.448091 20.862794) with tilt (0 0 0)
  triclinic box = (0.025435542 0.066083476 0.10483816) to (6.3945645 16.448091 20.862794) with tilt (0 0 0)
Neighbor list info ...
  update: every = 1 steps, delay = 0 steps, check = yes
  max neighbors/atom: 2000, page size: 100000
  master list distance cutoff = 8.5
  ghost atom cutoff = 8.5
  1 neighbor lists, perpetual/occasional/extra = 1 0 0
  (1) pair eam/alloy, perpetual
      attributes: half, newton on
      pair build: half/nsq/newton
      stencil: none
      bin: none
Setting up cg style minimization ...
  Unit style    : metal
  Current step  : 100
Per MPI rank memory allocation (min/avg/max) = 4.467 | 4.467 | 4.467 Mbytes
   Step          Temp          PotEng         Press           Pxx            Pyy            Pzz            Pxy            Pxz            Pyz             Lx             Ly             Lz           Volume    
       100   0             -146.71067      3179.3097      2356.1752      6404.8988      776.85516      0.01947618     1.0780105e-05  0.0037713045   6.3691289      16.382008      20.757956      2165.8668    
       101   0             -146.71151      3150.7379      2463.8497      6245.1096      743.25445     -0.0021249562   3.4723105e-05 -0.015648595    6.3691289      16.382008      20.757956      2165.8668    
       102   0             -146.71151      3150.7256      2463.8947      6245.0369      743.24531     -0.0016709818   2.6882646e-06  0.0018973291   6.3691289      16.382008      20.757956      2165.8668    
       103   0             -146.71151      3150.761       2463.772       6245.2353      743.27559     -0.0011196859   1.6134376e-06 -0.0012488796   6.3691289      16.382008      20.757956      2165.8668    
       104   0             -146.71151      3150.8136      2463.589       6245.5312      743.32065     -0.00034277861  6.7122816e-08  0.00080492464  6.3691289      16.382008      20.757956      2165.8668    
       105   0             -146.71151      3150.8427      2463.4879      6245.6946      743.34554      3.5640184e-05  1.1746477e-07 -0.00023380769  6.3691289      16.382008      20.757956      2165.8668    
       106   0             -146.71151      3150.8502      2463.4619      6245.7367      743.35197      9.0141389e-05  1.3100178e-07  3.2275754e-05  6.3691289      16.382008      20.757956      2165.8668    
       107   0             -146.71151      3150.8512      2463.4582      6245.7427      743.35288      7.1749234e-05  9.6718094e-09  1.0131012e-05  6.3691289      16.382008      20.757956      2165.8668    
       108   0             -146.71151      3150.8514      2463.4577      6245.7435      743.35301      4.4118751e-05  1.8596512e-09 -1.397403e-05   6.3691289      16.382008      20.757956      2165.8668    
       109   0             -146.71151      3150.8514      2463.4579      6245.7432      743.35297      1.2748173e-05  6.6576438e-10  1.7649614e-05  6.3691289      16.382008      20.757956      2165.8668    
       110   0             -146.71151      3150.8512      2463.4584      6245.7423      743.35282     -2.7448423e-05  1.8446848e-09 -2.4234652e-05  6.3691289      16.382008      20.757956      2165.8668    
       111   0             -146.71151      3150.851       2463.4589      6245.7415      743.3527      -4.295801e-05   2.2910775e-09  2.3484367e-05  6.3691289      16.382008      20.757956      2165.8668    
       112   0             -146.71151      3150.851       2463.459       6245.7414      743.3527      -3.1973126e-05  2.6269034e-09 -1.2489936e-05  6.3691289      16.382008      20.757956      2165.8668    
       113   0             -146.71151      3150.8511      2463.4588      6245.7417      743.35274     -1.2014292e-05  1.5349869e-09  1.0518874e-05  6.3691289      16.382008      20.757956      2165.8668    
       114   0             -146.71151      3150.8512      2463.4585      6245.7421      743.3528       7.7670124e-06  3.7999132e-10 -9.3110183e-06  6.3691289      16.382008      20.757956      2165.8668    
       115   0             -146.71151      3150.8512      2463.4583      6245.7426      743.35286      2.4370763e-05 -4.5527918e-10  6.1351447e-06  6.3691289      16.382008      20.757956      2165.8668    
       116   0             -146.71151      3150.8513      2463.4582      6245.7427      743.35288      2.3069545e-05 -4.8179996e-10 -2.1871802e-06  6.3691289      16.382008      20.757956      2165.8668    
       117   0             -146.71151      3150.8512      2463.4583      6245.7425      743.35286      1.1415627e-05 -2.5424122e-10 -6.3689345e-07  6.3691289      16.382008      20.757956      2165.8668    
       118   0             -146.71151      3150.8512      2463.4585      6245.7422      743.35281     -3.23682e-06   -7.2451894e-11  2.5048941e-06  6.3691289      16.382008      20.757956      2165.8668    
       119   0             -146.71151      3150.8511      2463.4586      6245.742       743.35278     -1.1727991e-05 -1.0762558e-11 -4.7554701e-06  6.3691289      16.382008      20.757956      2165.8668    
       120   0             -146.71151      3150.8511      2463.4587      6245.7419      743.35276     -1.1582362e-05  3.666225e-12   3.8530015e-06  6.3691289      16.382008      20.757956      2165.8668    
       121   0             -146.71151      3150.8511      2463.4586      6245.7419      743.35277     -6.2457852e-06  1.617271e-11  -3.3216632e-06  6.3691289      16.382008      20.757956      2165.8668    
       122   0             -146.71151      3150.8511      2463.4586      6245.7421      743.35279     -1.0069267e-06  3.0656673e-12  2.2748666e-06  6.3691289      16.382008      20.757956      2165.8668    
       123   0             -146.71151      3150.8512      2463.4585      6245.7421      743.3528       1.2416182e-06 -2.0069919e-12 -1.6186904e-06  6.3691289      16.382008      20.757956      2165.8668    
       124   0             -146.71151      3150.8512      2463.4585      6245.7422      743.35281      1.9759028e-06  2.1981951e-12  9.510182e-07   6.3691289      16.382008      20.757956      2165.8668    
       125   0             -146.71151      3150.8512      2463.4585      6245.7422      743.35281      1.1764771e-06  7.1386802e-12 -1.1101304e-06  6.3691289      16.382008      20.757956      2165.8668    
       126   0             -146.71151      3150.8512      2463.4585      6245.7422      743.3528      -2.7144363e-07 -2.6113993e-12  6.5654143e-07  6.3691289      16.382008      20.757956      2165.8668    
       127   0             -146.71151      3150.8512      2463.4585      6245.7421      743.3528      -1.2186709e-06 -5.2587294e-12 -4.5241706e-07  6.3691289      16.382008      20.757956      2165.8668    
       128   0             -146.71151      3150.8512      2463.4585      6245.7421      743.3528      -1.237845e-06  -1.4834288e-12  4.531625e-08   6.3691289      16.382008      20.757956      2165.8668    
       129   0             -146.71151      3150.8512      2463.4585      6245.7421      743.3528      -5.305707e-07   5.822073e-12   1.6056801e-07  6.3691289      16.382008      20.757956      2165.8668    
       130   0             -146.71151      3150.8512      2463.4585      6245.7421      743.3528       2.0284336e-07 -4.9379187e-12 -2.0737286e-07  6.3691289      16.382008      20.757956      2165.8668    
       131   0             -146.71151      3150.8512      2463.4585      6245.7421      743.3528       4.4509022e-07 -2.1455821e-12  2.0510355e-07  6.3691289      16.382008      20.757956      2165.8668    
       132   0             -146.71151      3150.8512      2463.4585      6245.7421      743.3528       3.5931885e-07  3.3774953e-12 -1.5926099e-07  6.3691289      16.382008      20.757956      2165.8668    
       133   0             -146.71151      3150.8512      2463.4585      6245.7421      743.3528       4.860459e-08  -2.8924295e-12  2.2189553e-07  6.3691289      16.382008      20.757956      2165.8668    
       134   0             -146.71151      3150.8512      2463.4585      6245.7421      743.3528      -3.7025543e-07  1.0214613e-12 -1.8429722e-07  6.3691289      16.382008      20.757956      2165.8668    
       135   0             -146.71151      3150.8512      2463.4585      6245.7421      743.3528      -5.0819034e-07  1.172884e-12   1.192767e-07   6.3691289      16.382008      20.757956      2165.8668    
       136   0             -146.71151      3150.8512      2463.4585      6245.7421      743.3528      -3.2295542e-07  2.572902e-12  -8.2662516e-08  6.3691289      16.382008      20.757956      2165.8668    
       137   0             -146.71151      3150.8512      2463.4585      6245.7421      743.3528      -1.1744123e-07  5.6911822e-12  3.1932792e-08  6.3691289      16.382008      20.757956      2165.8668    
       138   0             -146.71151      3150.8512      2463.4585      6245.7421      743.3528       5.247975e-08  -1.603797e-11  -9.3358834e-09  6.3691289      16.382008      20.757956      2165.8668    
       139   0             -146.71151      3150.8512      2463.4585      6245.7421      743.3528       1.1034691e-07  2.0146913e-13 -4.0038853e-09  6.3691289      16.382008      20.757956      2165.8668    
       140   0             -146.71151      3150.8512      2463.4585      6245.7421      743.3528       8.9101891e-08  1.1069253e-11  1.1079577e-08  6.3691289      16.382008      20.757956      2165.8668    
       141   0             -146.71151      3150.8512      2463.4585      6245.7421      743.3528       4.3530717e-08 -2.0852697e-12 -9.2190415e-09  6.3691289      16.382008      20.757956      2165.8668    
       142   0             -146.71151      3150.8512      2463.4585      6245.7421      743.3528       1.2850127e-08 -3.7355201e-12  6.0366569e-09  6.3691289      16.382008      20.757956      2165.8668    
       143   0             -146.71151      3150.8512      2463.4585      6245.7421      743.3528      -2.2218504e-09 -3.0541181e-13 -3.0456513e-09  6.3691289      16.382008      20.757956      2165.8668    
       144   0             -146.71151      3150.8512      2463.4585      6245.7421      743.3528      -6.8666866e-09 -4.2026205e-12  1.7708771e-09  6.3691289      16.382008      20.757956      2165.8668    
       145   0             -146.71151      3150.8512      2463.4585      6245.7421      743.3528      -5.7431459e-09 -1.054569e-11  -7.6799521e-10  6.3691289      16.382008      20.757956      2165.8668    
Loop time of 0.017068 on 1 procs for 45 steps with 96 atoms

91.5% CPU use with 1 MPI tasks x 1 OpenMP threads

Minimization stats:
  Stopping criterion = force tolerance
  Energy initial, next-to-last, final = 
     -146.710665953159  -146.711512514318  -146.711512514318
  Force two-norm initial, final = 0.04644873 5.1504991e-11
  Force max component initial, final = 0.0048036155 9.5029453e-12
  Final line search alpha, max atom move = 1 9.5029453e-12
  Iterations, force evaluations = 45 90

MPI task timing breakdown:
Section |  min time  |  avg time  |  max time  |%varavg| %total
---------------------------------------------------------------
Pair    | 0.016101   | 0.016101   | 0.016101   |   0.0 | 94.33
Neigh   | 0          | 0          | 0          |   0.0 |  0.00
Comm    | 0.000332   | 0.000332   | 0.000332   |   0.0 |  1.95
Output  | 0.000434   | 0.000434   | 0.000434   |   0.0 |  2.54
Modify  | 0          | 0          | 0          |   0.0 |  0.00
Other   |            | 0.000201   |            |       |  1.18

Nlocal:             96 ave          96 max          96 min
Histogram: 1 0 0 0 0 0 0 0 0 0
Nghost:           1310 ave        1310 max        1310 min
Histogram: 1 0 0 0 0 0 0 0 0 0
Neighs:           6144 ave        6144 max        6144 min
Histogram: 1 0 0 0 0 0 0 0 0 0

Total # of neighbors = 6144
Ave neighs/atom = 64
Neighbor list builds = 0
Dangerous builds = 0
OMP_NUM_THREADS environment is not set. Defaulting to 1 thread. (src/comm.cpp:98)
  using 1 OpenMP thread(s) per MPI task
Loaded 1 plugins from F:\Lammps\LAMMPS 64-bit 2Aug2023\plugins

The 'box' command has been removed and will be ignored

Reading restart file ...
  restart file = 2 Aug 2023, LAMMPS = 2 Aug 2023
  restoring atom style atomic from restart
  triclinic box = (0.025435542 0.066083476 0.10483816) to (6.3945645 16.613566 20.862794) with tilt (0 0 0)
  1 by 1 by 1 MPI processor grid
  pair style eam/alloy stores no restart info
  96 atoms
  read_restart CPU = 0.000 seconds
Changing box ...
  triclinic box = (0.025435542 0.066083476 0.10483816) to (6.3945645 16.779041 20.862794) with tilt (0 0 0)
  triclinic box = (0.025435542 0.066083476 0.10483816) to (6.3945645 16.779041 20.862794) with tilt (0 0 0)
Neighbor list info ...
  update: every = 1 steps, delay = 0 steps, check = yes
  max neighbors/atom: 2000, page size: 100000
  master list distance cutoff = 8.5
  ghost atom cutoff = 8.5
  1 neighbor lists, perpetual/occasional/extra = 1 0 0
  (1) pair eam/alloy, perpetual
      attributes: half, newton on
      pair build: half/nsq/newton
      stencil: none
      bin: none
Setting up cg style minimization ...
  Unit style    : metal
  Current step  : 100
Per MPI rank memory allocation (min/avg/max) = 4.467 | 4.467 | 4.467 Mbytes
   Step          Temp          PotEng         Press           Pxx            Pyy            Pzz            Pxy            Pxz            Pyz             Lx             Ly             Lz           Volume    
       100   0             -146.70099     -4192.8442     -2695.324      -7486.3469     -2396.8618      0.015443014   -1.6000008e-06 -0.003486909    6.3691289      16.712957      20.757956      2209.6217    
       101   0             -146.70127     -4203.0059     -2741.8087     -7454.6206     -2412.5883      0.0013884981   1.1095103e-05  0.011600572    6.3691289      16.712957      20.757956      2209.6217    
       102   0             -146.70127     -4203.0162     -2741.8534     -7454.5933     -2412.6018      0.001105973   -3.1189944e-07 -0.0019852335   6.3691289      16.712957      20.757956      2209.6217    
       103   0             -146.70127     -4203.0278     -2741.9061     -7454.5599     -2412.6173      0.00072430637  2.0904588e-07  0.0010884261   6.3691289      16.712957      20.757956      2209.6217    
       104   0             -146.70127     -4203.0406     -2741.9641     -7454.5232     -2412.6344      0.00028795811  4.6464055e-09 -0.00073506053  6.3691289      16.712957      20.757956      2209.6217    
       105   0             -146.70127     -4203.0458     -2741.9878     -7454.5081     -2412.6414      8.9733639e-05  4.022934e-08   0.00040505805  6.3691289      16.712957      20.757956      2209.6217    
       106   0             -146.70127     -4203.047      -2741.9934     -7454.5046     -2412.643       2.7341734e-05  2.1689499e-08 -0.00023586124  6.3691289      16.712957      20.757956      2209.6217    
       107   0             -146.70127     -4203.0473     -2741.9945     -7454.504      -2412.6433     -4.6985444e-07  1.7764729e-08  0.00024500379  6.3691289      16.712957      20.757956      2209.6217    
       108   0             -146.70127     -4203.0472     -2741.9943     -7454.5041     -2412.6433     -2.5555768e-05  7.2609468e-09 -0.00026042166  6.3691289      16.712957      20.757956      2209.6217    
       109   0             -146.70127     -4203.047      -2741.9933     -7454.5047     -2412.643      -3.321554e-05   5.0311022e-09  9.1898055e-05  6.3691289      16.712957      20.757956      2209.6217    
       110   0             -146.70127     -4203.0469     -2741.9929     -7454.5049     -2412.6429     -2.057342e-05   4.4594539e-09 -3.5309895e-05  6.3691289      16.712957      20.757956      2209.6217    
       111   0             -146.70127     -4203.0469     -2741.9928     -7454.505      -2412.6429     -3.4038601e-06  2.4076693e-09  1.9502801e-05  6.3691289      16.712957      20.757956      2209.6217    
       112   0             -146.70127     -4203.0469     -2741.9929     -7454.5049     -2412.6429      1.1834451e-05  4.654394e-10  -1.5968476e-05  6.3691289      16.712957      20.757956      2209.6217    
       113   0             -146.70127     -4203.0469     -2741.993      -7454.5049     -2412.6429      1.5311834e-05 -3.0635508e-10  6.8638255e-06  6.3691289      16.712957      20.757956      2209.6217    
       114   0             -146.70127     -4203.0469     -2741.9931     -7454.5048     -2412.6429      9.0949405e-06 -4.5727104e-10 -3.0449278e-06  6.3691289      16.712957      20.757956      2209.6217    
       115   0             -146.70127     -4203.0469     -2741.9931     -7454.5048     -2412.6429     -2.6994896e-06 -1.902207e-10   2.4772495e-06  6.3691289      16.712957      20.757956      2209.6217    
       116   0             -146.70127     -4203.0469     -2741.993      -7454.5049     -2412.6429     -1.0890437e-05 -3.1327567e-11 -1.3566233e-06  6.3691289      16.712957      20.757956      2209.6217    
       117   0             -146.70127     -4203.0469     -2741.993      -7454.5049     -2412.6429     -9.2652143e-06  2.9982945e-11  7.5153959e-07  6.3691289      16.712957      20.757956      2209.6217    
       118   0             -146.70127     -4203.0469     -2741.993      -7454.5049     -2412.6429     -2.3398399e-06  6.5860091e-12 -6.6368217e-07  6.3691289      16.712957      20.757956      2209.6217    
       119   0             -146.70127     -4203.0469     -2741.993      -7454.5049     -2412.6429      4.6185865e-06  1.7393303e-11  2.8051237e-07  6.3691289      16.712957      20.757956      2209.6217    
       120   0             -146.70127     -4203.0469     -2741.993      -7454.5049     -2412.6429      4.7284657e-06  1.351918e-11  -1.2421372e-07  6.3691289      16.712957      20.757956      2209.6217    
       121   0             -146.70127     -4203.0469     -2741.993      -7454.5049     -2412.6429      2.1559734e-06  5.0552274e-12  8.9661588e-08  6.3691289      16.712957      20.757956      2209.6217    
       122   0             -146.70127     -4203.0469     -2741.993      -7454.5049     -2412.6429     -4.6325869e-07  3.9986484e-12 -7.2627418e-08  6.3691289      16.712957      20.757956      2209.6217    
       123   0             -146.70127     -4203.0469     -2741.993      -7454.5049     -2412.6429     -1.0541208e-06 -4.3017859e-12  7.1912118e-08  6.3691289      16.712957      20.757956      2209.6217    
       124   0             -146.70127     -4203.0469     -2741.993      -7454.5049     -2412.6429     -7.9225697e-07  5.8942014e-12 -4.0870663e-08  6.3691289      16.712957      20.757956      2209.6217    
       125   0             -146.70127     -4203.0469     -2741.993      -7454.5049     -2412.6429     -2.9521138e-07 -2.9433272e-13  5.032658e-08   6.3691289      16.712957      20.757956      2209.6217    
       126   0             -146.70127     -4203.0469     -2741.993      -7454.5049     -2412.6429      1.0490268e-07 -2.0213363e-12 -6.1559561e-08  6.3691289      16.712957      20.757956      2209.6217    
       127   0             -146.70127     -4203.0469     -2741.993      -7454.5049     -2412.6429      3.7382468e-07 -3.0062188e-12  5.5837141e-08  6.3691289      16.712957      20.757956      2209.6217    
       128   0             -146.70127     -4203.0469     -2741.993      -7454.5049     -2412.6429      2.6824237e-07 -8.1369162e-12 -8.0996027e-08  6.3691289      16.712957      20.757956      2209.6217    
       129   0             -146.70127     -4203.0469     -2741.993      -7454.5049     -2412.6429     -3.9970132e-09 -1.4150612e-12  8.706987e-08   6.3691289      16.712957      20.757956      2209.6217    
       130   0             -146.70127     -4203.0469     -2741.993      -7454.5049     -2412.6429     -1.9732436e-07 -1.5345552e-12 -1.3399731e-07  6.3691289      16.712957      20.757956      2209.6217    
       131   0             -146.70127     -4203.0469     -2741.993      -7454.5049     -2412.6429     -2.0511892e-07 -1.2646244e-11  8.5432038e-08  6.3691289      16.712957      20.757956      2209.6217    
       132   0             -146.70127     -4203.0469     -2741.993      -7454.5049     -2412.6429     -1.0787428e-07  1.2200972e-12 -4.9329629e-08  6.3691289      16.712957      20.757956      2209.6217    
       133   0             -146.70127     -4203.0469     -2741.993      -7454.5049     -2412.6429      4.3118436e-09 -3.1093611e-12  3.1213846e-08  6.3691289      16.712957      20.757956      2209.6217    
       134   0             -146.70127     -4203.0469     -2741.993      -7454.5049     -2412.6429      4.0020257e-08 -3.1169081e-12 -1.4989282e-08  6.3691289      16.712957      20.757956      2209.6217    
       135   0             -146.70127     -4203.0469     -2741.993      -7454.5049     -2412.6429      3.3916244e-08  6.0614931e-12  6.5235307e-09  6.3691289      16.712957      20.757956      2209.6217    
       136   0             -146.70127     -4203.0469     -2741.993      -7454.5049     -2412.6429      1.6796444e-08  5.282895e-13  -2.5514094e-09  6.3691289      16.712957      20.757956      2209.6217    
       137   0             -146.70127     -4203.0469     -2741.993      -7454.5049     -2412.6429     -5.308351e-09  -1.8402084e-12  1.1373035e-09  6.3691289      16.712957      20.757956      2209.6217    
       138   0             -146.70127     -4203.0469     -2741.993      -7454.5049     -2412.6429     -1.4245329e-08  1.6817216e-12 -4.6944182e-10  6.3691289      16.712957      20.757956      2209.6217    
       139   0             -146.70127     -4203.0469     -2741.993      -7454.5049     -2412.6429     -1.071441e-08   3.1458382e-12  1.3657164e-10  6.3691289      16.712957      20.757956      2209.6217    
Loop time of 0.014616 on 1 procs for 39 steps with 96 atoms

106.9% CPU use with 1 MPI tasks x 1 OpenMP threads

Minimization stats:
  Stopping criterion = force tolerance
  Energy initial, next-to-last, final = 
      -146.70098849717  -146.701270236465  -146.701270236465
  Force two-norm initial, final = 0.030581157 6.8694656e-11
  Force max component initial, final = 0.0031743491 1.0010087e-11
  Final line search alpha, max atom move = 1 1.0010087e-11
  Iterations, force evaluations = 39 78

MPI task timing breakdown:
Section |  min time  |  avg time  |  max time  |%varavg| %total
---------------------------------------------------------------
Pair    | 0.013798   | 0.013798   | 0.013798   |   0.0 | 94.40
Neigh   | 0          | 0          | 0          |   0.0 |  0.00
Comm    | 0.000279   | 0.000279   | 0.000279   |   0.0 |  1.91
Output  | 0.000352   | 0.000352   | 0.000352   |   0.0 |  2.41
Modify  | 0          | 0          | 0          |   0.0 |  0.00
Other   |            | 0.000187   |            |       |  1.28

Nlocal:             96 ave          96 max          96 min
Histogram: 1 0 0 0 0 0 0 0 0 0
Nghost:           1310 ave        1310 max        1310 min
Histogram: 1 0 0 0 0 0 0 0 0 0
Neighs:           5952 ave        5952 max        5952 min
Histogram: 1 0 0 0 0 0 0 0 0 0

Total # of neighbors = 5952
Ave neighs/atom = 62
Neighbor list builds = 0
Dangerous builds = 0
OMP_NUM_THREADS environment is not set. Defaulting to 1 thread. (src/comm.cpp:98)
  using 1 OpenMP thread(s) per MPI task
Loaded 1 plugins from F:\Lammps\LAMMPS 64-bit 2Aug2023\plugins

The 'box' command has been removed and will be ignored

Reading restart file ...
  restart file = 2 Aug 2023, LAMMPS = 2 Aug 2023
  restoring atom style atomic from restart
  triclinic box = (0.025435542 0.066083476 0.10483816) to (6.3945645 16.613566 20.862794) with tilt (0 0 0)
  1 by 1 by 1 MPI processor grid
  pair style eam/alloy stores no restart info
  96 atoms
  read_restart CPU = 0.000 seconds
Changing box ...
  triclinic box = (0.025435542 0.066083476 0.10483816) to (6.3945645 16.613566 20.655214) with tilt (0 0 0)
Neighbor list info ...
  update: every = 1 steps, delay = 0 steps, check = yes
  max neighbors/atom: 2000, page size: 100000
  master list distance cutoff = 8.5
  ghost atom cutoff = 8.5
  1 neighbor lists, perpetual/occasional/extra = 1 0 0
  (1) pair eam/alloy, perpetual
      attributes: half, newton on
      pair build: half/nsq/newton
      stencil: none
      bin: none
Setting up cg style minimization ...
  Unit style    : metal
  Current step  : 100
Per MPI rank memory allocation (min/avg/max) = 4.467 | 4.467 | 4.467 Mbytes
   Step          Temp          PotEng         Press           Pxx            Pyy            Pzz            Pxy            Pxz            Pyz             Lx             Ly             Lz           Volume    
       100   0             -146.71436      3142.1504      1420.4941      1420.4857      6585.4715      0.02400806     1.6233174e-05 -4.8248059e-06  6.3691289      16.547482      20.550376      2165.8668    
       101   0             -146.71436      3142.1503      1420.493       1420.4866      6585.4714      0.018195148   -3.3347903e-06 -1.1167835e-06  6.3691289      16.547482      20.550376      2165.8668    
       102   0             -146.71436      3142.1503      1420.4916      1420.4879      6585.4713      0.010611314   -4.7960906e-07 -2.4364713e-08  6.3691289      16.547482      20.550376      2165.8668    
       103   0             -146.71436      3142.1503      1420.4908      1420.4888      6585.4713      0.0056478047  -1.1650545e-07  7.2893042e-08  6.3691289      16.547482      20.550376      2165.8668    
       104   0             -146.71436      3142.1503      1420.4901      1420.4894      6585.4713      0.0019670423  -1.3607164e-07  1.1656226e-07  6.3691289      16.547482      20.550376      2165.8668    
       105   0             -146.71436      3142.1503      1420.4897      1420.4898      6585.4713     -0.0002266471  -4.8606428e-08  5.9808374e-08  6.3691289      16.547482      20.550376      2165.8668    
       106   0             -146.71436      3142.1503      1420.4896      1420.49        6585.4713     -0.0011280329  -4.2883877e-08  1.9313108e-08  6.3691289      16.547482      20.550376      2165.8668    
       107   0             -146.71436      3142.1503      1420.4896      1420.49        6585.4713     -0.0010617185  -4.1812757e-08 -1.5787442e-09  6.3691289      16.547482      20.550376      2165.8668    
       108   0             -146.71436      3142.1503      1420.4897      1420.4899      6585.4713     -0.0004806442  -2.3684065e-08 -7.6028292e-09  6.3691289      16.547482      20.550376      2165.8668    
       109   0             -146.71436      3142.1503      1420.4898      1420.4898      6585.4713      0.00012782647 -1.1850219e-08 -3.9534956e-09  6.3691289      16.547482      20.550376      2165.8668    
       110   0             -146.71436      3142.1503      1420.4898      1420.4897      6585.4713      0.00031535153 -6.9953869e-09 -1.3210697e-09  6.3691289      16.547482      20.550376      2165.8668    
       111   0             -146.71436      3142.1503      1420.4898      1420.4897      6585.4713      0.0002557788  -2.0151636e-09  2.1941959e-09  6.3691289      16.547482      20.550376      2165.8668    
       112   0             -146.71436      3142.1503      1420.4898      1420.4898      6585.4713      8.5857674e-05  2.960698e-10   1.7342745e-09  6.3691289      16.547482      20.550376      2165.8668    
       113   0             -146.71436      3142.1503      1420.4898      1420.4898      6585.4713     -5.5071776e-05  7.9922677e-10  9.4168663e-10  6.3691289      16.547482      20.550376      2165.8668    
       114   0             -146.71436      3142.1503      1420.4898      1420.4898      6585.4713     -0.0001132281   7.3158447e-10  3.7161944e-10  6.3691289      16.547482      20.550376      2165.8668    
       115   0             -146.71436      3142.1503      1420.4898      1420.4898      6585.4713     -7.4866306e-05  3.5908088e-10  8.0033935e-11  6.3691289      16.547482      20.550376      2165.8668    
       116   0             -146.71436      3142.1503      1420.4898      1420.4898      6585.4713     -9.9223989e-06 -3.1796192e-11 -6.6724139e-11  6.3691289      16.547482      20.550376      2165.8668    
       117   0             -146.71436      3142.1503      1420.4898      1420.4898      6585.4713      5.7326564e-05 -1.6937523e-10 -5.3113423e-11  6.3691289      16.547482      20.550376      2165.8668    
       118   0             -146.71436      3142.1503      1420.4898      1420.4898      6585.4713      7.790081e-05  -1.09707e-10   -1.6673175e-11  6.3691289      16.547482      20.550376      2165.8668    
       119   0             -146.71436      3142.1503      1420.4898      1420.4898      6585.4713      4.4207187e-05 -4.6892262e-11  6.5592961e-12  6.3691289      16.547482      20.550376      2165.8668    
       120   0             -146.71436      3142.1503      1420.4898      1420.4898      6585.4713      6.6266414e-06 -1.3493299e-11  2.5629569e-11  6.3691289      16.547482      20.550376      2165.8668    
       121   0             -146.71436      3142.1503      1420.4898      1420.4898      6585.4713     -1.5713997e-05 -3.0784997e-12  1.0025335e-11  6.3691289      16.547482      20.550376      2165.8668    
       122   0             -146.71436      3142.1503      1420.4898      1420.4898      6585.4713     -1.7627597e-05 -1.981327e-12  -1.5110185e-12  6.3691289      16.547482      20.550376      2165.8668    
       123   0             -146.71436      3142.1503      1420.4898      1420.4898      6585.4713     -1.020216e-05   3.6379936e-12 -5.0315954e-12  6.3691289      16.547482      20.550376      2165.8668    
       124   0             -146.71436      3142.1503      1420.4898      1420.4898      6585.4713     -4.4229512e-06  1.1748089e-11  8.6131263e-12  6.3691289      16.547482      20.550376      2165.8668    
       125   0             -146.71436      3142.1503      1420.4898      1420.4898      6585.4713     -5.6096485e-07 -1.2781099e-12 -4.9776992e-12  6.3691289      16.547482      20.550376      2165.8668    
       126   0             -146.71436      3142.1503      1420.4898      1420.4898      6585.4713      1.2642473e-06  1.1260456e-11 -1.3197512e-11  6.3691289      16.547482      20.550376      2165.8668    
       127   0             -146.71436      3142.1503      1420.4898      1420.4898      6585.4713      1.3793607e-06 -1.933847e-12   1.1227092e-11  6.3691289      16.547482      20.550376      2165.8668    
       128   0             -146.71436      3142.1503      1420.4898      1420.4898      6585.4713      7.3636081e-07  8.9570354e-13  1.5227602e-11  6.3691289      16.547482      20.550376      2165.8668    
       129   0             -146.71436      3142.1503      1420.4898      1420.4898      6585.4713      3.7030219e-08  5.4653315e-12  1.9480269e-11  6.3691289      16.547482      20.550376      2165.8668    
       130   0             -146.71436      3142.1503      1420.4898      1420.4898      6585.4713     -4.9840648e-07 -3.8972087e-12 -6.5567296e-12  6.3691289      16.547482      20.550376      2165.8668    
       131   0             -146.71436      3142.1503      1420.4898      1420.4898      6585.4713     -4.5575247e-07 -1.7426439e-12 -6.3982491e-12  6.3691289      16.547482      20.550376      2165.8668    
       132   0             -146.71436      3142.1503      1420.4898      1420.4898      6585.4713     -2.0603904e-07 -1.3217402e-12 -1.4940797e-11  6.3691289      16.547482      20.550376      2165.8668    
       133   0             -146.71436      3142.1503      1420.4898      1420.4898      6585.4713      2.2742031e-08  3.6020628e-12 -6.6510479e-12  6.3691289      16.547482      20.550376      2165.8668    
       134   0             -146.71436      3142.1503      1420.4898      1420.4898      6585.4713      1.2775485e-07 -6.5920188e-12  1.4335106e-11  6.3691289      16.547482      20.550376      2165.8668    
       135   0             -146.71436      3142.1503      1420.4898      1420.4898      6585.4713      1.1870122e-07  1.2704105e-13  6.8634246e-12  6.3691289      16.547482      20.550376      2165.8668    
[...]
       116   0             -146.7387      -486.82722     -454.70216     -226.41971     -779.3598       2142.3391     -7.5899708e-06 -5.2999113e-07  6.3691289      16.547482      20.757956      2187.7442    
       117   0             -146.7387      -486.82719     -454.70195     -226.41984     -779.35977      2142.3393      5.4796307e-06  2.8191799e-07  6.3691289      16.547482      20.757956      2187.7442    
       118   0             -146.7387      -486.82718     -454.70175     -226.42002     -779.35976      2142.3393     -6.1875317e-06 -5.3872532e-07  6.3691289      16.547482      20.757956      2187.7442    
       119   0             -146.7387      -486.82719     -454.70164     -226.42014     -779.35977      2142.3393      4.1738137e-06  2.9333154e-07  6.3691289      16.547482      20.757956      2187.7442    
       120   0             -146.7387      -486.8272      -454.7017      -226.42011     -779.35978      2142.3392     -2.2664503e-06 -1.5918982e-07  6.3691289      16.547482      20.757956      2187.7442    
       121   0             -146.7387      -486.82721     -454.70181     -226.42002     -779.35979      2142.3392      1.1905264e-06  8.3623696e-08  6.3691289      16.547482      20.757956      2187.7442    
       122   0             -146.7387      -486.82721     -454.70187     -226.41996     -779.35979      2142.3392     -4.5212647e-07 -3.1770887e-08  6.3691289      16.547482      20.757956      2187.7442    
       123   0             -146.7387      -486.82721     -454.7019      -226.41994     -779.35979      2142.3392      2.6915734e-07  1.8897882e-08  6.3691289      16.547482      20.757956      2187.7442    
       124   0             -146.7387      -486.82721     -454.7019      -226.41994     -779.35979      2142.3392     -1.4606757e-07 -1.0274879e-08  6.3691289      16.547482      20.757956      2187.7442    
       125   0             -146.7387      -486.82721     -454.70188     -226.41995     -779.35979      2142.3392      9.5398682e-08  6.6910988e-09  6.3691289      16.547482      20.757956      2187.7442    
       126   0             -146.7387      -486.82721     -454.70187     -226.41996     -779.35979      2142.3392     -4.8502435e-08 -3.4032283e-09  6.3691289      16.547482      20.757956      2187.7442    
       127   0             -146.7387      -486.82721     -454.70186     -226.41997     -779.35979      2142.3392      2.1176466e-08  1.4823086e-09  6.3691289      16.547482      20.757956      2187.7442    
       128   0             -146.7387      -486.82721     -454.70186     -226.41997     -779.35979      2142.3392     -5.6221342e-09 -4.0622772e-10  6.3691289      16.547482      20.757956      2187.7442    
       129   0             -146.7387      -486.82721     -454.70187     -226.41996     -779.35979      2142.3392     -1.0995793e-08 -7.5193436e-10  6.3691289      16.547482      20.757956      2187.7442    
       130   0             -146.7387      -486.82721     -454.70187     -226.41996     -779.35979      2142.3392      1.6801642e-08  1.1861156e-09  6.3691289      16.547482      20.757956      2187.7442    
       131   0             -146.7387      -486.82721     -454.70187     -226.41996     -779.35979      2142.3392     -1.7625911e-08 -1.2231118e-09  6.3691289      16.547482      20.757956      2187.7442    
       132   0             -146.7387      -486.82721     -454.70187     -226.41996     -779.35979      2142.3392      3.4679115e-08  2.4153317e-09  6.3691289      16.547482      20.757956      2187.7442    
       133   0             -146.7387      -486.82721     -454.70187     -226.41996     -779.35979      2142.3392     -3.8774947e-08 -2.7167137e-09  6.3691289      16.547482      20.757956      2187.7442    
       134   0             -146.7387      -486.82721     -454.70187     -226.41996     -779.35979      2142.3392      2.5560742e-08  1.8055277e-09  6.3691289      16.547482      20.757956      2187.7442    
       135   0             -146.7387      -486.82721     -454.70187     -226.41996     -779.35979      2142.3392     -1.415706e-08  -9.9131971e-10  6.3691289      16.547482      20.757956      2187.7442    
       136   0             -146.7387      -486.82721     -454.70187     -226.41996     -779.35979      2142.3392      1.9658113e-08  1.3850879e-09  6.3691289      16.547482      20.757956      2187.7442    
       137   0             -146.7387      -486.82721     -454.70187     -226.41996     -779.35979      2142.3392     -1.4472206e-08 -1.0006934e-09  6.3691289      16.547482      20.757956      2187.7442    
       138   0             -146.7387      -486.82721     -454.70187     -226.41996     -779.35979      2142.3392      9.2555971e-09  6.4012934e-10  6.3691289      16.547482      20.757956      2187.7442    
       139   0             -146.7387      -486.82721     -454.70187     -226.41996     -779.35979      2142.3392     -4.3490368e-09 -3.0820539e-10  6.3691289      16.547482      20.757956      2187.7442    
       140   0             -146.7387      -486.82721     -454.70187     -226.41996     -779.35979      2142.3392      2.8672072e-09  1.8484663e-10  6.3691289      16.547482      20.757956      2187.7442    
       141   0             -146.7387      -486.82721     -454.70187     -226.41996     -779.35979      2142.3392     -2.618053e-09  -1.7992506e-10  6.3691289      16.547482      20.757956      2187.7442    
Loop time of 0.016039 on 1 procs for 41 steps with 96 atoms

194.8% CPU use with 1 MPI tasks x 1 OpenMP threads

Minimization stats:
  Stopping criterion = force tolerance
  Energy initial, next-to-last, final = 
     -146.738210965317  -146.738698136143  -146.738698136143
  Force two-norm initial, final = 0.037737482 9.6836355e-11
  Force max component initial, final = 0.0039060991 1.7001244e-11
  Final line search alpha, max atom move = 1 1.7001244e-11
  Iterations, force evaluations = 41 82

MPI task timing breakdown:
Section |  min time  |  avg time  |  max time  |%varavg| %total
---------------------------------------------------------------
Pair    | 0.015172   | 0.015172   | 0.015172   |   0.0 | 94.59
Neigh   | 0          | 0          | 0          |   0.0 |  0.00
Comm    | 0.000311   | 0.000311   | 0.000311   |   0.0 |  1.94
Output  | 0.000372   | 0.000372   | 0.000372   |   0.0 |  2.32
Modify  | 0          | 0          | 0          |   0.0 |  0.00
Other   |            | 0.000184   |            |       |  1.15

Nlocal:             96 ave          96 max          96 min
Histogram: 1 0 0 0 0 0 0 0 0 0
Nghost:           1310 ave        1310 max        1310 min
Histogram: 1 0 0 0 0 0 0 0 0 0
Neighs:           6144 ave        6144 max        6144 min
Histogram: 1 0 0 0 0 0 0 0 0 0

Total # of neighbors = 6144
Ave neighs/atom = 64
Neighbor list builds = 0
Dangerous builds = 0
OMP_NUM_THREADS environment is not set. Defaulting to 1 thread. (src/comm.cpp:98)
  using 1 OpenMP thread(s) per MPI task
Loaded 1 plugins from F:\Lammps\LAMMPS 64-bit 2Aug2023\plugins

The 'box' command has been removed and will be ignored

Reading restart file ...
  restart file = 2 Aug 2023, LAMMPS = 2 Aug 2023
  restoring atom style atomic from restart
  triclinic box = (0.025435542 0.066083476 0.10483816) to (6.3945645 16.613566 20.862794) with tilt (0 0 0)
  1 by 1 by 1 MPI processor grid
  pair style eam/alloy stores no restart info
  96 atoms
  read_restart CPU = 0.000 seconds
Changing box ...
  triclinic box = (0.025435542 0.066083476 0.10483816) to (6.3945645 16.613566 20.862794) with tilt (0.16547482 0 0)
Neighbor list info ...
  update: every = 1 steps, delay = 0 steps, check = yes
  max neighbors/atom: 2000, page size: 100000
  master list distance cutoff = 8.5
  ghost atom cutoff = 8.5
  1 neighbor lists, perpetual/occasional/extra = 1 0 0
  (1) pair eam/alloy, perpetual
      attributes: half, newton on
      pair build: half/nsq/newton
      stencil: none
      bin: none
Setting up cg style minimization ...
  Unit style    : metal
  Current step  : 100
Per MPI rank memory allocation (min/avg/max) = 4.467 | 4.467 | 4.467 Mbytes
   Step          Temp          PotEng         Press           Pxx            Pyy            Pzz            Pxy            Pxz            Pyz             Lx             Ly             Lz           Volume    
       100   0             -146.73821     -468.9705      -426.25754     -224.56466     -756.08929     -2214.7261      0.0039414877  -0.00014201566  6.3691289      16.547482      20.757956      2187.7442    
       101   0             -146.7387      -486.69103     -451.10531     -229.66799     -779.29979     -2142.8583     -0.013245889    0.00098161695  6.3691289      16.547482      20.757956      2187.7442    
       102   0             -146.7387      -486.76278     -452.49711     -228.44844     -779.34278     -2142.5956      0.014740813   -0.0010965951   6.3691289      16.547482      20.757956      2187.7442    
       103   0             -146.7387      -486.82939     -454.55914     -226.56391     -779.36513     -2142.3337     -0.0055089478   0.00036961552  6.3691289      16.547482      20.757956      2187.7442    
       104   0             -146.7387      -486.83147     -454.69679     -226.43332     -779.36429     -2142.3233      0.00097472618 -7.9703242e-05  6.3691289      16.547482      20.757956      2187.7442    
       105   0             -146.7387      -486.83031     -454.70484     -226.42316     -779.36293     -2142.3275     -0.0002727671   1.627722e-05   6.3691289      16.547482      20.757956      2187.7442    
       106   0             -146.7387      -486.8292      -454.70482     -226.421       -779.36178     -2142.3316      0.00011737544 -1.2012404e-05  6.3691289      16.547482      20.757956      2187.7442    
       107   0             -146.7387      -486.82834     -454.7039      -226.42021     -779.36092     -2142.3349     -7.6570123e-05  2.3205488e-06  6.3691289      16.547482      20.757956      2187.7442    
       108   0             -146.7387      -486.82739     -454.70257     -226.41963     -779.35996     -2142.3385      7.6646838e-05 -8.5310278e-06  6.3691289      16.547482      20.757956      2187.7442    
       109   0             -146.7387      -486.82664     -454.70129     -226.41942     -779.35922     -2142.3413     -6.3198304e-05  2.1030854e-06  6.3691289      16.547482      20.757956      2187.7442    
       110   0             -146.7387      -486.82652     -454.70079     -226.41967     -779.3591      -2142.3418      5.6878412e-05 -5.401761e-06   6.3691289      16.547482      20.757956      2187.7442    
       111   0             -146.7387      -486.82683     -454.70099     -226.42009     -779.35942     -2142.3406     -4.7658834e-05  2.973313e-06   6.3691289      16.547482      20.757956      2187.7442    
       112   0             -146.7387      -486.82713     -454.70145     -226.42022     -779.35972     -2142.3395      4.0934397e-05 -3.2243775e-06  6.3691289      16.547482      20.757956      2187.7442    
       113   0             -146.7387      -486.82727     -454.7018      -226.42017     -779.35986     -2142.3389     -2.2232324e-05  1.4340227e-06  6.3691289      16.547482      20.757956      2187.7442    
       114   0             -146.7387      -486.82731     -454.70204     -226.42        -779.35989     -2142.3388      2.1105934e-05 -1.6392679e-06  6.3691289      16.547482      20.757956      2187.7442    
       115   0             -146.7387      -486.82728     -454.7022      -226.41977     -779.35985     -2142.3389     -1.7687698e-05  1.4498323e-06  6.3691289      16.547482      20.757956      2187.7442    
       116   0             -146.7387      -486.82722     -454.70215     -226.41972     -779.3598      -2142.3391      8.3201298e-06 -5.2189405e-07  6.3691289      16.547482      20.757956      2187.7442    
       117   0             -146.7387      -486.82719     -454.70196     -226.41984     -779.35977     -2142.3393     -6.0862207e-06  4.3372836e-07  6.3691289      16.547482      20.757956      2187.7442    
       118   0             -146.7387      -486.82718     -454.70178     -226.41999     -779.35976     -2142.3393      6.1677376e-06 -4.5219444e-07  6.3691289      16.547482      20.757956      2187.7442    
       119   0             -146.7387      -486.82719     -454.70166     -226.42013     -779.35977     -2142.3393     -4.3028317e-06  3.0219475e-07  6.3691289      16.547482      20.757956      2187.7442    
       120   0             -146.7387      -486.8272      -454.70171     -226.42011     -779.35979     -2142.3392      2.7510014e-06 -1.933294e-07   6.3691289      16.547482      20.757956      2187.7442    
       121   0             -146.7387      -486.82721     -454.70181     -226.42002     -779.35979     -2142.3392     -1.8762081e-06  1.3177437e-07  6.3691289      16.547482      20.757956      2187.7442    
       122   0             -146.7387      -486.82721     -454.70187     -226.41996     -779.35979     -2142.3392      5.3536343e-07 -3.76193e-08    6.3691289      16.547482      20.757956      2187.7442    
       123   0             -146.7387      -486.82721     -454.7019      -226.41994     -779.35979     -2142.3392     -3.018303e-07   2.1176141e-08  6.3691289      16.547482      20.757956      2187.7442    
       124   0             -146.7387      -486.82721     -454.70189     -226.41994     -779.35979     -2142.3392      1.4910498e-07 -1.0446091e-08  6.3691289      16.547482      20.757956      2187.7442    
       125   0             -146.7387      -486.82721     -454.70188     -226.41996     -779.35979     -2142.3392     -1.1824317e-07  8.2996252e-09  6.3691289      16.547482      20.757956      2187.7442    
       126   0             -146.7387      -486.82721     -454.70187     -226.41996     -779.35979     -2142.3392      7.4643093e-08 -5.2302195e-09  6.3691289      16.547482      20.757956      2187.7442    
       127   0             -146.7387      -486.82721     -454.70186     -226.41997     -779.35979     -2142.3392     -4.8222599e-08  3.4002454e-09  6.3691289      16.547482      20.757956      2187.7442    
       128   0             -146.7387      -486.82721     -454.70186     -226.41997     -779.35979     -2142.3392      2.630121e-08  -1.8636934e-09  6.3691289      16.547482      20.757956      2187.7442    
       129   0             -146.7387      -486.82721     -454.70187     -226.41996     -779.35979     -2142.3392     -1.0356716e-09  5.5565848e-11  6.3691289      16.547482      20.757956      2187.7442    
       130   0             -146.7387      -486.82721     -454.70187     -226.41996     -779.35979     -2142.3392     -6.004064e-09   4.0305868e-10  6.3691289      16.547482      20.757956      2187.7442    
       131   0             -146.7387      -486.82721     -454.70187     -226.41996     -779.35979     -2142.3392      9.567526e-09  -6.7860373e-10  6.3691289      16.547482      20.757956      2187.7442    
       132   0             -146.7387      -486.82721     -454.70187     -226.41996     -779.35979     -2142.3392     -2.1857844e-08  1.5543739e-09  6.3691289      16.547482      20.757956      2187.7442    
       133   0             -146.7387      -486.82721     -454.70187     -226.41996     -779.35979     -2142.3392      2.3947806e-08 -1.6785089e-09  6.3691289      16.547482      20.757956      2187.7442    
       134   0             -146.7387      -486.82721     -454.70187     -226.41996     -779.35979     -2142.3392     -1.3042696e-08  9.1538791e-10  6.3691289      16.547482      20.757956      2187.7442    
       135   0             -146.7387      -486.82721     -454.70187     -226.41996     -779.35979     -2142.3392      8.3290981e-09 -5.813627e-10   6.3691289      16.547482      20.757956      2187.7442    
       136   0             -146.7387      -486.82721     -454.70187     -226.41996     -779.35979     -2142.3392     -9.8728209e-09  6.8081742e-10  6.3691289      16.547482      20.757956      2187.7442    
       137   0             -146.7387      -486.82721     -454.70187     -226.41996     -779.35979     -2142.3392      5.9204761e-09 -3.9497188e-10  6.3691289      16.547482      20.757956      2187.7442    
       138   0             -146.7387      -486.82721     -454.70187     -226.41996     -779.35979     -2142.3392     -5.1082481e-09  3.6092488e-10  6.3691289      16.547482      20.757956      2187.7442    
       139   0             -146.7387      -486.82721     -454.70187     -226.41996     -779.35979     -2142.3392      3.0254304e-09 -2.0174817e-10  6.3691289      16.547482      20.757956      2187.7442    
       140   0             -146.7387      -486.82721     -454.70187     -226.41996     -779.35979     -2142.3392     -1.9332687e-09  1.402025e-10   6.3691289      16.547482      20.757956      2187.7442    
       141   0             -146.7387      -486.82721     -454.70187     -226.41996     -779.35979     -2142.3392      1.9893281e-09 -1.3442975e-10  6.3691289      16.547482      20.757956      2187.7442    
Loop time of 0.016389 on 1 procs for 41 steps with 96 atoms

95.3% CPU use with 1 MPI tasks x 1 OpenMP threads

Minimization stats:
  Stopping criterion = force tolerance
  Energy initial, next-to-last, final = 
     -146.738211447004  -146.738698136142  -146.738698136144
  Force two-norm initial, final = 0.037718758 8.8290701e-11
  Force max component initial, final = 0.0039172426 1.6170554e-11
  Final line search alpha, max atom move = 1 1.6170554e-11
  Iterations, force evaluations = 41 82

MPI task timing breakdown:
Section |  min time  |  avg time  |  max time  |%varavg| %total
---------------------------------------------------------------
Pair    | 0.015496   | 0.015496   | 0.015496   |   0.0 | 94.55
Neigh   | 0          | 0          | 0          |   0.0 |  0.00
Comm    | 0.000302   | 0.000302   | 0.000302   |   0.0 |  1.84
Output  | 0.000404   | 0.000404   | 0.000404   |   0.0 |  2.47
Modify  | 0          | 0          | 0          |   0.0 |  0.00
Other   |            | 0.000187   |            |       |  1.14

Nlocal:             96 ave          96 max          96 min
Histogram: 1 0 0 0 0 0 0 0 0 0
Nghost:           1310 ave        1310 max        1310 min
Histogram: 1 0 0 0 0 0 0 0 0 0
Neighs:           6144 ave        6144 max        6144 min
Histogram: 1 0 0 0 0 0 0 0 0 0

Total # of neighbors = 6144
Ave neighs/atom = 64
Neighbor list builds = 0
Dangerous builds = 0
=========================================
Components of the Elastic Constant Tensor
=========================================
Elastic Constant C11all = 68.4661362378523 GPa
Elastic Constant C22all = 68.5012349843394 GPa
Elastic Constant C33all = 70.824662273572 GPa
Elastic Constant C12all = 26.0282312640725 GPa
Elastic Constant C13all = 16.0241559311902 GPa
Elastic Constant C23all = 15.9958745712647 GPa
Elastic Constant C44all = 12.8093753054237 GPa
Elastic Constant C55all = 12.8089544164184 GPa
Elastic Constant C66all = 21.4233918852118 GPa
Elastic Constant C14all = -2.22486764036733e-11 GPa
Elastic Constant C15all = -3.74059961927633e-12 GPa
Elastic Constant C16all = -3.27921722909735e-11 GPa
Elastic Constant C24all = 3.23985799709147e-11 GPa
Elastic Constant C25all = 3.3507717923464e-12 GPa
Elastic Constant C26all = 1.6635656856858e-11 GPa
Elastic Constant C34all = 8.88127020663314e-13 GPa
Elastic Constant C35all = -1.39522839071989e-13 GPa
Elastic Constant C36all = 2.45473136287003e-11 GPa
Elastic Constant C45all = 1.37776173984326e-12 GPa
Elastic Constant C46all = 1.74552651398116e-12 GPa
Elastic Constant C56all = 2.27117631298494e-14 GPa
=========================================
Average properties for a cubic crystal
=========================================
Bulk Modulus = 35.9876174476465 GPa
Shear Modulus 1 = 15.680573869018 GPa
Shear Modulus 2 = 24.9572952882061 GPa
Poisson Ratio = 0.218357648562097
Total wall time: 0:00:00
