LAMMPS (2 Aug 2023 - Update 3)
OMP_NUM_THREADS environment is not set. Defaulting to 1 thread. (src/comm.cpp:98)
  using 1 OpenMP thread(s) per MPI task
Loaded 1 plugins from F:\Lammps\LAMMPS 64-bit 2Aug2023\plugins
Lattice spacing in x,y,z = 3.17 5.4906011 5.1765883
Created triclinic box = (0 0 0) to (6.34 16.471803 20.706353) with tilt (0 0 0)
  1 by 1 by 1 MPI processor grid
Created 96 atoms
  using lattice units in triclinic box = (0 0 0) to (6.34 16.471803 20.706353) with tilt (0 0 0)
  create_atoms CPU = 0.000 seconds
Neighbor list info ...
  update: every = 1 steps, delay = 0 steps, check = yes
  max neighbors/atom: 2000, page size: 100000
  master list distance cutoff = 8.5
  ghost atom cutoff = 8.5
  1 neighbor lists, perpetual/occasional/extra = 1 0 0
  (1) pair eam/alloy, perpetual
      attributes: half, newton on
      pair build: half/nsq/newton
      stencil: none
      bin: none
Setting up cg style minimization ...
  Unit style    : metal
  Current step  : 0
WARNING: Energy due to 3 extra global DOFs will be included in minimizer energies
 (src/min.cpp:228)
Per MPI rank memory allocation (min/avg/max) = 4.472 | 4.472 | 4.472 Mbytes
   Step          Temp          PotEng         Press           Pxx            Pyy            Pzz            Pxy            Pxz            Pyz             Lx             Ly             Lz           Volume    
         0   0             -146.72439      3772.2495      4425.4155      4425.4155      2465.9176      4.1001267e-12  1.1177022e-11 -7.5627415e-12  6.34           16.471803      20.706353      2162.39      
         1   0             -146.72575      3681.9194      4325.0865      4325.0865      2395.5851     -6.0779438e-12  6.9594384e-12 -9.5088338e-13  6.340634       16.47345       20.707507      2162.943     
         2   0             -146.72708      3591.118       4223.9692      4223.9692      2325.4156      8.1241232e-12  1.1633785e-11 -1.4285302e-11  6.341268       16.475098      20.708654      2163.4954    
         3   0             -146.72838      3500.0778      4122.6305      4122.6305      2254.9723      9.5039822e-14 -1.3151456e-12 -8.1682874e-13  6.341902       16.476745      20.709794      2164.0472    
         4   0             -146.72964      3409.5005      4021.7214      4021.7214      2185.0587     -2.6707095e-13  3.800625e-13   1.1386467e-11  6.342536       16.478392      20.710927      2164.5982    
         5   0             -146.73087      3320.0138      3921.937       3921.937       2116.1675      6.9626182e-12  6.4080733e-12 -1.6338533e-11  6.34317        16.480039      20.712052      2165.1486    
         6   0             -146.73207      3228.9018      3820.073       3820.073       2046.5595     -1.6991458e-12  6.242179e-12  -2.4486179e-12  6.343804       16.481686      20.71317       2165.6983    
         7   0             -146.73323      3138.4425      3719.2597      3719.2597      1976.808      -6.2534274e-12 -5.5323716e-12  1.3045722e-11  6.344438       16.483333      20.714279      2166.2473    
         8   0             -146.73437      3048.225       3618.3232      3618.3232      1908.0288     -3.6787634e-12  1.4468777e-12 -1.0825929e-12  6.345072       16.484981      20.71538       2166.7954    
         9   0             -146.73546      2958.4291      3517.496       3517.496       1840.2953      1.3590547e-11 -8.4738947e-12  1.3582853e-11  6.345706       16.486628      20.716472      2167.3427    
        10   0             -146.73653      2868.5093      3416.5005      3416.5005      1772.527      -1.73589e-11    5.8461287e-13 -8.9435513e-12  6.34634        16.488275      20.717556      2167.8892    
        11   0             -146.73756      2778.6041      3315.3793      3315.3793      1705.0537      4.0246108e-12  8.6131797e-13 -2.9428364e-11  6.346974       16.489922      20.718631      2168.4348    
        12   0             -146.73856      2688.9234      3214.6771      3214.6771      1637.4158      3.3008896e-12  2.7268219e-12 -2.2224623e-11  6.347608       16.491569      20.719696      2168.9796    
        13   0             -146.73953      2599.2424      3113.8114      3113.8114      1570.1044      1.1627083e-11  4.2019426e-12  1.5762409e-11  6.348242       16.493217      20.720752      2169.5234    
        14   0             -146.74046      2509.9394      3013.2832      3013.2832      1503.252      -7.2234844e-13 -8.1968618e-13 -2.4805753e-11  6.348876       16.494864      20.721796      2170.0662    
        15   0             -146.74136      2420.0874      2911.7719      2911.7719      1436.7184      1.9411471e-12  9.1679506e-12 -1.2025893e-11  6.34951        16.496511      20.72283       2170.6079    
        16   0             -146.74223      2331.7803      2812.0096      2812.0096      1371.3218      6.2674734e-12  8.3259083e-12  1.0189765e-11  6.350144       16.498158      20.723852      2171.1485    
        17   0             -146.74306      2242.8217      2711.3282      2711.3282      1305.8086     -2.1910231e-12  2.7438981e-12  2.2278814e-11  6.350778       16.499805      20.724863      2171.6879    
        18   0             -146.74387      2153.3007      2609.5744      2609.5744      1240.7532     -4.6624474e-12  5.4250211e-13  2.188433e-11   6.351412       16.501452      20.725861      2172.2261    
        19   0             -146.74464      2064.8459      2509.0414      2509.0414      1176.455       7.009851e-12  -5.1371463e-12 -1.456207e-11   6.352046       16.5031        20.726846      2172.7631    
        20   0             -146.74538      1976.6234      2408.4834      2408.4834      1112.9034      6.343119e-12  -2.2814767e-12 -2.3264923e-11  6.35268        16.504747      20.727818      2173.2988    
        21   0             -146.74608      1888.8568      2308.4282      2308.4282      1049.7139     -1.0294807e-11 -6.4438433e-13 -7.0779993e-12  6.353314       16.506394      20.728776      2173.833     
        22   0             -146.74676      1800.8585      2207.9779      2207.9779      986.61968     -5.4043441e-12  2.1474215e-13  1.3631014e-11  6.353948       16.508041      20.729718      2174.3658    
        23   0             -146.7474       1713.1586      2107.6256      2107.6256      924.22464      1.5795029e-12  8.2808888e-13 -3.6599484e-12  6.354582       16.509688      20.730645      2174.8969    
        24   0             -146.74801      1625.0375      2006.4409      2006.4409      862.2308      -9.9039858e-12 -6.8479572e-12  1.5147272e-11  6.355216       16.511336      20.731554      2175.4263    
        25   0             -146.74859      1537.8585      1906.2713      1906.2713      801.03281     -2.8917941e-12  3.9545028e-12 -2.3338719e-11  6.35585        16.512983      20.732444      2175.9538    
        26   0             -146.74914      1451.0089      1806.3575      1806.3575      740.31157     -2.6459145e-12 -7.0489613e-13  1.8705287e-11  6.356484       16.51463       20.733316      2176.4794    
        27   0             -146.74965      1363.9125      1705.8477      1705.8477      680.0421       2.9312544e-12 -1.021343e-14   1.375749e-11   6.357118       16.516277      20.734165      2177.0028    
        28   0             -146.75014      1277.3107      1605.5771      1605.5771      620.77791     -3.5432121e-12  1.9400873e-12 -1.0343729e-11  6.357752       16.517924      20.734992      2177.5239    
        29   0             -146.75059      1191.6897      1506.1782      1506.1782      562.71249     -7.4063066e-12 -7.339951e-12  -3.6546627e-12  6.358386       16.519571      20.735794      2178.0424    
        30   0             -146.75101      1105.9171      1406.1446      1406.1446      505.46209     -5.2255427e-12  2.6535959e-12 -8.1138798e-12  6.35902        16.521219      20.736568      2178.5582    
        31   0             -146.7514       1021.3416      1307.3531      1307.3531      449.31863     -5.6732775e-12 -2.3264519e-12 -1.1020035e-12  6.359654       16.522866      20.737314      2179.0709    
        32   0             -146.75176      936.15646      1207.341       1207.341       393.78739     -1.2292629e-12  3.2338285e-12 -1.3924845e-11  6.360288       16.524513      20.738027      2179.5803    
        33   0             -146.75209      851.68804      1107.8117      1107.8117      339.44069      7.761428e-12  -2.0397971e-12 -4.946508e-12   6.360922       16.52616       20.738703      2180.086     
        34   0             -146.75239      768.23487      1009.0818      1009.0818      286.54098      4.2621957e-12  1.1410041e-11  2.7928598e-11  6.361556       16.527807      20.739339      2180.5874    
        35   0             -146.75266      685.66815      910.64299      910.64299      235.71846      3.6597604e-12  4.4855002e-12 -1.7401702e-11  6.36219        16.529454      20.739928      2181.084     
        36   0             -146.7529       603.98749      812.5444       812.5444       186.87366     -5.3711963e-12  3.037223e-12  -2.4257016e-12  6.362824       16.531102      20.740465      2181.5752    
        37   0             -146.75312      523.66613      715.50454      715.50454      139.9893      -2.3283597e-12 -3.1893943e-12  2.2356329e-11  6.363458       16.532749      20.740942      2182.0602    
        38   0             -146.7533       443.54212      617.95239      617.95239      94.721573     -4.2532932e-12 -1.2632535e-12  1.6554734e-11  6.364092       16.534396      20.741348      2182.5377    
        39   0             -146.75346      364.15561      520.27026      520.27026      51.926321     -1.223769e-11   3.3306071e-12  1.5603945e-11  6.364726       16.536043      20.741666      2183.0061    
        40   0             -146.75359      287.36503      424.47945      424.47945      13.1362        1.1781977e-11  2.2912228e-12  3.1995653e-11  6.36536        16.53769       20.741873      2183.4628    
        41   0             -146.75369      213.16605      329.97907      329.97907     -20.459999     -5.9152497e-12  5.0905763e-14 -3.6855773e-12  6.365994       16.539338      20.741937      2183.9045    
        42   0             -146.75377      141.60192      236.24291      236.24291     -47.680063     -5.0539669e-12 -3.2878778e-12  2.9305883e-11  6.366628       16.540985      20.741809      2184.326     
        43   0             -146.75382      75.175928      145.41715      145.41715     -65.306512     -6.813747e-12   2.6257606e-12 -1.7413474e-11  6.367262       16.542632      20.74139       2184.7169    
        44   0             -146.75385      16.609202      57.914826      57.914826     -66.002046      1.2439913e-11  9.1480421e-12 -1.0949158e-11  6.367896       16.544279      20.740457      2185.0538    
        45   0             -146.75386     -13.965589     -8.721328      -8.721328      -24.454112      3.9326532e-12  8.9947359e-12 -7.0513032e-12  6.3684508      16.545721      20.738387      2185.2164    
        46   0             -146.75386      1.7061536      3.8327204      3.8327204     -2.5469799      4.1516023e-12 -6.176526e-12  -9.2088237e-12  6.3683959      16.545578      20.737817      2185.1186    
        47   0             -146.75386     -0.068869903   -0.058756566   -0.058756566   -0.089096575    9.1579065e-12  1.8315813e-13 -4.6501814e-12  6.3684283      16.545662      20.737695      2185.1281    
        48   0             -146.75386     -0.0029012471  -0.0059305395  -0.0059305394   0.0031573377  -4.375445e-13   3.9277251e-12 -1.3716511e-11  6.3684281      16.545661      20.737693      2185.1277    
        49   0             -146.75386      0.0013997657   0.00072980202  0.00072980203  0.002739693   -1.5822831e-12 -6.1663249e-12  7.9063275e-12  6.368428       16.545661      20.737693      2185.1277    
        50   0             -146.75386     -2.9842816e-06 -4.3020426e-06 -4.3020574e-06 -3.4874495e-07 -7.1635194e-12  1.0551945e-11 -1.9893012e-11  6.368428       16.545661      20.737693      2185.1277    
        51   0             -146.75386     -3.12852e-07   -1.638212e-07  -1.6378623e-07 -6.1094859e-07  9.1782592e-12  1.7908798e-12  2.6486706e-11  6.368428       16.545661      20.737693      2185.1277    
        52   0             -146.75386      6.0336954e-08  1.2320656e-07  1.233651e-07  -6.5560794e-08 -8.455802e-12  -3.3578997e-13 -1.4886689e-11  6.368428       16.545661      20.737693      2185.1277    
        53   0             -146.75386     -2.2261349e-11 -3.67283e-11   -8.0485295e-11  5.0429548e-11  6.4003604e-12  4.0498306e-12 -2.3729158e-11  6.368428       16.545661      20.737693      2185.1277    
Loop time of 0.014322 on 1 procs for 53 steps with 96 atoms

109.1% CPU use with 1 MPI tasks x 1 OpenMP threads

Minimization stats:
  Stopping criterion = force tolerance
  Energy initial, next-to-last, final = 
     -146.724386219683  -146.753862724566  -146.753862724546
  Force two-norm initial, final = 9.0788294 2.4545072e-13
  Force max component initial, final = 5.9727965 1.0927983e-13
  Final line search alpha, max atom move = 1 1.0927983e-13
  Iterations, force evaluations = 53 61

MPI task timing breakdown:
Section |  min time  |  avg time  |  max time  |%varavg| %total
---------------------------------------------------------------
Pair    | 0.011289   | 0.011289   | 0.011289   |   0.0 | 78.82
Neigh   | 0          | 0          | 0          |   0.0 |  0.00
Comm    | 0.00023    | 0.00023    | 0.00023    |   0.0 |  1.61
Output  | 0.000529   | 0.000529   | 0.000529   |   0.0 |  3.69
Modify  | 0          | 0          | 0          |   0.0 |  0.00
Other   |            | 0.002274   |            |       | 15.88

Nlocal:             96 ave          96 max          96 min
Histogram: 1 0 0 0 0 0 0 0 0 0
Nghost:           1310 ave        1310 max        1310 min
Histogram: 1 0 0 0 0 0 0 0 0 0
Neighs:           6144 ave        6144 max        6144 min
Histogram: 1 0 0 0 0 0 0 0 0 0

Total # of neighbors = 6144
Ave neighs/atom = 64
Neighbor list builds = 0
Dangerous builds = 0
Displacing atoms ...
System init for write_restart ...
OMP_NUM_THREADS environment is not set. Defaulting to 1 thread. (src/comm.cpp:98)
  using 1 OpenMP thread(s) per MPI task
Loaded 1 plugins from F:\Lammps\LAMMPS 64-bit 2Aug2023\plugins

The 'box' command has been removed and will be ignored

Reading restart file ...
  restart file = 2 Aug 2023, LAMMPS = 2 Aug 2023
  restoring atom style atomic from restart
  triclinic box = (-0.014214012 -0.036929088 -0.015669905) to (6.354214 16.508732 20.722023) with tilt (0 0 0)
  1 by 1 by 1 MPI processor grid
  pair style eam/alloy stores no restart info
  96 atoms
  read_restart CPU = 0.000 seconds
Changing box ...
  triclinic box = (-0.014214012 -0.036929088 -0.015669905) to (6.3542076 16.508732 20.722023) with tilt (0 0 0)
  triclinic box = (-0.014214012 -0.036929088 -0.015669905) to (6.3542076 16.508732 20.722023) with tilt (0 0 0)
  triclinic box = (-0.014214012 -0.036929088 -0.015669905) to (6.3542076 16.508732 20.722023) with tilt (0 0 0)
Neighbor list info ...
  update: every = 1 steps, delay = 0 steps, check = yes
  max neighbors/atom: 2000, page size: 100000
  master list distance cutoff = 8.5
  ghost atom cutoff = 8.5
  1 neighbor lists, perpetual/occasional/extra = 1 0 0
  (1) pair eam/alloy, perpetual
      attributes: half, newton on
      pair build: half/nsq/newton
      stencil: none
      bin: none
Setting up cg style minimization ...
  Unit style    : metal
  Current step  : 53
Per MPI rank memory allocation (min/avg/max) = 4.465 | 4.465 | 4.465 Mbytes
   Step          Temp          PotEng         Press           Pxx            Pyy            Pzz            Pxy            Pxz            Pyz             Lx             Ly             Lz           Volume    
        53   0             -146.75386      0.36941009     0.70453371     0.24336911     0.16032744    -0.0085402679   1.3051845e-05  1.1895185e-05  6.3684217      16.545661      20.737693      2185.1255    
        54   0             -146.75386      0.36915893     0.70031375     0.24707981     0.16008322    -0.0066037727  -1.6126887e-06 -9.520476e-07   6.3684217      16.545661      20.737693      2185.1255    
        55   0             -146.75386      0.36911321     0.69479344     0.25251675     0.16002942    -0.0039261568  -7.1093292e-07 -1.2137838e-07  6.3684217      16.545661      20.737693      2185.1255    
        56   0             -146.75386      0.36910313     0.69087161     0.25641995     0.16001783    -0.0020180986  -4.0723243e-07 -3.7141844e-07  6.3684217      16.545661      20.737693      2185.1255    
        57   0             -146.75386      0.36910048     0.68817601     0.25911069     0.16001474    -0.00070505963 -8.3973659e-08  9.7822222e-08  6.3684217      16.545661      20.737693      2185.1255    
        58   0             -146.75386      0.36909979     0.68674547     0.26054002     0.16001387    -7.9109854e-06 -1.9128674e-08 -1.6683288e-07  6.3684217      16.545661      20.737693      2185.1255    
        59   0             -146.75386      0.36909955     0.68624923     0.26103586     0.16001355     0.00023382414  2.0156098e-08  1.0510281e-07  6.3684217      16.545661      20.737693      2185.1255    
        60   0             -146.75386      0.36909934     0.68629041     0.26099426     0.16001336     0.00021350179  4.8413666e-08 -8.8035712e-08  6.3684217      16.545661      20.737693      2185.1255    
        61   0             -146.75386      0.36909914     0.68652711     0.26075713     0.1600132      9.7875152e-05  4.4256268e-08  6.2604471e-08  6.3684217      16.545661      20.737693      2185.1255    
        62   0             -146.75386      0.36909897     0.68679225     0.26049159     0.16001307    -3.1550426e-05  2.7969107e-08 -1.6108687e-08  6.3684217      16.545661      20.737693      2185.1255    
        63   0             -146.75386      0.36909887     0.68691578     0.26036783     0.16001299    -9.181575e-05   1.1263809e-08  1.9476867e-08  6.3684217      16.545661      20.737693      2185.1255    
        64   0             -146.75386      0.36909883     0.68687525     0.26040829     0.16001295    -7.2017556e-05  8.9023988e-10 -9.7432665e-09  6.3684217      16.545661      20.737693      2185.1255    
        65   0             -146.75386      0.36909883     0.68676403     0.26051953     0.16001293    -1.7760544e-05 -2.5250503e-09  8.9356618e-09  6.3684217      16.545661      20.737693      2185.1255    
        66   0             -146.75386      0.36909884     0.6866734      0.26061019     0.16001293     2.6410668e-05 -1.3396698e-09 -7.7563134e-09  6.3684217      16.545661      20.737693      2185.1255    
        67   0             -146.75386      0.36909883     0.6866462      0.26063737     0.16001292     3.9622872e-05  8.2651477e-11  4.4972303e-09  6.3684217      16.545661      20.737693      2185.1255    
        68   0             -146.75386      0.36909882     0.68667247     0.26061108     0.16001291     2.6775656e-05  1.0123696e-09 -2.6578573e-09  6.3684217      16.545661      20.737693      2185.1255    
        69   0             -146.75386      0.3690988      0.68671891     0.26056459     0.1600129      4.107905e-06   1.0734949e-09  7.9316259e-10  6.3684217      16.545661      20.737693      2185.1255    
        70   0             -146.75386      0.36909879     0.68675477     0.26052871     0.16001289    -1.3371004e-05  5.9908679e-10 -4.6415185e-10  6.3684217      16.545661      20.737693      2185.1255    
        71   0             -146.75386      0.36909879     0.68675797     0.2605255      0.16001289    -1.491838e-05   2.3660624e-10  4.1588973e-10  6.3684217      16.545661      20.737693      2185.1255    
        72   0             -146.75386      0.36909879     0.68674287     0.26054061     0.16001289    -7.5411626e-06  5.636571e-11  -2.7059531e-10  6.3684217      16.545661      20.737693      2185.1255    
        73   0             -146.75386      0.36909879     0.68673029     0.2605532      0.16001289    -1.4038364e-06 -7.5094923e-12  1.7888319e-10  6.3684217      16.545661      20.737693      2185.1255    
        74   0             -146.75386      0.3690988      0.68672248     0.26056101     0.1600129      2.3973117e-06 -1.4868897e-12 -8.4932808e-11  6.3684217      16.545661      20.737693      2185.1255    
        75   0             -146.75386      0.3690988      0.68672002     0.26056347     0.1600129      3.5889033e-06 -6.1994013e-12  1.2753463e-11  6.3684217      16.545661      20.737693      2185.1255    
        76   0             -146.75386      0.3690988      0.68672292     0.26056057     0.16001289     2.1741848e-06 -1.5609162e-11 -5.4140523e-12  6.3684217      16.545661      20.737693      2185.1255    
        77   0             -146.75386      0.3690988      0.6867259      0.26055759     0.16001289     7.2426816e-07 -1.0035551e-12  1.3044269e-13  6.3684217      16.545661      20.737693      2185.1255    
        78   0             -146.75386      0.36909879     0.6867282      0.26055529     0.16001289    -3.9624634e-07 -9.2405931e-12 -2.2117871e-11  6.3684217      16.545661      20.737693      2185.1255    
        79   0             -146.75386      0.36909879     0.68672894     0.26055455     0.16001289    -7.5872321e-07  6.6840078e-12 -1.1887804e-11  6.3684217      16.545661      20.737693      2185.1255    
        80   0             -146.75386      0.36909879     0.68672864     0.26055485     0.16001289    -6.1161093e-07 -1.0048271e-13  1.18411e-11    6.3684217      16.545661      20.737693      2185.1255    
        81   0             -146.75386      0.36909879     0.68672787     0.26055562     0.16001289    -2.3601914e-07 -8.6911181e-12  1.4460189e-12  6.3684217      16.545661      20.737693      2185.1255    
        82   0             -146.75386      0.36909879     0.68672719     0.2605563      0.16001289     9.7194032e-08 -6.584797e-12   1.2508765e-12  6.3684217      16.545661      20.737693      2185.1255    
        83   0             -146.75386      0.36909879     0.6867271      0.2605564      0.16001289     1.4191119e-07 -2.2296985e-12  2.0439466e-11  6.3684217      16.545661      20.737693      2185.1255    
        84   0             -146.75386      0.36909879     0.68672721     0.26055628     0.16001289     8.3901874e-08 -1.9727681e-12 -3.3704634e-12  6.3684217      16.545661      20.737693      2185.1255    
        85   0             -146.75386      0.36909879     0.68672732     0.26055617     0.16001289     3.0773378e-08  4.9351e-12    -5.9986943e-12  6.3684217      16.545661      20.737693      2185.1255    
        86   0             -146.75386      0.36909879     0.68672739     0.2605561      0.16001289    -4.1146396e-10  1.1386344e-11 -1.3598772e-11  6.3684217      16.545661      20.737693      2185.1255    
        87   0             -146.75386      0.36909879     0.68672741     0.26055608     0.16001289    -1.1872473e-08 -7.4268167e-12 -2.682141e-11   6.3684217      16.545661      20.737693      2185.1255    
        88   0             -146.75386      0.36909879     0.68672741     0.26055608     0.16001289    -9.8859719e-09 -3.1429464e-12  2.0914384e-11  6.3684217      16.545661      20.737693      2185.1255    
        89   0             -146.75386      0.36909879     0.68672739     0.2605561      0.16001289    -3.9952458e-09 -3.150578e-12   1.4219853e-11  6.3684217      16.545661      20.737693      2185.1255    
Loop time of 0.014745 on 1 procs for 36 steps with 96 atoms

106.0% CPU use with 1 MPI tasks x 1 OpenMP threads

Minimization stats:
  Stopping criterion = force tolerance
  Energy initial, next-to-last, final = 
     -146.753862702402  -146.753862724091  -146.753862724091
  Force two-norm initial, final = 0.00049860459 6.8272732e-11
  Force max component initial, final = 6.7758528e-05 1.3053305e-11
  Final line search alpha, max atom move = 1 1.3053305e-11
  Iterations, force evaluations = 36 72

MPI task timing breakdown:
Section |  min time  |  avg time  |  max time  |%varavg| %total
---------------------------------------------------------------
Pair    | 0.013939   | 0.013939   | 0.013939   |   0.0 | 94.53
Neigh   | 0          | 0          | 0          |   0.0 |  0.00
Comm    | 0.000268   | 0.000268   | 0.000268   |   0.0 |  1.82
Output  | 0.000365   | 0.000365   | 0.000365   |   0.0 |  2.48
Modify  | 0          | 0          | 0          |   0.0 |  0.00
Other   |            | 0.000173   |            |       |  1.17

Nlocal:             96 ave          96 max          96 min
Histogram: 1 0 0 0 0 0 0 0 0 0
Nghost:           1310 ave        1310 max        1310 min
Histogram: 1 0 0 0 0 0 0 0 0 0
Neighs:           6144 ave        6144 max        6144 min
Histogram: 1 0 0 0 0 0 0 0 0 0

Total # of neighbors = 6144
Ave neighs/atom = 64
Neighbor list builds = 0
Dangerous builds = 0
OMP_NUM_THREADS environment is not set. Defaulting to 1 thread. (src/comm.cpp:98)
  using 1 OpenMP thread(s) per MPI task
Loaded 1 plugins from F:\Lammps\LAMMPS 64-bit 2Aug2023\plugins

The 'box' command has been removed and will be ignored

Reading restart file ...
  restart file = 2 Aug 2023, LAMMPS = 2 Aug 2023
  restoring atom style atomic from restart
  triclinic box = (-0.014214012 -0.036929088 -0.015669905) to (6.354214 16.508732 20.722023) with tilt (0 0 0)
  1 by 1 by 1 MPI processor grid
  pair style eam/alloy stores no restart info
  96 atoms
  read_restart CPU = 0.000 seconds
Changing box ...
  triclinic box = (-0.014214012 -0.036929088 -0.015669905) to (6.3542204 16.508732 20.722023) with tilt (0 0 0)
  triclinic box = (-0.014214012 -0.036929088 -0.015669905) to (6.3542204 16.508732 20.722023) with tilt (0 0 0)
  triclinic box = (-0.014214012 -0.036929088 -0.015669905) to (6.3542204 16.508732 20.722023) with tilt (0 0 0)
Neighbor list info ...
  update: every = 1 steps, delay = 0 steps, check = yes
  max neighbors/atom: 2000, page size: 100000
  master list distance cutoff = 8.5
  ghost atom cutoff = 8.5
  1 neighbor lists, perpetual/occasional/extra = 1 0 0
  (1) pair eam/alloy, perpetual
      attributes: half, newton on
      pair build: half/nsq/newton
      stencil: none
      bin: none
Setting up cg style minimization ...
  Unit style    : metal
  Current step  : 53
Per MPI rank memory allocation (min/avg/max) = 4.465 | 4.465 | 4.465 Mbytes
   Step          Temp          PotEng         Press           Pxx            Pyy            Pzz            Pxy            Pxz            Pyz             Lx             Ly             Lz           Volume    
        53   0             -146.75386     -0.36872759    -0.6839975     -0.26251774    -0.15966754    -0.0085469531   1.305186e-05   7.7881433e-06  6.3684344      16.545661      20.737693      2185.1299    
        54   0             -146.75386     -0.36897934    -0.68478164    -0.26224451    -0.15991186    -0.0066100685  -1.6107225e-06  4.2033013e-07  6.3684344      16.545661      20.737693      2185.1299    
        55   0             -146.75386     -0.36902615    -0.68553284    -0.2615796     -0.15996602    -0.00393573    -7.1247731e-07 -1.1316787e-06  6.3684344      16.545661      20.737693      2185.1299    
        56   0             -146.75386     -0.36903724    -0.68605145    -0.2610822     -0.15997808    -0.0020303493  -4.0907422e-07  1.7764205e-07  6.3684344      16.545661      20.737693      2185.1299    
        57   0             -146.75386     -0.3690407     -0.68640624    -0.26073429    -0.15998158    -0.00071422822 -8.4976081e-08 -2.1821569e-07  6.3684344      16.545661      20.737693      2185.1299    
        58   0             -146.75386     -0.36904186    -0.68659586    -0.26054701    -0.15998269    -8.544587e-06  -1.9145872e-08  1.1234958e-07  6.3684344      16.545661      20.737693      2185.1299    
        59   0             -146.75386     -0.36904226    -0.68666226    -0.26048143    -0.1599831      0.00023846901  2.0467232e-08 -1.0536979e-07  6.3684344      16.545661      20.737693      2185.1299    
        60   0             -146.75386     -0.36904245    -0.68665696    -0.26048711    -0.15998329     0.00021798122  4.8754921e-08  9.752036e-08   6.3684344      16.545661      20.737693      2185.1299    
        61   0             -146.75386     -0.36904257    -0.68662565    -0.26051866    -0.1599834      0.00010032439  4.4420003e-08 -4.3319981e-08  6.3684344      16.545661      20.737693      2185.1299    
        62   0             -146.75386     -0.36904266    -0.68659033    -0.26055416    -0.15998349    -3.2243736e-05  2.7920627e-08  3.2147049e-08  6.3684344      16.545661      20.737693      2185.1299    
        63   0             -146.75386     -0.36904272    -0.68657379    -0.26057084    -0.15998355    -9.4456923e-05  1.107442e-08  -8.241228e-09   6.3684344      16.545661      20.737693      2185.1299    
        64   0             -146.75386     -0.36904277    -0.68657925    -0.26056547    -0.15998359    -7.4243896e-05  7.9594354e-10  1.4895055e-08  6.3684344      16.545661      20.737693      2185.1299    
        65   0             -146.75386     -0.36904281    -0.6865942     -0.2605506     -0.15998363    -1.8491702e-05 -2.5380418e-09 -8.2247586e-09  6.3684344      16.545661      20.737693      2185.1299    
        66   0             -146.75386     -0.36904283    -0.68660645    -0.26053839    -0.15998365     2.7242299e-05 -1.3362113e-09  7.1139153e-09  6.3684344      16.545661      20.737693      2185.1299    
        67   0             -146.75386     -0.36904285    -0.68661016    -0.26053472    -0.15998366     4.1043789e-05  8.4814865e-11 -5.293605e-09   6.3684344      16.545661      20.737693      2185.1299    
        68   0             -146.75386     -0.36904285    -0.68660663    -0.26053826    -0.15998367     2.7817632e-05  1.022819e-09   1.8988087e-09  6.3684344      16.545661      20.737693      2185.1299    
        69   0             -146.75386     -0.36904285    -0.68660036    -0.26054453    -0.15998367     4.3403197e-06  1.0660799e-09 -1.1092201e-09  6.3684344      16.545661      20.737693      2185.1299    
        70   0             -146.75386     -0.36904285    -0.68659547    -0.26054941    -0.15998367    -1.3929676e-05  5.9613853e-10  5.1239739e-10  6.3684344      16.545661      20.737693      2185.1299    
        71   0             -146.75386     -0.36904285    -0.68659503    -0.26054986    -0.15998367    -1.5587021e-05  2.3489757e-10 -3.2548867e-10  6.3684344      16.545661      20.737693      2185.1299    
        72   0             -146.75386     -0.36904285    -0.68659709    -0.26054781    -0.15998367    -7.9206222e-06  4.9177918e-11  3.5641749e-10  6.3684344      16.545661      20.737693      2185.1299    
        73   0             -146.75386     -0.36904286    -0.6865988     -0.26054609    -0.15998367    -1.5002863e-06  5.0088621e-12 -1.3136048e-10  6.3684344      16.545661      20.737693      2185.1299    
        74   0             -146.75386     -0.36904286    -0.68659987    -0.26054502    -0.15998367     2.5128256e-06  7.1100911e-13  7.6669353e-11  6.3684344      16.545661      20.737693      2185.1299    
        75   0             -146.75386     -0.36904286    -0.68660021    -0.26054468    -0.15998367     3.7845195e-06 -8.3540391e-12 -1.8861755e-11  6.3684344      16.545661      20.737693      2185.1299    
        76   0             -146.75386     -0.36904286    -0.68659982    -0.26054508    -0.15998367     2.3015902e-06 -6.9256612e-12  2.4590519e-11  6.3684344      16.545661      20.737693      2185.1299    
        77   0             -146.75386     -0.36904286    -0.68659941    -0.26054549    -0.15998367     7.7424659e-07  1.0925882e-12 -8.0438669e-12  6.3684344      16.545661      20.737693      2185.1299    
        78   0             -146.75386     -0.36904286    -0.68659909    -0.26054581    -0.15998367    -4.2147474e-07 -6.9218454e-12 -1.3929337e-11  6.3684344      16.545661      20.737693      2185.1299    
        79   0             -146.75386     -0.36904286    -0.68659898    -0.26054591    -0.15998367    -8.1333389e-07 -1.5441235e-12  4.2056579e-12  6.3684344      16.545661      20.737693      2185.1299    
        80   0             -146.75386     -0.36904286    -0.68659903    -0.26054587    -0.15998367    -6.5799977e-07 -7.606144e-12  -2.8151398e-13  6.3684344      16.545661      20.737693      2185.1299    
        81   0             -146.75386     -0.36904286    -0.68659913    -0.26054576    -0.15998367    -2.5630704e-07  1.6625403e-11 -1.6343114e-12  6.3684344      16.545661      20.737693      2185.1299    
        82   0             -146.75386     -0.36904286    -0.68659923    -0.26054567    -0.15998367     1.0459406e-07 -4.2584231e-12 -1.7192177e-11  6.3684344      16.545661      20.737693      2185.1299    
        83   0             -146.75386     -0.36904286    -0.68659924    -0.26054565    -0.15998367     1.538198e-07  -5.8864941e-12 -1.3938529e-11  6.3684344      16.545661      20.737693      2185.1299    
        84   0             -146.75386     -0.36904286    -0.68659923    -0.26054567    -0.15998367     9.1386877e-08 -3.8157913e-14  7.1419093e-12  6.3684344      16.545661      20.737693      2185.1299    
        85   0             -146.75386     -0.36904286    -0.68659921    -0.26054569    -0.15998367     3.3924716e-08  3.4494753e-12  8.2913965e-14  6.3684344      16.545661      20.737693      2185.1299    
        86   0             -146.75386     -0.36904286    -0.6865992     -0.26054569    -0.15998367    -3.7183996e-10 -2.92544e-13   -1.7325978e-12  6.3684344      16.545661      20.737693      2185.1299    
        87   0             -146.75386     -0.36904286    -0.6865992     -0.2605457     -0.15998367    -1.3153342e-08  1.1142111e-11 -1.2110934e-11  6.3684344      16.545661      20.737693      2185.1299    
        88   0             -146.75386     -0.36904286    -0.6865992     -0.2605457     -0.15998367    -1.0986915e-08 -4.5496952e-12 -4.2213781e-12  6.3684344      16.545661      20.737693      2185.1299    
        89   0             -146.75386     -0.36904286    -0.6865992     -0.2605457     -0.15998367    -4.4923515e-09  1.480527e-12  -9.2272492e-12  6.3684344      16.545661      20.737693      2185.1299    
Loop time of 0.014791 on 1 procs for 36 steps with 96 atoms

105.6% CPU use with 1 MPI tasks x 1 OpenMP threads

Minimization stats:
  Stopping criterion = force tolerance
  Energy initial, next-to-last, final = 
     -146.753862702428   -146.75386272409   -146.75386272409
  Force two-norm initial, final = 0.00049850576 6.7818292e-11
  Force max component initial, final = 6.7756897e-05 1.2866434e-11
  Final line search alpha, max atom move = 1 1.2866434e-11
  Iterations, force evaluations = 36 72

MPI task timing breakdown:
Section |  min time  |  avg time  |  max time  |%varavg| %total
---------------------------------------------------------------
Pair    | 0.013975   | 0.013975   | 0.013975   |   0.0 | 94.48
Neigh   | 0          | 0          | 0          |   0.0 |  0.00
Comm    | 0.00028    | 0.00028    | 0.00028    |   0.0 |  1.89
Output  | 0.000352   | 0.000352   | 0.000352   |   0.0 |  2.38
Modify  | 0          | 0          | 0          |   0.0 |  0.00
Other   |            | 0.000184   |            |       |  1.24

Nlocal:             96 ave          96 max          96 min
Histogram: 1 0 0 0 0 0 0 0 0 0
Nghost:           1310 ave        1310 max        1310 min
Histogram: 1 0 0 0 0 0 0 0 0 0
Neighs:           6144 ave        6144 max        6144 min
Histogram: 1 0 0 0 0 0 0 0 0 0

Total # of neighbors = 6144
Ave neighs/atom = 64
Neighbor list builds = 0
Dangerous builds = 0
OMP_NUM_THREADS environment is not set. Defaulting to 1 thread. (src/comm.cpp:98)
  using 1 OpenMP thread(s) per MPI task
Loaded 1 plugins from F:\Lammps\LAMMPS 64-bit 2Aug2023\plugins

The 'box' command has been removed and will be ignored

Reading restart file ...
  restart file = 2 Aug 2023, LAMMPS = 2 Aug 2023
  restoring atom style atomic from restart
  triclinic box = (-0.014214012 -0.036929088 -0.015669905) to (6.354214 16.508732 20.722023) with tilt (0 0 0)
  1 by 1 by 1 MPI processor grid
  pair style eam/alloy stores no restart info
  96 atoms
  read_restart CPU = 0.000 seconds
Changing box ...
  triclinic box = (-0.014214012 -0.036929088 -0.015669905) to (6.354214 16.508716 20.722023) with tilt (0 0 0)
  triclinic box = (-0.014214012 -0.036929088 -0.015669905) to (6.354214 16.508716 20.722023) with tilt (0 0 0)
Neighbor list info ...
  update: every = 1 steps, delay = 0 steps, check = yes
  max neighbors/atom: 2000, page size: 100000
  master list distance cutoff = 8.5
  ghost atom cutoff = 8.5
  1 neighbor lists, perpetual/occasional/extra = 1 0 0
  (1) pair eam/alloy, perpetual
      attributes: half, newton on
      pair build: half/nsq/newton
      stencil: none
      bin: none
Setting up cg style minimization ...
  Unit style    : metal
  Current step  : 53
Per MPI rank memory allocation (min/avg/max) = 4.465 | 4.465 | 4.465 Mbytes
   Step          Temp          PotEng         Press           Pxx            Pyy            Pzz            Pxy            Pxz            Pyz             Lx             Ly             Lz           Volume    
        53   0             -146.75386      0.36941406     0.26316915     0.684744       0.16032902    -0.0085425141   1.3051869e-05  7.788129e-06   6.368428       16.545645      20.737693      2185.1255    
        54   0             -146.75386      0.36916231     0.26238395     0.68501828     0.16008471    -0.0066063108  -1.610638e-06   4.2022231e-07  6.368428       16.545645      20.737693      2185.1255    
        55   0             -146.75386      0.3691155      0.26163133     0.68568461     0.16003054    -0.0039330321  -7.1243538e-07 -1.1315e-06     6.368428       16.545645      20.737693      2185.1255    
        56   0             -146.75386      0.36910441     0.26111177     0.68618297     0.16001849    -0.002028603   -4.0899457e-07  1.775564e-07   6.368428       16.545645      20.737693      2185.1255    
        57   0             -146.75386      0.36910095     0.26075638     0.68653148     0.16001498    -0.00071335842 -8.4967012e-08 -2.1815281e-07  6.368428       16.545645      20.737693      2185.1255    
        58   0             -146.75386      0.36909979     0.26056646     0.68671905     0.16001387    -8.2854407e-06 -1.914156e-08   1.1230495e-07  6.368428       16.545645      20.737693      2185.1255    
        59   0             -146.75386      0.36909939     0.2605         0.68678469     0.16001346     0.0002383916   2.0467801e-08 -1.0529815e-07  6.368428       16.545645      20.737693      2185.1255    
        60   0             -146.75386      0.3690992      0.26050534     0.68677897     0.16001328     0.00021779243  4.8738307e-08  9.7478357e-08  6.368428       16.545645      20.737693      2185.1255    
        61   0             -146.75386      0.36909908     0.26053673     0.68674734     0.16001316     0.00010014474  4.4415442e-08 -4.32794e-08    6.368428       16.545645      20.737693      2185.1255    
        62   0             -146.75386      0.36909899     0.2605721      0.68671179     0.16001308    -3.2314963e-05  2.7897671e-08  3.2161364e-08  6.368428       16.545645      20.737693      2185.1255    
        63   0             -146.75386      0.36909893     0.26058865     0.68669511     0.16001302    -9.4412243e-05  1.1071238e-08 -8.2472974e-09  6.368428       16.545645      20.737693      2185.1255    
        64   0             -146.75386      0.36909888     0.26058316     0.68670051     0.16001297    -7.4135598e-05  7.8547076e-10  1.4918822e-08  6.368428       16.545645      20.737693      2185.1255    
        65   0             -146.75386      0.36909884     0.26056818     0.68671541     0.16001294    -1.8394259e-05 -2.5262026e-09 -8.224863e-09   6.368428       16.545645      20.737693      2185.1255    
        66   0             -146.75386      0.36909882     0.26055591     0.68672762     0.16001292     2.7272286e-05 -1.3354877e-09  7.1029419e-09  6.368428       16.545645      20.737693      2185.1255    
        67   0             -146.75386      0.3690988      0.26055222     0.68673129     0.16001291     4.100419e-05   9.2783695e-11 -5.3147147e-09  6.368428       16.545645      20.737693      2185.1255    
        68   0             -146.75386      0.3690988      0.26055576     0.68672774     0.1600129      2.7755389e-05  1.0212948e-09  1.9193929e-09  6.368428       16.545645      20.737693      2185.1255    
        69   0             -146.75386      0.3690988      0.26056205     0.68672145     0.1600129      4.2964128e-06  1.0618911e-09 -1.1177382e-09  6.368428       16.545645      20.737693      2185.1255    
        70   0             -146.75386      0.3690988      0.26056693     0.68671657     0.1600129     -1.393428e-05   5.9968715e-10  5.150264e-10   6.368428       16.545645      20.737693      2185.1255    
        71   0             -146.75386      0.3690988      0.26056736     0.68671613     0.1600129     -1.5565224e-05  2.357426e-10  -3.2567421e-10  6.368428       16.545645      20.737693      2185.1255    
        72   0             -146.75386      0.3690988      0.2605653      0.68671819     0.16001289    -7.8942558e-06  5.3456799e-11  3.6445844e-10  6.368428       16.545645      20.737693      2185.1255    
        73   0             -146.75386      0.36909879     0.26056359     0.6867199      0.16001289    -1.4838398e-06  5.6639176e-12 -1.2824329e-10  6.368428       16.545645      20.737693      2185.1255    
        74   0             -146.75386      0.36909879     0.26056252     0.68672097     0.16001289     2.5157645e-06 -1.4176965e-11  1.0452159e-10  6.368428       16.545645      20.737693      2185.1255    
        75   0             -146.75386      0.36909879     0.26056218     0.68672131     0.16001289     3.776538e-06  -4.6209325e-12 -3.3099532e-11  6.368428       16.545645      20.737693      2185.1255    
        76   0             -146.75386      0.36909879     0.26056258     0.68672091     0.16001289     2.2938188e-06  2.069435e-12   2.5448915e-11  6.368428       16.545645      20.737693      2185.1255    
        77   0             -146.75386      0.36909879     0.26056298     0.6867205      0.16001289     7.6963761e-07  6.1052783e-13 -5.1146711e-12  6.368428       16.545645      20.737693      2185.1255    
        78   0             -146.75386      0.36909879     0.2605633      0.68672019     0.16001289    -4.2236479e-07  9.2723914e-13 -3.3341934e-12  6.368428       16.545645      20.737693      2185.1255    
        79   0             -146.75386      0.36909879     0.26056341     0.68672008     0.16001289    -8.1173043e-07  5.446417e-12   5.2333384e-12  6.368428       16.545645      20.737693      2185.1255    
        80   0             -146.75386      0.36909879     0.26056337     0.68672012     0.16001289    -6.5538357e-07  6.168875e-13   2.1807221e-11  6.368428       16.545645      20.737693      2185.1255    
        81   0             -146.75386      0.36909879     0.26056326     0.68672023     0.16001289    -2.5454015e-07 -8.1912484e-13 -1.1136836e-11  6.368428       16.545645      20.737693      2185.1255    
        82   0             -146.75386      0.36909879     0.26056316     0.68672033     0.16001289     1.0492744e-07  6.1141818e-12 -9.9063308e-12  6.368428       16.545645      20.737693      2185.1255    
        83   0             -146.75386      0.36909879     0.26056315     0.68672034     0.16001289     1.5361764e-07  3.1734728e-12  7.0450182e-13  6.368428       16.545645      20.737693      2185.1255    
        84   0             -146.75386      0.36909879     0.26056317     0.68672032     0.16001289     9.1138937e-08 -9.5522167e-13  9.5689307e-12  6.368428       16.545645      20.737693      2185.1255    
        85   0             -146.75386      0.36909879     0.26056318     0.68672031     0.16001289     3.3732335e-08  6.8862452e-12  1.2585071e-11  6.368428       16.545645      20.737693      2185.1255    
        86   0             -146.75386      0.36909879     0.26056319     0.6867203      0.16001289    -4.4824953e-10  1.0530333e-11  6.689493e-12   6.368428       16.545645      20.737693      2185.1255    
        87   0             -146.75386      0.36909879     0.26056319     0.6867203      0.16001289    -1.3153133e-08  2.637989e-12  -6.1643039e-13  6.368428       16.545645      20.737693      2185.1255    
        88   0             -146.75386      0.36909879     0.26056319     0.6867203      0.16001289    -1.0967022e-08  7.8847125e-12 -8.4179903e-12  6.368428       16.545645      20.737693      2185.1255    
        89   0             -146.75386      0.36909879     0.26056319     0.6867203      0.16001289    -4.4731988e-09 -9.1451981e-13 -8.7092332e-12  6.368428       16.545645      20.737693      2185.1255    
Loop time of 0.014319 on 1 procs for 36 steps with 96 atoms

109.1% CPU use with 1 MPI tasks x 1 OpenMP threads

Minimization stats:
  Stopping criterion = force tolerance
  Energy initial, next-to-last, final = 
     -146.753862702427   -146.75386272409  -146.753862724089
  Force two-norm initial, final = 0.00049852327 6.7784965e-11
  Force max component initial, final = 6.7758325e-05 1.2876058e-11
  Final line search alpha, max atom move = 1 1.2876058e-11
  Iterations, force evaluations = 36 72

MPI task timing breakdown:
Section |  min time  |  avg time  |  max time  |%varavg| %total
---------------------------------------------------------------
Pair    | 0.013536   | 0.013536   | 0.013536   |   0.0 | 94.53
Neigh   | 0          | 0          | 0          |   0.0 |  0.00
Comm    | 0.000261   | 0.000261   | 0.000261   |   0.0 |  1.82
Output  | 0.000363   | 0.000363   | 0.000363   |   0.0 |  2.54
Modify  | 0          | 0          | 0          |   0.0 |  0.00
Other   |            | 0.000159   |            |       |  1.11

Nlocal:             96 ave          96 max          96 min
Histogram: 1 0 0 0 0 0 0 0 0 0
Nghost:           1310 ave        1310 max        1310 min
Histogram: 1 0 0 0 0 0 0 0 0 0
Neighs:           6144 ave        6144 max        6144 min
Histogram: 1 0 0 0 0 0 0 0 0 0

Total # of neighbors = 6144
Ave neighs/atom = 64
Neighbor list builds = 0
Dangerous builds = 0
OMP_NUM_THREADS environment is not set. Defaulting to 1 thread. (src/comm.cpp:98)
  using 1 OpenMP thread(s) per MPI task
Loaded 1 plugins from F:\Lammps\LAMMPS 64-bit 2Aug2023\plugins

The 'box' command has been removed and will be ignored

Reading restart file ...
  restart file = 2 Aug 2023, LAMMPS = 2 Aug 2023
  restoring atom style atomic from restart
  triclinic box = (-0.014214012 -0.036929088 -0.015669905) to (6.354214 16.508732 20.722023) with tilt (0 0 0)
  1 by 1 by 1 MPI processor grid
  pair style eam/alloy stores no restart info
  96 atoms
  read_restart CPU = 0.000 seconds
Changing box ...
  triclinic box = (-0.014214012 -0.036929088 -0.015669905) to (6.354214 16.508749 20.722023) with tilt (0 0 0)
  triclinic box = (-0.014214012 -0.036929088 -0.015669905) to (6.354214 16.508749 20.722023) with tilt (0 0 0)
Neighbor list info ...
  update: every = 1 steps, delay = 0 steps, check = yes
  max neighbors/atom: 2000, page size: 100000
  master list distance cutoff = 8.5
  ghost atom cutoff = 8.5
  1 neighbor lists, perpetual/occasional/extra = 1 0 0
  (1) pair eam/alloy, perpetual
      attributes: half, newton on
      pair build: half/nsq/newton
      stencil: none
      bin: none
Setting up cg style minimization ...
  Unit style    : metal
  Current step  : 53
Per MPI rank memory allocation (min/avg/max) = 4.465 | 4.465 | 4.465 Mbytes
   Step          Temp          PotEng         Press           Pxx            Pyy            Pzz            Pxy            Pxz            Pyz             Lx             Ly             Lz           Volume    
        53   0             -146.75386     -0.36873156    -0.24271774    -0.70380782    -0.15966912    -0.0085447068   1.3051841e-05  1.1895195e-05  6.368428       16.545678      20.737693      2185.1299    
        54   0             -146.75386     -0.36898272    -0.24694034    -0.70009449    -0.15991334    -0.0066075298  -1.6127651e-06 -9.5210949e-07  6.368428       16.545678      20.737693      2185.1299    
        55   0             -146.75386     -0.36902844    -0.25246453    -0.69465366    -0.15996714    -0.0039288489  -7.109832e-07  -1.2135725e-07  6.368428       16.545678      20.737693      2185.1299    
        56   0             -146.75386     -0.36903852    -0.25638954    -0.69074728    -0.15997873    -0.002019832   -4.073103e-07  -3.7150174e-07  6.368428       16.545678      20.737693      2185.1299    
        57   0             -146.75386     -0.36904117    -0.25908778    -0.6880539     -0.15998183    -0.00070591483 -8.3982144e-08  9.7885221e-08  6.368428       16.545678      20.737693      2185.1299    
        58   0             -146.75386     -0.36904186    -0.26052       -0.68662289    -0.1599827     -8.1652655e-06 -1.913014e-08  -1.6688804e-07  6.368428       16.545678      20.737693      2185.1299    
        59   0             -146.75386     -0.3690421     -0.26101706    -0.68612623    -0.15998302     0.00023389594  2.0148761e-08  1.0512707e-07  6.368428       16.545678      20.737693      2185.1299    
        60   0             -146.75386     -0.36904231    -0.26097609    -0.68616762    -0.15998321     0.00021368315  4.8433301e-08 -8.8073653e-08  6.368428       16.545678      20.737693      2185.1299    
        61   0             -146.75386     -0.36904251    -0.26073931    -0.68640484    -0.15998337     9.8049185e-05  4.4264344e-08  6.2621557e-08  6.368428       16.545678      20.737693      2185.1299    
        62   0             -146.75386     -0.36904268    -0.26047387    -0.68667068    -0.1599835     -3.1480482e-05  2.7982354e-08 -1.6130913e-08  6.368428       16.545678      20.737693      2185.1299    
        63   0             -146.75386     -0.36904278    -0.26035007    -0.68679471    -0.15998358    -9.1856832e-05  1.1278379e-08  1.9474842e-08  6.368428       16.545678      20.737693      2185.1299    
        64   0             -146.75386     -0.36904282    -0.26039049    -0.68675435    -0.15998362    -7.2121063e-05  8.8822845e-10 -9.7796838e-09  6.368428       16.545678      20.737693      2185.1299    
        65   0             -146.75386     -0.36904282    -0.26050176    -0.68664306    -0.15998363    -1.7854519e-05 -2.5120931e-09  8.9448075e-09  6.368428       16.545678      20.737693      2185.1299    
        66   0             -146.75386     -0.36904281    -0.26059256    -0.68655224    -0.15998364     2.6380939e-05 -1.3528138e-09 -7.7661374e-09  6.368428       16.545678      20.737693      2185.1299    
        67   0             -146.75386     -0.36904282    -0.26061989    -0.68652491    -0.15998365     3.9659821e-05  7.7377888e-11  4.5200464e-09  6.368428       16.545678      20.737693      2185.1299    
        68   0             -146.75386     -0.36904283    -0.26059367    -0.68655117    -0.15998366     2.6834913e-05  1.0218791e-09 -2.6881778e-09  6.368428       16.545678      20.737693      2185.1299    
        69   0             -146.75386     -0.36904285    -0.26054717    -0.68659771    -0.15998367     4.1499798e-06  1.0681023e-09  7.7897509e-10  6.368428       16.545678      20.737693      2185.1299    
        70   0             -146.75386     -0.36904286    -0.26051123    -0.68663368    -0.15998367    -1.3366043e-05  6.1501398e-10 -4.6346174e-10  6.368428       16.545678      20.737693      2185.1299    
        71   0             -146.75386     -0.36904286    -0.26050797    -0.68663694    -0.15998367    -1.4938609e-05  2.3800362e-10  4.2587992e-10  6.368428       16.545678      20.737693      2185.1299    
        72   0             -146.75386     -0.36904286    -0.26052307    -0.68662183    -0.15998367    -7.5660933e-06  5.5853009e-11 -2.8139279e-10  6.368428       16.545678      20.737693      2185.1299    
        73   0             -146.75386     -0.36904286    -0.26053568    -0.68660922    -0.15998367    -1.4194325e-06  5.7542133e-12  1.6314327e-10  6.368428       16.545678      20.737693      2185.1299    
        74   0             -146.75386     -0.36904285    -0.26054351    -0.68660138    -0.15998367     2.3943867e-06 -8.3336882e-12 -8.0102979e-11  6.368428       16.545678      20.737693      2185.1299    
        75   0             -146.75386     -0.36904285    -0.26054599    -0.6865989     -0.15998367     3.5962685e-06 -9.5560134e-12  4.6648148e-12  6.368428       16.545678      20.737693      2185.1299    
        76   0             -146.75386     -0.36904285    -0.26054309    -0.6866018     -0.15998367     2.1814391e-06 -8.2929864e-13 -2.253195e-12   6.368428       16.545678      20.737693      2185.1299    
        77   0             -146.75386     -0.36904285    -0.26054011    -0.68660478    -0.15998367     7.2856815e-07 -2.5196942e-12  4.4572616e-12  6.368428       16.545678      20.737693      2185.1299    
        78   0             -146.75386     -0.36904286    -0.2605378     -0.68660709    -0.15998367    -3.9538304e-07 -4.4110548e-12  4.0554111e-12  6.368428       16.545678      20.737693      2185.1299    
        79   0             -146.75386     -0.36904286    -0.26053705    -0.68660785    -0.15998367    -7.6012128e-07 -4.7710111e-12 -7.5384634e-12  6.368428       16.545678      20.737693      2185.1299    
        80   0             -146.75386     -0.36904286    -0.26053735    -0.68660755    -0.15998367    -6.1398855e-07 -2.5222381e-12 -2.6730314e-12  6.368428       16.545678      20.737693      2185.1299    
        81   0             -146.75386     -0.36904286    -0.26053812    -0.68660677    -0.15998367    -2.3763243e-07  1.279562e-12  -2.2677725e-12  6.368428       16.545678      20.737693      2185.1299    
        82   0             -146.75386     -0.36904286    -0.26053881    -0.68660609    -0.15998367     9.685257e-08  -4.7086865e-12 -1.9280399e-11  6.368428       16.545678      20.737693      2185.1299    
        83   0             -146.75386     -0.36904286    -0.2605389     -0.68660599    -0.15998367     1.4206533e-07  5.3421078e-14  6.8462649e-13  6.368428       16.545678      20.737693      2185.1299    
        84   0             -146.75386     -0.36904286    -0.26053878    -0.68660611    -0.15998367     8.4131062e-08 -9.6921099e-13 -6.0478702e-12  6.368428       16.545678      20.737693      2185.1299    
        85   0             -146.75386     -0.36904286    -0.26053867    -0.68660622    -0.15998367     3.0926955e-08 -1.3100883e-12  5.6845254e-12  6.368428       16.545678      20.737693      2185.1299    
        86   0             -146.75386     -0.36904286    -0.26053861    -0.68660628    -0.15998367    -3.4074889e-10  1.0922067e-11 -1.2687427e-11  6.368428       16.545678      20.737693      2185.1299    
        87   0             -146.75386     -0.36904286    -0.26053859    -0.68660631    -0.15998367    -1.18732e-08    1.8481149e-12 -7.6366604e-12  6.368428       16.545678      20.737693      2185.1299    
        88   0             -146.75386     -0.36904286    -0.26053859    -0.6866063     -0.15998367    -9.8919022e-09 -4.9834234e-12 -1.0531902e-11  6.368428       16.545678      20.737693      2185.1299    
        89   0             -146.75386     -0.36904286    -0.2605386     -0.68660629    -0.15998367    -3.9965161e-09 -2.5642118e-12  7.6462098e-12  6.368428       16.545678      20.737693      2185.1299    
Loop time of 0.013928 on 1 procs for 36 steps with 96 atoms

112.2% CPU use with 1 MPI tasks x 1 OpenMP threads

Minimization stats:
  Stopping criterion = force tolerance
  Energy initial, next-to-last, final = 
     -146.753862702403   -146.75386272409   -146.75386272409
  Force two-norm initial, final = 0.00049858711 6.8287116e-11
  Force max component initial, final = 6.77571e-05 1.3059553e-11
  Final line search alpha, max atom move = 1 1.3059553e-11
  Iterations, force evaluations = 36 72

MPI task timing breakdown:
Section |  min time  |  avg time  |  max time  |%varavg| %total
---------------------------------------------------------------
Pair    | 0.013159   | 0.013159   | 0.013159   |   0.0 | 94.48
Neigh   | 0          | 0          | 0          |   0.0 |  0.00
Comm    | 0.000266   | 0.000266   | 0.000266   |   0.0 |  1.91
Output  | 0.00034    | 0.00034    | 0.00034    |   0.0 |  2.44
Modify  | 0          | 0          | 0          |   0.0 |  0.00
Other   |            | 0.000163   |            |       |  1.17

Nlocal:             96 ave          96 max          96 min
Histogram: 1 0 0 0 0 0 0 0 0 0
Nghost:           1310 ave        1310 max        1310 min
Histogram: 1 0 0 0 0 0 0 0 0 0
Neighs:           6144 ave        6144 max        6144 min
Histogram: 1 0 0 0 0 0 0 0 0 0

Total # of neighbors = 6144
Ave neighs/atom = 64
Neighbor list builds = 0
Dangerous builds = 0
OMP_NUM_THREADS environment is not set. Defaulting to 1 thread. (src/comm.cpp:98)
  using 1 OpenMP thread(s) per MPI task
Loaded 1 plugins from F:\Lammps\LAMMPS 64-bit 2Aug2023\plugins

The 'box' command has been removed and will be ignored

Reading restart file ...
  restart file = 2 Aug 2023, LAMMPS = 2 Aug 2023
  restoring atom style atomic from restart
  triclinic box = (-0.014214012 -0.036929088 -0.015669905) to (6.354214 16.508732 20.722023) with tilt (0 0 0)
  1 by 1 by 1 MPI processor grid
  pair style eam/alloy stores no restart info
  96 atoms
  read_restart CPU = 0.000 seconds
Changing box ...
  triclinic box = (-0.014214012 -0.036929088 -0.015669905) to (6.354214 16.508732 20.722002) with tilt (0 0 0)
Neighbor list info ...
  update: every = 1 steps, delay = 0 steps, check = yes
  max neighbors/atom: 2000, page size: 100000
  master list distance cutoff = 8.5
  ghost atom cutoff = 8.5
  1 neighbor lists, perpetual/occasional/extra = 1 0 0
  (1) pair eam/alloy, perpetual
      attributes: half, newton on
      pair build: half/nsq/newton
      stencil: none
      bin: none
Setting up cg style minimization ...
  Unit style    : metal
  Current step  : 53
Per MPI rank memory allocation (min/avg/max) = 4.465 | 4.465 | 4.465 Mbytes
   Step          Temp          PotEng         Press           Pxx            Pyy            Pzz            Pxy            Pxz            Pyz             Lx             Ly             Lz           Volume    
        53   0             -146.75386      0.33979388     0.17021549     0.15042824     0.69873791    -0.0085429381   1.3051835e-05  9.8416364e-06  6.368428       16.545661      20.737672      2185.1255    
        54   0             -146.75386      0.33954207     0.16771275     0.15241996     0.6984935     -0.0066063742  -1.6113792e-06 -2.6520933e-07  6.368428       16.545661      20.737672      2185.1255    
        55   0             -146.75386      0.33949524     0.16457883     0.15546764     0.69843926    -0.0039314249  -7.1193862e-07 -6.2757849e-07  6.368428       16.545661      20.737672      2185.1255    
        56   0             -146.75386      0.33948422     0.16236043     0.15766502     0.69842722    -0.0020256531  -4.084631e-07  -9.62542e-08    6.368428       16.545661      20.737672      2185.1255    
        57   0             -146.75386      0.33948084     0.16083343     0.15918534     0.69842375    -0.00071088957 -8.4643726e-08 -6.0752494e-08  6.368428       16.545661      20.737672      2185.1255    
        58   0             -146.75386      0.33947974     0.16001803     0.15999852     0.69842267    -8.1789447e-06 -1.9113632e-08 -2.7247994e-08  6.368428       16.545661      20.737672      2185.1255    
        59   0             -146.75386      0.33947935     0.1597335      0.16028228     0.69842227     0.00023699439  2.0369859e-08  5.4165663e-12  6.368428       16.545661      20.737672      2185.1255    
        60   0             -146.75386      0.33947916     0.15975703     0.16025838     0.69842208     0.00021648771  4.8639111e-08  4.8833995e-09  6.368428       16.545661      20.737672      2185.1255    
        61   0             -146.75386      0.33947903     0.15989245     0.16012268     0.69842196     9.9458631e-05  4.4373476e-08  9.5602556e-09  6.368428       16.545661      20.737672      2185.1255    
        62   0             -146.75386      0.33947893     0.16004472     0.1599702      0.69842187    -3.2078336e-05  2.7925777e-08  7.9962407e-09  6.368428       16.545661      20.737672      2185.1255    
        63   0             -146.75386      0.33947887     0.16011594     0.15989885     0.69842181    -9.3614942e-05  1.1129584e-08  5.6273031e-09  6.368428       16.545661      20.737672      2185.1255    
        64   0             -146.75386      0.33947882     0.16009256     0.15992213     0.69842176    -7.3490001e-05  8.2275366e-10  2.5569632e-09  6.368428       16.545661      20.737672      2185.1255    
        65   0             -146.75386      0.33947879     0.16002846     0.15998617     0.69842173    -1.8205561e-05 -2.5249371e-09  3.584221e-10   6.368428       16.545661      20.737672      2185.1255    
        66   0             -146.75386      0.33947877     0.15997603     0.16003855     0.69842171     2.6999808e-05 -1.3253707e-09 -3.0907749e-10  6.368428       16.545661      20.737672      2185.1255    
        67   0             -146.75386      0.33947875     0.15996027     0.16005429     0.6984217      4.0578992e-05  8.5578195e-11 -4.1245721e-10  6.368428       16.545661      20.737672      2185.1255    
        68   0             -146.75386      0.33947875     0.15997546     0.16003909     0.6984217      2.7456654e-05  1.0205978e-09 -3.5652459e-10  6.368428       16.545661      20.737672      2185.1255    
        69   0             -146.75386      0.33947875     0.16000235     0.16001219     0.69842169     4.2418212e-06  1.068458e-09  -1.5803898e-10  6.368428       16.545661      20.737672      2185.1255    
        70   0             -146.75386      0.33947874     0.16002321     0.15999133     0.69842169    -1.3756745e-05  6.0843932e-10  2.8981967e-11  6.368428       16.545661      20.737672      2185.1255    
        71   0             -146.75386      0.33947874     0.16002507     0.15998946     0.69842169    -1.5363975e-05  2.3940068e-10  2.9231097e-11  6.368428       16.545661      20.737672      2185.1255    
        72   0             -146.75386      0.33947874     0.16001629     0.15999824     0.69842169    -7.7867203e-06  5.0587318e-11  3.4150059e-11  6.368428       16.545661      20.737672      2185.1255    
        73   0             -146.75386      0.33947874     0.16000896     0.16000557     0.69842169    -1.460151e-06   2.8682089e-12  2.2044954e-11  6.368428       16.545661      20.737672      2185.1255    
        74   0             -146.75386      0.33947874     0.1600044      0.16001014     0.69842169     2.4783175e-06 -1.5172889e-11 -2.7593095e-12  6.368428       16.545661      20.737672      2185.1255    
        75   0             -146.75386      0.33947874     0.16000296     0.16001158     0.69842169     3.7181083e-06 -1.1807354e-11  1.1548039e-11  6.368428       16.545661      20.737672      2185.1255    
        76   0             -146.75386      0.33947874     0.16000465     0.16000988     0.69842169     2.2567659e-06  7.0147104e-12  1.0839353e-11  6.368428       16.545661      20.737672      2185.1255    
        77   0             -146.75386      0.33947874     0.16000639     0.16000814     0.69842169     7.5567103e-07 -1.4461878e-12 -4.5826453e-12  6.368428       16.545661      20.737672      2185.1255    
        78   0             -146.75386      0.33947874     0.16000775     0.16000679     0.69842169    -4.1379249e-07 -1.3355296e-13  1.5033542e-11  6.368428       16.545661      20.737672      2185.1255    
        79   0             -146.75386      0.33947874     0.16000819     0.16000635     0.69842169    -7.9475065e-07  4.2380807e-12  1.516635e-11   6.368428       16.545661      20.737672      2185.1255    
        80   0             -146.75386      0.33947874     0.16000801     0.16000652     0.69842169    -6.415459e-07   6.4868582e-13  8.7642145e-13  6.368428       16.545661      20.737672      2185.1255    
        81   0             -146.75386      0.33947874     0.16000755     0.16000698     0.69842169    -2.4869533e-07 -3.1365867e-12 -5.8095738e-12  6.368428       16.545661      20.737672      2185.1255    
        82   0             -146.75386      0.33947874     0.16000715     0.16000739     0.69842169     1.0246746e-07  7.8236598e-12 -7.3644621e-12  6.368428       16.545661      20.737672      2185.1255    
        83   0             -146.75386      0.33947874     0.16000709     0.16000744     0.69842169     1.498792e-07   5.3611975e-12  6.3431596e-12  6.368428       16.545661      20.737672      2185.1255    
        84   0             -146.75386      0.33947874     0.16000716     0.16000737     0.69842169     8.88246e-08    9.7595418e-12 -2.7614957e-12  6.368428       16.545661      20.737672      2185.1255    
        85   0             -146.75386      0.33947874     0.16000723     0.1600073      0.69842169     3.2784422e-08 -4.4644848e-12  2.4054767e-11  6.368428       16.545661      20.737672      2185.1255    
        86   0             -146.75386      0.33947874     0.16000727     0.16000727     0.69842169    -4.206753e-10  -3.3439118e-12 -3.4146611e-11  6.368428       16.545661      20.737672      2185.1255    
        87   0             -146.75386      0.33947874     0.16000728     0.16000725     0.69842169    -1.2735235e-08 -5.4108029e-12  7.1962689e-12  6.368428       16.545661      20.737672      2185.1255    
        88   0             -146.75386      0.33947874     0.16000728     0.16000725     0.69842169    -1.0611063e-08 -9.660331e-12  -9.0832709e-12  6.368428       16.545661      20.737672      2185.1255    
        89   0             -146.75386      0.33947874     0.16000727     0.16000726     0.69842169    -4.3054881e-09  1.1739941e-12 -2.6065703e-11  6.368428       16.545661      20.737672      2185.1255    
Loop time of 0.013978 on 1 procs for 36 steps with 96 atoms

111.8% CPU use with 1 MPI tasks x 1 OpenMP threads

Minimization stats:
  Stopping criterion = force tolerance
  Energy initial, next-to-last, final = 
     -146.753862702411  -146.753862724082  -146.753862724082
  Force two-norm initial, final = 0.00049854803 6.7800852e-11
  Force max component initial, final = 6.7759756e-05 1.2900857e-11
  Final line search alpha, max atom move = 1 1.2900857e-11
  Iterations, force evaluations = 36 72

MPI task timing breakdown:
Section |  min time  |  avg time  |  max time  |%varavg| %total
---------------------------------------------------------------
Pair    | 0.013206   | 0.013206   | 0.013206   |   0.0 | 94.48
Neigh   | 0          | 0          | 0          |   0.0 |  0.00
Comm    | 0.00025    | 0.00025    | 0.00025    |   0.0 |  1.79
Output  | 0.000349   | 0.000349   | 0.000349   |   0.0 |  2.50
Modify  | 0          | 0          | 0          |   0.0 |  0.00
Other   |            | 0.000173   |            |       |  1.24

Nlocal:             96 ave          96 max          96 min
Histogram: 1 0 0 0 0 0 0 0 0 0
Nghost:           1310 ave        1310 max        1310 min
Histogram: 1 0 0 0 0 0 0 0 0 0
Neighs:           6144 ave        6144 max        6144 min
Histogram: 1 0 0 0 0 0 0 0 0 0

Total # of neighbors = 6144
Ave neighs/atom = 64
Neighbor list builds = 0
Dangerous builds = 0
OMP_NUM_THREADS environment is not set. Defaulting to 1 thread. (src/comm.cpp:98)
  using 1 OpenMP thread(s) per MPI task
Loaded 1 plugins from F:\Lammps\LAMMPS 64-bit 2Aug2023\plugins

The 'box' command has been removed and will be ignored

Reading restart file ...
  restart file = 2 Aug 2023, LAMMPS = 2 Aug 2023
  restoring atom style atomic from restart
  triclinic box = (-0.014214012 -0.036929088 -0.015669905) to (6.354214 16.508732 20.722023) with tilt (0 0 0)
  1 by 1 by 1 MPI processor grid
  pair style eam/alloy stores no restart info
  96 atoms
  read_restart CPU = 0.000 seconds
Changing box ...
  triclinic box = (-0.014214012 -0.036929088 -0.015669905) to (6.354214 16.508732 20.722044) with tilt (0 0 0)
Neighbor list info ...
  update: every = 1 steps, delay = 0 steps, check = yes
  max neighbors/atom: 2000, page size: 100000
  master list distance cutoff = 8.5
  ghost atom cutoff = 8.5
  1 neighbor lists, perpetual/occasional/extra = 1 0 0
  (1) pair eam/alloy, perpetual
      attributes: half, newton on
      pair build: half/nsq/newton
      stencil: none
      bin: none
Setting up cg style minimization ...
  Unit style    : metal
  Current step  : 53
Per MPI rank memory allocation (min/avg/max) = 4.465 | 4.465 | 4.465 Mbytes
   Step          Temp          PotEng         Press           Pxx            Pyy            Pzz            Pxy            Pxz            Pyz             Lx             Ly             Lz           Volume    
        53   0             -146.75386     -0.33912725    -0.14977951    -0.16956988    -0.69803236    -0.0085442828   1.3051846e-05  9.8417096e-06  6.368428       16.545661      20.737714      2185.1299    
        54   0             -146.75386     -0.33937906    -0.15228233    -0.16757808    -0.69827678    -0.0066076511  -1.6112192e-06 -2.6510908e-07  6.368428       16.545661      20.737714      2185.1299    
        55   0             -146.75386     -0.33942589    -0.15541652    -0.16453014    -0.69833101    -0.0039324712  -7.1208073e-07 -6.2769645e-07  6.368428       16.545661      20.737714      2185.1299    
        56   0             -146.75386     -0.33943691    -0.15763529    -0.1623324     -0.69834306    -0.0020263843  -4.0851704e-07 -9.6283816e-08  6.368428       16.545661      20.737714      2185.1299    
        57   0             -146.75386     -0.3394403     -0.15916265    -0.16081171    -0.69834653    -0.0007113078  -8.4685215e-08 -6.0784486e-08  6.368428       16.545661      20.737714      2185.1299    
        58   0             -146.75386     -0.3394414     -0.15997836    -0.15999822    -0.69834761    -8.3298615e-06 -1.9155059e-08 -2.7260911e-08  6.368428       16.545661      20.737714      2185.1299    
        59   0             -146.75386     -0.33944178    -0.16026308    -0.15971426    -0.69834801     0.00023700981  2.0352099e-08 -4.8727059e-12  6.368428       16.545661      20.737714      2185.1299    
        60   0             -146.75386     -0.33944197    -0.16023962    -0.15973811    -0.69834819     0.00021656136  4.8638165e-08  4.8694848e-09  6.368428       16.545661      20.737714      2185.1299    
        61   0             -146.75386     -0.33944211    -0.16010421    -0.15987378    -0.69834832     9.9543e-05     4.4380683e-08  9.5549548e-09  6.368428       16.545661      20.737714      2185.1299    
        62   0             -146.75386     -0.3394422     -0.1599519     -0.1600263     -0.6983484     -3.2027813e-05  2.7935571e-08  8.0224631e-09  6.368428       16.545661      20.737714      2185.1299    
        63   0             -146.75386     -0.33944227    -0.15988062    -0.16009772    -0.69834847    -9.3619336e-05  1.1138067e-08  5.6167362e-09  6.368428       16.545661      20.737714      2185.1299    
        64   0             -146.75386     -0.33944232    -0.15990395    -0.16007449    -0.69834851    -7.3532571e-05  8.1625373e-10  2.5615638e-09  6.368428       16.545661      20.737714      2185.1299    
        65   0             -146.75386     -0.33944235    -0.15996805    -0.16001045    -0.69834855    -1.8252266e-05 -2.5208567e-09  3.5669158e-10  6.368428       16.545661      20.737714      2185.1299    
        66   0             -146.75386     -0.33944237    -0.16002052    -0.15995803    -0.69834856     2.6985294e-05 -1.3400296e-09 -3.2671681e-10  6.368428       16.545661      20.737714      2185.1299    
        67   0             -146.75386     -0.33944238    -0.16003631    -0.15994226    -0.69834858     4.0592339e-05  8.6689691e-11 -3.9190058e-10  6.368428       16.545661      20.737714      2185.1299    
        68   0             -146.75386     -0.33944239    -0.16002114    -0.15995744    -0.69834858     2.7484452e-05  1.0131867e-09 -3.719531e-10   6.368428       16.545661      20.737714      2185.1299    
        69   0             -146.75386     -0.33944239    -0.15999424    -0.15998435    -0.69834858     4.2654084e-06  1.0651196e-09 -1.7052035e-10  6.368428       16.545661      20.737714      2185.1299    
        70   0             -146.75386     -0.33944239    -0.15997337    -0.16000523    -0.69834859    -1.3751601e-05  6.0688253e-10  9.0988836e-12  6.368428       16.545661      20.737714      2185.1299    
        71   0             -146.75386     -0.33944239    -0.15997148    -0.16000711    -0.69834859    -1.5373465e-05  2.2775186e-10  5.4545137e-11  6.368428       16.545661      20.737714      2185.1299    
        72   0             -146.75386     -0.3394424     -0.15998026    -0.15999834    -0.69834859    -7.7976761e-06  5.0738577e-11  3.7053748e-11  6.368428       16.545661      20.737714      2185.1299    
        73   0             -146.75386     -0.3394424     -0.1599876     -0.159991      -0.69834859    -1.4685223e-06  4.1592125e-12  3.2645118e-11  6.368428       16.545661      20.737714      2185.1299    
        74   0             -146.75386     -0.3394424     -0.15999217    -0.15998643    -0.69834859     2.475833e-06   7.4153544e-13  1.8990925e-11  6.368428       16.545661      20.737714      2185.1299    
        75   0             -146.75386     -0.3394424     -0.15999361    -0.15998499    -0.69834859     3.7217695e-06 -3.4329402e-12  1.3243906e-11  6.368428       16.545661      20.737714      2185.1299    
        76   0             -146.75386     -0.3394424     -0.15999192    -0.15998668    -0.69834859     2.260718e-06  -4.9961428e-12  9.0722426e-13  6.368428       16.545661      20.737714      2185.1299    
        77   0             -146.75386     -0.3394424     -0.15999018    -0.15998842    -0.69834859     7.5817704e-07  4.1922827e-12  8.9286138e-12  6.368428       16.545661      20.737714      2185.1299    
        78   0             -146.75386     -0.3394424     -0.15998882    -0.15998978    -0.69834859    -4.1334557e-07 -1.0548119e-11 -1.5976301e-11  6.368428       16.545661      20.737714      2185.1299    
        79   0             -146.75386     -0.3394424     -0.15998838    -0.15999022    -0.69834859    -7.9567059e-07 -7.5946966e-12  8.502696e-12   6.368428       16.545661      20.737714      2185.1299    
        80   0             -146.75386     -0.3394424     -0.15998855    -0.15999004    -0.69834859    -6.4295881e-07 -2.9317997e-12 -1.4150077e-11  6.368428       16.545661      20.737714      2185.1299    
        81   0             -146.75386     -0.3394424     -0.15998901    -0.15998959    -0.69834859    -2.4978194e-07  2.6596065e-12  1.5132007e-11  6.368428       16.545661      20.737714      2185.1299    
        82   0             -146.75386     -0.3394424     -0.15998942    -0.15998918    -0.69834859     1.0208787e-07 -5.6664501e-12  9.7418742e-12  6.368428       16.545661      20.737714      2185.1299    
        83   0             -146.75386     -0.3394424     -0.15998947    -0.15998913    -0.69834859     1.4988397e-07 -9.7595222e-12 -3.4556263e-12  6.368428       16.545661      20.737714      2185.1299    
        84   0             -146.75386     -0.3394424     -0.1599894     -0.1599892     -0.69834859     8.8955653e-08 -9.7938644e-14  5.6496566e-13  6.368428       16.545661      20.737714      2185.1299    
        85   0             -146.75386     -0.3394424     -0.15998934    -0.15998926    -0.69834859     3.2907546e-08 -3.6326333e-12  1.9079891e-11  6.368428       16.545661      20.737714      2185.1299    
        86   0             -146.75386     -0.3394424     -0.1599893     -0.1599893     -0.69834859    -3.5619394e-10 -6.1675907e-12 -1.0863975e-12  6.368428       16.545661      20.737714      2185.1299    
        87   0             -146.75386     -0.3394424     -0.15998928    -0.15998931    -0.69834859    -1.271051e-08  -4.3449144e-12 -1.1301827e-11  6.368428       16.545661      20.737714      2185.1299    
        88   0             -146.75386     -0.3394424     -0.15998929    -0.15998931    -0.69834859    -1.061493e-08   8.0424161e-12  1.5421958e-12  6.368428       16.545661      20.737714      2185.1299    
        89   0             -146.75386     -0.3394424     -0.15998929    -0.1599893     -0.69834859    -4.3277649e-09  9.2087764e-13  5.4494866e-12  6.368428       16.545661      20.737714      2185.1299    
Loop time of 0.01455 on 1 procs for 36 steps with 96 atoms

0.0% CPU use with 1 MPI tasks x 1 OpenMP threads

Minimization stats:
  Stopping criterion = force tolerance
  Energy initial, next-to-last, final = 
     -146.753862702412  -146.753862724083  -146.753862724081
  Force two-norm initial, final = 0.00049853162 6.7880392e-11
  Force max component initial, final = 6.7755668e-05 1.2927888e-11
  Final line search alpha, max atom move = 1 1.2927888e-11
  Iterations, force evaluations = 36 72

MPI task timing breakdown:
Section |  min time  |  avg time  |  max time  |%varavg| %total
---------------------------------------------------------------
Pair    | 0.013782   | 0.013782   | 0.013782   |   0.0 | 94.72
Neigh   | 0          | 0          | 0          |   0.0 |  0.00
Comm    | 0.000263   | 0.000263   | 0.000263   |   0.0 |  1.81
Output  | 0.000336   | 0.000336   | 0.000336   |   0.0 |  2.31
Modify  | 0          | 0          | 0          |   0.0 |  0.00
Other   |            | 0.000169   |            |       |  1.16

Nlocal:             96 ave          96 max          96 min
Histogram: 1 0 0 0 0 0 0 0 0 0
Nghost:           1310 ave        1310 max        1310 min
Histogram: 1 0 0 0 0 0 0 0 0 0
Neighs:           6144 ave        6144 max        6144 min
Histogram: 1 0 0 0 0 0 0 0 0 0

Total # of neighbors = 6144
Ave neighs/atom = 64
Neighbor list builds = 0
Dangerous builds = 0
OMP_NUM_THREADS environment is not set. Defaulting to 1 thread. (src/comm.cpp:98)
  using 1 OpenMP thread(s) per MPI task
Loaded 1 plugins from F:\Lammps\LAMMPS 64-bit 2Aug2023\plugins

The 'box' command has been removed and will be ignored

Reading restart file ...
  restart file = 2 Aug 2023, LAMMPS = 2 Aug 2023
  restoring atom style atomic from restart
  triclinic box = (-0.014214012 -0.036929088 -0.015669905) to (6.354214 16.508732 20.722023) with tilt (0 0 0)
  1 by 1 by 1 MPI processor grid
  pair style eam/alloy stores no restart info
  96 atoms
  read_restart CPU = 0.000 seconds
Changing box ...
  triclinic box = (-0.014214012 -0.036929088 -0.015669905) to (6.354214 16.508732 20.722023) with tilt (0 0 -2.0737693e-05)
Neighbor list info ...
  update: every = 1 steps, delay = 0 steps, check = yes
  max neighbors/atom: 2000, page size: 100000
  master list distance cutoff = 8.5
  ghost atom cutoff = 8.5
  1 neighbor lists, perpetual/occasional/extra = 1 0 0
  (1) pair eam/alloy, perpetual
      attributes: half, newton on
      pair build: half/nsq/newton
      stencil: none
      bin: none
Setting up cg style minimization ...
  Unit style    : metal
  Current step  : 53
Per MPI rank memory allocation (min/avg/max) = 4.465 | 4.465 | 4.465 Mbytes
   Step          Temp          PotEng         Press           Pxx            Pyy            Pzz            Pxy            Pxz            Pyz             Lx             Ly             Lz           Volume    
        53   0             -146.75386      0.00032387073  0.010215518   -0.009568614    0.00032470862 -0.0085436105   1.3733879e-05  0.12760598     6.368428       16.545661      20.737693      2185.1277    
        54   0             -146.75386      7.205723e-05   0.0077104927  -0.0075746142   8.0293243e-05 -0.0066070126  -1.0832857e-06  0.1275957      6.368428       16.545661      20.737693      2185.1277    
        55   0             -146.75386      2.5232201e-05  0.0045769348  -0.0045272964   2.605821e-05  -0.0039319499  -3.976029e-07   0.12759509     6.368428       16.545661      20.737693      2185.1277    
[...]
        59   0             -146.75386      1.091195e-05  -0.0002658892   0.00029270668  5.9183706e-06  0.21308226     1.2587924e-07  8.7872555e-11  6.368428       16.545661      20.737693      2185.1277    
        60   0             -146.75386      1.0723376e-05 -0.00024230108  0.0002687342   5.7370022e-06  0.21308004    -4.3884328e-08  4.9166539e-09  6.368428       16.545661      20.737693      2185.1277    
        61   0             -146.75386      1.0596596e-05 -0.00010632462  0.0001324995   5.6149113e-06  0.21306723     9.7319961e-08  9.5596876e-09  6.368428       16.545661      20.737693      2185.1277    
        62   0             -146.75386      1.0502424e-05  4.6796095e-05 -2.0819504e-05  5.5306789e-06  0.21305278     3.7454789e-09  7.999784e-09   6.368428       16.545661      20.737693      2185.1277    
        63   0             -146.75386      1.0437237e-05  0.00011853609 -9.2693875e-05  5.4694946e-06  0.21304597     2.491603e-08   5.604502e-09   6.368428       16.545661      20.737693      2185.1277    
        64   0             -146.75386      1.0389244e-05  9.5035395e-05 -6.9288963e-05  5.4212996e-06  0.21304814    -1.1542909e-08  2.6037081e-09  6.368428       16.545661      20.737693      2185.1277    
        65   0             -146.75386      1.0356454e-05  3.0516488e-05 -4.8367068e-06  5.3895806e-06  0.21305418     6.0306225e-09  3.2747151e-10  6.368428       16.545661      20.737693      2185.1277    
        66   0             -146.75386      1.0334131e-05 -2.233174e-05   4.7964963e-05  5.3691704e-06  0.21305915    -8.7710121e-09 -3.3917023e-10  6.368428       16.545661      20.737693      2185.1277    
        67   0             -146.75386      1.032154e-05  -3.8244091e-05  6.3850854e-05  5.3578574e-06  0.21306066     4.9926906e-09 -3.9249115e-10  6.368428       16.545661      20.737693      2185.1277    
        68   0             -146.75386      1.0315952e-05 -2.2947139e-05  4.85426e-05    5.3523956e-06  0.21305923    -1.2573007e-09 -3.678725e-10   6.368428       16.545661      20.737693      2185.1277    
        69   0             -146.75386      1.0313497e-05  4.1666759e-06  2.1424022e-05  5.3497925e-06  0.21305668     2.0059304e-09 -1.8046494e-10  6.368428       16.545661      20.737693      2185.1277    
        70   0             -146.75386      1.0311901e-05  2.5237524e-05  3.5009477e-07  5.3480845e-06  0.21305469     1.1674298e-10  2.441152e-11   6.368428       16.545661      20.737693      2185.1277    
        71   0             -146.75386      1.0310687e-05  2.7129282e-05 -1.5441753e-06  5.3469529e-06  0.2130545      6.1879096e-10  5.7538961e-11  6.368428       16.545661      20.737693      2185.1277    
        72   0             -146.75386      1.0309851e-05  1.826777e-05   7.3154528e-06  5.3463313e-06  0.21305533    -2.6425017e-10  3.1344978e-11  6.368428       16.545661      20.737693      2185.1277    
        73   0             -146.75386      1.0309432e-05  1.0859688e-05  1.4722597e-05  5.3460099e-06  0.21305603     1.5588541e-10  1.9789648e-11  6.368428       16.545661      20.737693      2185.1277    
        74   0             -146.75386      1.0309163e-05  6.238041e-06   1.9343624e-05  5.3458238e-06  0.21305647    -1.1414824e-10  1.8044458e-11  6.368428       16.545661      20.737693      2185.1277    
        75   0             -146.75386      1.030907e-05   4.7792875e-06  2.0802202e-05  5.3457209e-06  0.21305661     1.4830724e-11 -7.6546937e-12  6.368428       16.545661      20.737693      2185.1277    
        76   0             -146.75386      1.0309109e-05  6.4914244e-06  1.9090168e-05  5.3457353e-06  0.21305645    -1.6271822e-11  8.8891531e-12  6.368428       16.545661      20.737693      2185.1277    
        77   0             -146.75386      1.0309152e-05  8.2524255e-06  1.7329255e-05  5.3457751e-06  0.21305628    -1.3304406e-12 -9.021742e-12   6.368428       16.545661      20.737693      2185.1277    
        78   0             -146.75386      1.0309187e-05  9.6288059e-06  1.5952982e-05  5.3457726e-06  0.21305615    -1.2112606e-11  1.4590915e-11  6.368428       16.545661      20.737693      2185.1277    
        79   0             -146.75386      1.0309207e-05  1.0078422e-05  1.5503409e-05  5.3457906e-06  0.21305611    -3.3248295e-12  3.2876454e-13  6.368428       16.545661      20.737693      2185.1277    
        80   0             -146.75386      1.0309183e-05  9.8983114e-06  1.5683451e-05  5.3457871e-06  0.21305613     6.0047896e-12 -3.9682481e-12  6.368428       16.545661      20.737693      2185.1277    
        81   0             -146.75386      1.0309186e-05  9.4357992e-06  1.6145963e-05  5.3457969e-06  0.21305617     5.4311484e-12  1.6085663e-12  6.368428       16.545661      20.737693      2185.1277    
        82   0             -146.75386      1.030914e-05   9.0210931e-06  1.6560634e-05  5.3456936e-06  0.21305621     7.6048797e-12 -6.2503718e-12  6.368428       16.545661      20.737693      2185.1277    
        83   0             -146.75386      1.0309182e-05  8.9648567e-06  1.6616899e-05  5.3457899e-06  0.21305621     8.0309768e-12  1.5015392e-11  6.368428       16.545661      20.737693      2185.1277    
        84   0             -146.75386      1.0309147e-05  9.0368372e-06  1.6544897e-05  5.3457082e-06  0.21305621    -9.2851015e-13  1.7634021e-11  6.368428       16.545661      20.737693      2185.1277    
        85   0             -146.75386      1.0309168e-05  9.1030424e-06  1.6478723e-05  5.3457392e-06  0.2130562      4.2775063e-12 -4.459015e-12   6.368428       16.545661      20.737693      2185.1277    
        86   0             -146.75386      1.0309152e-05  9.1424054e-06  1.6439329e-05  5.3457208e-06  0.2130562      1.1816246e-12  8.9035021e-12  6.368428       16.545661      20.737693      2185.1277    
        87   0             -146.75386      1.0309164e-05  9.1570631e-06  1.6424664e-05  5.3457637e-06  0.2130562      2.178819e-12  -1.0040579e-11  6.368428       16.545661      20.737693      2185.1277    
        88   0             -146.75386      1.0309178e-05  9.1545762e-06  1.6427179e-05  5.3457793e-06  0.2130562     -4.1515851e-12  7.9025117e-12  6.368428       16.545661      20.737693      2185.1277    
        89   0             -146.75386      1.0309171e-05  9.1470769e-06  1.6434681e-05  5.3457551e-06  0.2130562      7.5934323e-13 -2.93851e-12    6.368428       16.545661      20.737693      2185.1277    
Loop time of 0.013989 on 1 procs for 36 steps with 96 atoms

111.7% CPU use with 1 MPI tasks x 1 OpenMP threads

Minimization stats:
  Stopping criterion = force tolerance
  Energy initial, next-to-last, final = 
      -146.75386270275  -146.753862724413  -146.753862724413
  Force two-norm initial, final = 0.00049852049 6.7787207e-11
  Force max component initial, final = 6.7757741e-05 1.2914399e-11
  Final line search alpha, max atom move = 1 1.2914399e-11
  Iterations, force evaluations = 36 72

MPI task timing breakdown:
Section |  min time  |  avg time  |  max time  |%varavg| %total
---------------------------------------------------------------
Pair    | 0.013177   | 0.013177   | 0.013177   |   0.0 | 94.20
Neigh   | 0          | 0          | 0          |   0.0 |  0.00
Comm    | 0.000253   | 0.000253   | 0.000253   |   0.0 |  1.81
Output  | 0.000387   | 0.000387   | 0.000387   |   0.0 |  2.77
Modify  | 0          | 0          | 0          |   0.0 |  0.00
Other   |            | 0.000172   |            |       |  1.23

Nlocal:             96 ave          96 max          96 min
Histogram: 1 0 0 0 0 0 0 0 0 0
Nghost:           1310 ave        1310 max        1310 min
Histogram: 1 0 0 0 0 0 0 0 0 0
Neighs:           6144 ave        6144 max        6144 min
Histogram: 1 0 0 0 0 0 0 0 0 0

Total # of neighbors = 6144
Ave neighs/atom = 64
Neighbor list builds = 0
Dangerous builds = 0
OMP_NUM_THREADS environment is not set. Defaulting to 1 thread. (src/comm.cpp:98)
  using 1 OpenMP thread(s) per MPI task
Loaded 1 plugins from F:\Lammps\LAMMPS 64-bit 2Aug2023\plugins

The 'box' command has been removed and will be ignored

Reading restart file ...
  restart file = 2 Aug 2023, LAMMPS = 2 Aug 2023
  restoring atom style atomic from restart
  triclinic box = (-0.014214012 -0.036929088 -0.015669905) to (6.354214 16.508732 20.722023) with tilt (0 0 0)
  1 by 1 by 1 MPI processor grid
  pair style eam/alloy stores no restart info
  96 atoms
  read_restart CPU = 0.000 seconds
Changing box ...
  triclinic box = (-0.014214012 -0.036929088 -0.015669905) to (6.354214 16.508732 20.722023) with tilt (1.6545661e-05 0 0)
Neighbor list info ...
  update: every = 1 steps, delay = 0 steps, check = yes
  max neighbors/atom: 2000, page size: 100000
  master list distance cutoff = 8.5
  ghost atom cutoff = 8.5
  1 neighbor lists, perpetual/occasional/extra = 1 0 0
  (1) pair eam/alloy, perpetual
      attributes: half, newton on
      pair build: half/nsq/newton
      stencil: none
      bin: none
Setting up cg style minimization ...
  Unit style    : metal
  Current step  : 53
Per MPI rank memory allocation (min/avg/max) = 4.465 | 4.465 | 4.465 Mbytes
   Step          Temp          PotEng         Press           Pxx            Pyy            Pzz            Pxy            Pxz            Pyz             Lx             Ly             Lz           Volume    
        53   0             -146.75386      0.00032187464  0.010210368   -0.0095647472   0.00032000279 -0.22920468     1.0998364e-05  9.841658e-06   6.368428       16.545661      20.737693      2185.1277    
        54   0             -146.75386      7.0671961e-05  0.0077085027  -0.007572264    7.5777145e-05 -0.22554935    -9.2690067e-07 -2.6632316e-07  6.368428       16.545661      20.737693      2185.1277    
        55   0             -146.75386      2.4877931e-05  0.0045731197  -0.004520439    2.1953108e-05 -0.22048687    -1.2168624e-06 -6.2736106e-07  6.368428       16.545661      20.737693      2185.1277    
        56   0             -146.75386      1.4734136e-05  0.0023533639  -0.0023194914   1.0329884e-05 -0.21687695    -1.310144e-07  -9.5067395e-08  6.368428       16.545661      20.737693      2185.1277    
        57   0             -146.75386      1.2024966e-05  0.00082890351 -0.00080003296  7.2043513e-06 -0.21439196    -2.4208236e-07 -6.0298589e-08  6.368428       16.545661      20.737693      2185.1277    
        58   0             -146.75386      1.1302977e-05  1.9690307e-05  7.8995107e-06  6.3191148e-06 -0.2130717      1.204686e-07  -2.7230635e-08  6.368428       16.545661      20.737693      2185.1277    
        59   0             -146.75386      1.1049691e-05 -0.00026114724  0.00028830449  5.9918262e-06 -0.21261348    -8.511428e-08  -1.4572918e-10  6.368428       16.545661      20.737693      2185.1277    
        60   0             -146.75386      1.0848638e-05 -0.00023786557  0.00026460794  5.8035497e-06 -0.21265178     1.412266e-07   4.7974276e-09  6.368428       16.545661      20.737693      2185.1277    
        61   0             -146.75386      1.0653619e-05 -0.00010399564  0.00013031142  5.6450714e-06 -0.21287068    -8.7900606e-09  9.513988e-09   6.368428       16.545661      20.737693      2185.1277    
        62   0             -146.75386      1.0484192e-05  4.6001331e-05 -2.0069769e-05  5.5210138e-06 -0.21311593     5.210217e-08   8.0088274e-09  6.368428       16.545661      20.737693      2185.1277    
        63   0             -146.75386      1.0384171e-05  0.0001158795  -9.0168487e-05  5.4414973e-06 -0.21323025    -2.5599686e-09  5.6619735e-09  6.368428       16.545661      20.737693      2185.1277    
        64   0             -146.75386      1.034747e-05   9.2878564e-05 -6.7235401e-05  5.3992459e-06 -0.21319282     1.3255477e-08  2.5919972e-09  6.368428       16.545661      20.737693      2185.1277    
        65   0             -146.75386      1.0346054e-05  2.9886212e-05 -4.2321463e-06  5.3840978e-06 -0.21309001    -1.1104833e-08  3.417136e-10   6.368428       16.545661      20.737693      2185.1277    
        66   0             -146.75386      1.0349536e-05 -2.1446816e-05  4.7118073e-05  5.377352e-06  -0.21300619     6.0812772e-09 -3.3478547e-10  6.368428       16.545661      20.737693      2185.1277    
        67   0             -146.75386      1.0344702e-05 -3.6848219e-05  6.2512199e-05  5.3701273e-06 -0.21298104    -4.8330416e-09 -3.9907269e-10  6.368428       16.545661      20.737693      2185.1277    
        68   0             -146.75386      1.0331545e-05 -2.1962705e-05  4.7596703e-05  5.3606365e-06 -0.21300536     3.3196286e-09 -3.8713288e-10  6.368428       16.545661      20.737693      2185.1277    
        69   0             -146.75386      1.031593e-05   4.3533074e-06  2.1243388e-05  5.3510939e-06 -0.21304835     1.2438093e-10 -1.8844979e-10  6.368428       16.545661      20.737693      2185.1277    
        70   0             -146.75386      1.0304136e-05  2.4669335e-05  8.9907843e-07  5.3439957e-06 -0.21308155     1.0868148e-09  2.7946566e-11  6.368428       16.545661      20.737693      2185.1277    
        71   0             -146.75386      1.0301983e-05  2.6479796e-05 -9.1619578e-07  5.3423478e-06 -0.21308452    -1.3106493e-10  6.1249722e-11  6.368428       16.545661      20.737693      2185.1277    
        72   0             -146.75386      1.0305436e-05  1.7916288e-05  7.6560744e-06  5.343947e-06  -0.21307054     3.7101485e-10  4.1836547e-11  6.368428       16.545661      20.737693      2185.1277    
        73   0             -146.75386      1.0308598e-05  1.0782931e-05  1.4797281e-05  5.345583e-06  -0.21305888    -1.5931326e-10  9.9757902e-12  6.368428       16.545661      20.737693      2185.1277    
        74   0             -146.75386      1.0310566e-05  6.3585367e-06  1.9226612e-05  5.3465484e-06 -0.21305165     8.8032937e-11  1.5922389e-11  6.368428       16.545661      20.737693      2185.1277    
        75   0             -146.75386      1.0311194e-05  4.9677027e-06  2.0619014e-05  5.3468664e-06 -0.21304938    -4.3792609e-11 -1.5150972e-11  6.368428       16.545661      20.737693      2185.1277    
        76   0             -146.75386      1.0310368e-05  6.611391e-06   1.8973336e-05  5.3463776e-06 -0.21305206    -1.6140813e-12  4.5163215e-12  6.368428       16.545661      20.737693      2185.1277    
        77   0             -146.75386      1.0309552e-05  8.2974937e-06  1.7285222e-05  5.3459407e-06 -0.21305482    -1.7299543e-11  3.7701447e-12  6.368428       16.545661      20.737693      2185.1277    
        78   0             -146.75386      1.0308955e-05  9.6021598e-06  1.5979061e-05  5.3456444e-06 -0.21305695     4.5662348e-13 -7.1629828e-12  6.368428       16.545661      20.737693      2185.1277    
        79   0             -146.75386      1.0308745e-05  1.0025212e-05  1.5555478e-05  5.3455454e-06 -0.21305764    -4.656542e-12  -6.3143758e-12  6.368428       16.545661      20.737693      2185.1277    
        80   0             -146.75386      1.0308838e-05  9.8548475e-06  1.5726065e-05  5.3456003e-06 -0.21305736     9.4504526e-13 -1.3931816e-11  6.368428       16.545661      20.737693      2185.1277    
        81   0             -146.75386      1.0309031e-05  9.4175515e-06  1.6163871e-05  5.3456693e-06 -0.21305665    -7.580713e-12   2.1858415e-11  6.368428       16.545661      20.737693      2185.1277    
        82   0             -146.75386      1.0309225e-05  9.0290213e-06  1.6552857e-05  5.3457962e-06 -0.21305601     1.3088177e-12 -1.9564655e-11  6.368428       16.545661      20.737693      2185.1277    
        83   0             -146.75386      1.0309258e-05  8.9767048e-06  1.6605267e-05  5.3458022e-06 -0.21305593     8.9798379e-13 -4.1794483e-12  6.368428       16.545661      20.737693      2185.1277    
        84   0             -146.75386      1.0309225e-05  9.0441492e-06  1.6537721e-05  5.3458049e-06 -0.21305604     4.8918494e-12 -8.7912541e-12  6.368428       16.545661      20.737693      2185.1277    
        85   0             -146.75386      1.0309182e-05  9.1060161e-06  1.6475765e-05  5.3457647e-06 -0.21305614     1.1065806e-13 -3.3125474e-12  6.368428       16.545661      20.737693      2185.1277    
        86   0             -146.75386      1.0309173e-05  9.142407e-06   1.6439372e-05  5.3457396e-06 -0.2130562      7.5934323e-13  2.7294492e-11  6.368428       16.545661      20.737693      2185.1277    
        87   0             -146.75386      1.0309163e-05  9.1557582e-06  1.6425966e-05  5.3457651e-06 -0.21305622    -1.0090234e-11 -7.1570405e-12  6.368428       16.545661      20.737693      2185.1277    
        88   0             -146.75386      1.0309183e-05  9.1534877e-06  1.6428287e-05  5.3457748e-06 -0.21305622    -6.9829051e-13 -8.0381215e-12  6.368428       16.545661      20.737693      2185.1277    
        89   0             -146.75386      1.0309166e-05  9.1466214e-06  1.6435134e-05  5.3457424e-06 -0.21305621     1.2719317e-15 -8.9516268e-12  6.368428       16.545661      20.737693      2185.1277    
Loop time of 0.014011 on 1 procs for 36 steps with 96 atoms

111.5% CPU use with 1 MPI tasks x 1 OpenMP threads

Minimization stats:
  Stopping criterion = force tolerance
  Energy initial, next-to-last, final = 
     -146.753862702727  -146.753862724414  -146.753862724414
  Force two-norm initial, final = 0.00049858988 6.8194181e-11
  Force max component initial, final = 6.7757684e-05 1.2992885e-11
  Final line search alpha, max atom move = 1 1.2992885e-11
  Iterations, force evaluations = 36 72

MPI task timing breakdown:
Section |  min time  |  avg time  |  max time  |%varavg| %total
---------------------------------------------------------------
Pair    | 0.013225   | 0.013225   | 0.013225   |   0.0 | 94.39
Neigh   | 0          | 0          | 0          |   0.0 |  0.00
Comm    | 0.000293   | 0.000293   | 0.000293   |   0.0 |  2.09
Output  | 0.000332   | 0.000332   | 0.000332   |   0.0 |  2.37
Modify  | 0          | 0          | 0          |   0.0 |  0.00
Other   |            | 0.000161   |            |       |  1.15

Nlocal:             96 ave          96 max          96 min
Histogram: 1 0 0 0 0 0 0 0 0 0
Nghost:           1310 ave        1310 max        1310 min
Histogram: 1 0 0 0 0 0 0 0 0 0
Neighs:           6144 ave        6144 max        6144 min
Histogram: 1 0 0 0 0 0 0 0 0 0

Total # of neighbors = 6144
Ave neighs/atom = 64
Neighbor list builds = 0
Dangerous builds = 0
=========================================
Components of the Elastic Constant Tensor
=========================================
Elastic Constant C11all = 68.6663297416189 GPa
Elastic Constant C22all = 68.6663294917028 GPa
Elastic Constant C33all = 69.8385139292596 GPa
Elastic Constant C12all = 26.0550896170296 GPa
Elastic Constant C13all = 15.9998282757279 GPa
Elastic Constant C23all = 15.9998282653923 GPa
Elastic Constant C44all = 12.7595352881744 GPa
Elastic Constant C55all = 12.7595352864076 GPa
Elastic Constant C66all = 21.3056200989408 GPa
Elastic Constant C14all = -1.2305156700753e-10 GPa
Elastic Constant C15all = -1.64397579809035e-11 GPa
Elastic Constant C16all = 2.38139743954628e-08 GPa
Elastic Constant C24all = -2.52915822014433e-10 GPa
Elastic Constant C25all = 1.50384721679083e-10 GPa
Elastic Constant C26all = -2.32582495414714e-08 GPa
Elastic Constant C34all = -1.24705676715968e-09 GPa
Elastic Constant C35all = -1.06569078636925e-09 GPa
Elastic Constant C36all = 8.74621902958363e-10 GPa
Elastic Constant C45all = 6.18142414256607e-10 GPa
Elastic Constant C46all = 2.31699750364692e-10 GPa
Elastic Constant C56all = -3.26123290017299e-10 GPa
=========================================
Average properties for a cubic crystal
=========================================
Bulk Modulus = 35.9200739420979 GPa
Shear Modulus 1 = 15.6082302245076 GPa
Shear Modulus 2 = 24.8527378340719 GPa
Poisson Ratio = 0.218887906230408
Total wall time: 0:00:00
