LAMMPS (2 Aug 2023 - Update 3)
OMP_NUM_THREADS environment is not set. Defaulting to 1 thread. (src/comm.cpp:98)
  using 1 OpenMP thread(s) per MPI task
Loaded 1 plugins from F:\Lammps\LAMMPS 64-bit 2Aug2023\plugins
Lattice spacing in x,y,z = 5.43 5.43 5.43
Created triclinic box = (0 0 0) to (10.86 16.29 21.72) with tilt (0 0 0)
  1 by 1 by 1 MPI processor grid
Created 192 atoms
  using lattice units in triclinic box = (0 0 0) to (10.86 16.29 21.72) with tilt (0 0 0)
  create_atoms CPU = 0.000 seconds
Reading sw potential file Si.sw with DATE: 2007-06-11
Neighbor list info ...
  update: every = 1 steps, delay = 0 steps, check = yes
  max neighbors/atom: 2000, page size: 100000
  master list distance cutoff = 4.77118
  ghost atom cutoff = 4.77118
  1 neighbor lists, perpetual/occasional/extra = 1 0 0
  (1) pair sw, perpetual
      attributes: full, newton on
      pair build: full/nsq
      stencil: none
      bin: none
Setting up cg style minimization ...
  Unit style    : metal
  Current step  : 0
WARNING: Energy due to 3 extra global DOFs will be included in minimizer energies
 (src/min.cpp:228)
Per MPI rank memory allocation (min/avg/max) = 4.178 | 4.178 | 4.178 Mbytes
   Step          Temp          PotEng         Press           Pxx            Pyy            Pzz            Pxy            Pxz            Pyz             Lx             Ly             Lz           Volume    
         0   0             -832.62686      532.56802      532.56802      532.56802      532.56802      3.1294353e-11 -1.548297e-11   1.2101839e-11  10.86          16.29          21.72          3842.4722    
         1   0             -832.62714      227.98084      227.98084      227.98084      227.98084      2.848545e-10  -9.9313905e-11  4.6576309e-11  10.861086      16.291629      21.722172      3843.625     
         2   0             -832.6272      -0.016514738   -0.016514738   -0.016514738   -0.016514738   -5.1388914e-11  1.0100446e-10 -4.7572422e-11  10.8619        16.292849      21.723799      3844.4889    
         3   0             -832.6272      -1.8901337e-06 -1.8901508e-06 -1.8900988e-06 -1.8901515e-06  1.4037208e-10  1.0217404e-10 -1.8222611e-10  10.8619        16.292849      21.723799      3844.4888    
         4   0             -832.6272      -1.9266792e-10 -1.8857493e-10 -1.9751988e-10 -1.9190896e-10  1.5105099e-10  5.1270785e-11 -2.931801e-10   10.8619        16.292849      21.723799      3844.4888    
Loop time of 0.001582 on 1 procs for 4 steps with 192 atoms

0.0% CPU use with 1 MPI tasks x 1 OpenMP threads

Minimization stats:
  Stopping criterion = force tolerance
  Energy initial, next-to-last, final = 
     -832.626864929171  -832.627199984116  -832.627199984116
  Force two-norm initial, final = 2.2122596 1.0601942e-12
  Force max component initial, final = 1.2772487 4.7387425e-13
  Final line search alpha, max atom move = 1 4.7387425e-13
  Iterations, force evaluations = 4 7

MPI task timing breakdown:
Section |  min time  |  avg time  |  max time  |%varavg| %total
---------------------------------------------------------------
Pair    | 0.001267   | 0.001267   | 0.001267   |   0.0 | 80.09
Neigh   | 0          | 0          | 0          |   0.0 |  0.00
Comm    | 1.4e-05    | 1.4e-05    | 1.4e-05    |   0.0 |  0.88
Output  | 3.2e-05    | 3.2e-05    | 3.2e-05    |   0.0 |  2.02
Modify  | 0          | 0          | 0          |   0.0 |  0.00
Other   |            | 0.000269   |            |       | 17.00

Nlocal:            192 ave         192 max         192 min
Histogram: 1 0 0 0 0 0 0 0 0 0
Nghost:            634 ave         634 max         634 min
Histogram: 1 0 0 0 0 0 0 0 0 0
Neighs:              0 ave           0 max           0 min
Histogram: 1 0 0 0 0 0 0 0 0 0
FullNghs:         5376 ave        5376 max        5376 min
Histogram: 1 0 0 0 0 0 0 0 0 0

Total # of neighbors = 5376
Ave neighs/atom = 28
Neighbor list builds = 0
Dangerous builds = 0
Displacing atoms ...
System init for write_restart ...
OMP_NUM_THREADS environment is not set. Defaulting to 1 thread. (src/comm.cpp:98)
  using 1 OpenMP thread(s) per MPI task
Loaded 1 plugins from F:\Lammps\LAMMPS 64-bit 2Aug2023\plugins

The 'box' command has been removed and will be ignored

Reading restart file ...
  restart file = 2 Aug 2023, LAMMPS = 2 Aug 2023
  restoring atom style atomic from restart
  triclinic box = (-0.00094977841 -0.0014246676 -0.0018995568) to (10.86095 16.291425 21.7219) with tilt (0 0 0)
  1 by 1 by 1 MPI processor grid
  pair style sw stores no restart info
  192 atoms
  read_restart CPU = 0.000 seconds
Reading sw potential file Si.sw with DATE: 2007-06-11
Changing box ...
  triclinic box = (-0.00094977841 -0.0014246676 -0.0018995568) to (10.860939 16.291425 21.7219) with tilt (0 0 0)
  triclinic box = (-0.00094977841 -0.0014246676 -0.0018995568) to (10.860939 16.291425 21.7219) with tilt (0 0 0)
  triclinic box = (-0.00094977841 -0.0014246676 -0.0018995568) to (10.860939 16.291425 21.7219) with tilt (0 0 0)
Neighbor list info ...
  update: every = 1 steps, delay = 0 steps, check = yes
  max neighbors/atom: 2000, page size: 100000
  master list distance cutoff = 4.77118
  ghost atom cutoff = 4.77118
  1 neighbor lists, perpetual/occasional/extra = 1 0 0
  (1) pair sw, perpetual
      attributes: full, newton on
      pair build: full/nsq
      stencil: none
      bin: none
Setting up cg style minimization ...
  Unit style    : metal
  Current step  : 4
Per MPI rank memory allocation (min/avg/max) = 4.178 | 4.178 | 4.178 Mbytes
   Step          Temp          PotEng         Press           Pxx            Pyy            Pzz            Pxy            Pxz            Pyz             Lx             Ly             Lz           Volume    
         4   0             -832.6272       1.0142933      1.5143087      0.76428295     0.76428827     0.66242267    -0.32835218     0.76424316     10.861889      16.292849      21.723799      3844.485     
         5   0             -832.6272       1.014232       1.5142483      0.76422389     0.7642239     -0.16309109     0.080834946   -0.18814794     10.861889      16.292849      21.723799      3844.485     
         6   0             -832.6272       1.0142303      1.5142463      0.76422217     0.76422228     0.13989837    -0.069338912    0.16138883     10.861889      16.292849      21.723799      3844.485     
         7   0             -832.6272       1.0142305      1.5142464      0.76422248     0.76422263    -0.10764972     0.053353829   -0.12418437     10.861889      16.292849      21.723799      3844.485     
         8   0             -832.6272       1.0142306      1.5142464      0.76422268     0.76422267     0.067867923   -0.033636454    0.078291259    10.861889      16.292849      21.723799      3844.485     
         9   0             -832.6272       1.0142306      1.5142465      0.76422268     0.76422267    -0.048564001    0.024068814   -0.056022136    10.861889      16.292849      21.723799      3844.485     
        10   0             -832.6272       1.0142306      1.5142465      0.76422269     0.76422269     0.032310681   -0.016013331    0.037272517    10.861889      16.292849      21.723799      3844.485     
        11   0             -832.6272       1.0142306      1.5142465      0.76422269     0.76422269    -0.022455147    0.011128758   -0.025903386    10.861889      16.292849      21.723799      3844.485     
        12   0             -832.6272       1.0142306      1.5142465      0.7642227      0.7642227      0.012669779   -0.0062790575   0.014615327    10.861889      16.292849      21.723799      3844.485     
        13   0             -832.6272       1.0142306      1.5142465      0.76422271     0.7642227     -0.0072914044   0.0036135048  -0.0084110372   10.861889      16.292849      21.723799      3844.485     
        14   0             -832.6272       1.0142306      1.5142465      0.76422271     0.7642227      0.0040090861  -0.0019867724   0.0046246937   10.861889      16.292849      21.723799      3844.485     
        15   0             -832.6272       1.0142306      1.5142465      0.76422271     0.76422271    -0.0021929305   0.0010866754  -0.0025296551   10.861889      16.292849      21.723799      3844.485     
        16   0             -832.6272       1.0142306      1.5142465      0.76422271     0.76422271     0.0015515879  -0.00076879314  0.0017898353   10.861889      16.292849      21.723799      3844.485     
        17   0             -832.6272       1.0142306      1.5142465      0.76422271     0.76422271    -0.00091495888  0.00045328204 -0.0010554517   10.861889      16.292849      21.723799      3844.485     
        18   0             -832.6272       1.0142306      1.5142465      0.76422271     0.76422271     0.00053435891 -0.00026463038  0.00061641443  10.861889      16.292849      21.723799      3844.485     
        19   0             -832.6272       1.0142306      1.5142465      0.76422271     0.76422271    -0.0002594368   0.00012839715 -0.00029927864  10.861889      16.292849      21.723799      3844.485     
        20   0             -832.6272       1.0142306      1.5142465      0.76422271     0.76422271     0.00011667527 -5.7633634e-05  0.00013459855  10.861889      16.292849      21.723799      3844.485     
        21   0             -832.6272       1.0142306      1.5142465      0.76422271     0.76422271    -5.8010821e-05  2.8512605e-05 -6.6928775e-05  10.861889      16.292849      21.723799      3844.485     
        22   0             -832.6272       1.0142306      1.5142465      0.76422271     0.76422271     2.9130812e-05 -1.4189542e-05  3.3615507e-05  10.861889      16.292849      21.723799      3844.485     
        23   0             -832.6272       1.0142306      1.5142465      0.76422271     0.76422271    -1.2004581e-05  5.6635146e-06 -1.3861671e-05  10.861889      16.292849      21.723799      3844.485     
        24   0             -832.6272       1.0142306      1.5142465      0.76422271     0.76422271     5.9642237e-06 -2.4822288e-06  6.9034091e-06  10.861889      16.292849      21.723799      3844.485     
        25   0             -832.6272       1.0142306      1.5142465      0.76422271     0.76422271     5.7903762e-08 -4.434755e-07   4.6247485e-08  10.861889      16.292849      21.723799      3844.485     
        26   0             -832.6272       1.0142306      1.5142465      0.76422271     0.76422271    -5.9582972e-06  3.7187868e-06 -6.8350545e-06  10.861889      16.292849      21.723799      3844.485     
        27   0             -832.6272       1.0142306      1.5142465      0.76422271     0.76422271     8.0299995e-06 -4.7361793e-06  9.2252215e-06  10.861889      16.292849      21.723799      3844.485     
        28   0             -832.6272       1.0142306      1.5142465      0.76422271     0.76422271    -7.6473857e-06  4.4238946e-06 -8.7899548e-06  10.861889      16.292849      21.723799      3844.485     
        29   0             -832.6272       1.0142306      1.5142465      0.76422271     0.76422271     1.0697706e-05 -6.1306897e-06  1.2298872e-05  10.861889      16.292849      21.723799      3844.485     
        30   0             -832.6272       1.0142306      1.5142465      0.76422271     0.76422271    -9.2843048e-06  5.3007638e-06 -1.0674883e-05  10.861889      16.292849      21.723799      3844.485     
        31   0             -832.6272       1.0142306      1.5142465      0.76422271     0.76422271     8.2038831e-06 -4.674613e-06   9.4331506e-06  10.861889      16.292849      21.723799      3844.485     
        32   0             -832.6272       1.0142306      1.5142465      0.76422271     0.76422271    -8.293654e-06   4.7202095e-06 -9.5367022e-06  10.861889      16.292849      21.723799      3844.485     
        33   0             -832.6272       1.0142306      1.5142465      0.76422271     0.76422271     7.8720249e-06 -4.4775246e-06  9.0520795e-06  10.861889      16.292849      21.723799      3844.485     
        34   0             -832.6272       1.0142306      1.5142465      0.76422271     0.76422271    -6.1270097e-06  3.4839706e-06 -7.0455903e-06  10.861889      16.292849      21.723799      3844.485     
        35   0             -832.6272       1.0142306      1.5142465      0.76422271     0.76422271     8.091704e-06  -4.6004345e-06  9.3048827e-06  10.861889      16.292849      21.723799      3844.485     
        36   0             -832.6272       1.0142306      1.5142465      0.76422271     0.76422271    -8.5385158e-06  4.8542053e-06 -9.8185545e-06  10.861889      16.292849      21.723799      3844.485     
        37   0             -832.6272       1.0142306      1.5142465      0.76422271     0.76422271     7.8163141e-06 -4.4434472e-06  8.9878506e-06  10.861889      16.292849      21.723799      3844.485     
        38   0             -832.6272       1.0142306      1.5142465      0.76422271     0.76422271    -6.5003052e-06  3.6951777e-06 -7.4744735e-06  10.861889      16.292849      21.723799      3844.485     
        39   0             -832.6272       1.0142306      1.5142465      0.76422271     0.76422271     6.0175849e-06 -3.4206962e-06  6.9193216e-06  10.861889      16.292849      21.723799      3844.485     
        40   0             -832.6272       1.0142306      1.5142465      0.76422271     0.76422271    -3.9809533e-06  2.2628943e-06 -4.5774825e-06  10.861889      16.292849      21.723799      3844.485     
        41   0             -832.6272       1.0142306      1.5142465      0.76422271     0.76422271     2.6457035e-06 -1.5038417e-06  3.0422906e-06  10.861889      16.292849      21.723799      3844.485     
        42   0             -832.6272       1.0142306      1.5142465      0.76422271     0.76422271    -2.2137728e-06  1.2582735e-06 -2.5458689e-06  10.861889      16.292849      21.723799      3844.485     
        43   0             -832.6272       1.0142306      1.5142465      0.76422271     0.76422271     7.0078732e-07 -3.9831338e-07  8.0620203e-07  10.861889      16.292849      21.723799      3844.485     
        44   0             -832.6272       1.0142306      1.5142465      0.76422271     0.76422271    -4.0351413e-07  2.2940435e-07 -4.6451597e-07  10.861889      16.292849      21.723799      3844.485     
        45   0             -832.6272       1.0142306      1.5142465      0.76422271     0.76422271     1.7782245e-07 -1.0121058e-07  2.051417e-07   10.861889      16.292849      21.723799      3844.485     
        46   0             -832.6272       1.0142306      1.5142465      0.76422271     0.76422271    -7.6938288e-08  4.3980816e-08 -8.9435897e-08  10.861889      16.292849      21.723799      3844.485     
        47   0             -832.6272       1.0142306      1.5142465      0.76422271     0.76422271     2.9046153e-08 -1.6818683e-08  3.4335364e-08  10.861889      16.292849      21.723799      3844.485     
        48   0             -832.6272       1.0142306      1.5142465      0.76422271     0.76422271    -1.4913286e-08  9.0614389e-09 -1.8717693e-08  10.861889      16.292849      21.723799      3844.485     
        49   0             -832.6272       1.0142306      1.5142465      0.76422271     0.76422271     4.7169403e-09 -3.2067901e-09  6.7857837e-09  10.861889      16.292849      21.723799      3844.485     
        50   0             -832.6272       1.0142306      1.5142465      0.76422271     0.76422271    -1.4813758e-09  1.3673002e-09 -3.0808312e-09  10.861889      16.292849      21.723799      3844.485     
        51   0             -832.6272       1.0142306      1.5142465      0.76422271     0.76422271    -1.7917457e-10 -5.3337453e-10  1.6407415e-09  10.861889      16.292849      21.723799      3844.485     
        52   0             -832.6272       1.0142306      1.5142465      0.76422271     0.76422271     9.0550786e-10 -9.8309243e-11 -2.8624316e-10  10.861889      16.292849      21.723799      3844.485     
Loop time of 0.017113 on 1 procs for 48 steps with 192 atoms

91.3% CPU use with 1 MPI tasks x 1 OpenMP threads

Minimization stats:
  Stopping criterion = force tolerance
  Energy initial, next-to-last, final = 
     -832.627199814203  -832.627199982311  -832.627199982311
  Force two-norm initial, final = 0.0029645989 9.5946695e-11
  Force max component initial, final = 0.00032575357 1.432702e-11
  Final line search alpha, max atom move = 1 1.432702e-11
  Iterations, force evaluations = 48 96

MPI task timing breakdown:
Section |  min time  |  avg time  |  max time  |%varavg| %total
---------------------------------------------------------------
Pair    | 0.016139   | 0.016139   | 0.016139   |   0.0 | 94.31
Neigh   | 0          | 0          | 0          |   0.0 |  0.00
Comm    | 0.000176   | 0.000176   | 0.000176   |   0.0 |  1.03
Output  | 0.000495   | 0.000495   | 0.000495   |   0.0 |  2.89
Modify  | 0          | 0          | 0          |   0.0 |  0.00
Other   |            | 0.000303   |            |       |  1.77

Nlocal:            192 ave         192 max         192 min
Histogram: 1 0 0 0 0 0 0 0 0 0
Nghost:            634 ave         634 max         634 min
Histogram: 1 0 0 0 0 0 0 0 0 0
Neighs:              0 ave           0 max           0 min
Histogram: 1 0 0 0 0 0 0 0 0 0
FullNghs:         5376 ave        5376 max        5376 min
Histogram: 1 0 0 0 0 0 0 0 0 0

Total # of neighbors = 5376
Ave neighs/atom = 28
Neighbor list builds = 0
Dangerous builds = 0
OMP_NUM_THREADS environment is not set. Defaulting to 1 thread. (src/comm.cpp:98)
  using 1 OpenMP thread(s) per MPI task
Loaded 1 plugins from F:\Lammps\LAMMPS 64-bit 2Aug2023\plugins

The 'box' command has been removed and will be ignored

Reading restart file ...
  restart file = 2 Aug 2023, LAMMPS = 2 Aug 2023
  restoring atom style atomic from restart
  triclinic box = (-0.00094977841 -0.0014246676 -0.0018995568) to (10.86095 16.291425 21.7219) with tilt (0 0 0)
  1 by 1 by 1 MPI processor grid
  pair style sw stores no restart info
  192 atoms
  read_restart CPU = 0.000 seconds
Reading sw potential file Si.sw with DATE: 2007-06-11
Changing box ...
  triclinic box = (-0.00094977841 -0.0014246676 -0.0018995568) to (10.860961 16.291425 21.7219) with tilt (0 0 0)
  triclinic box = (-0.00094977841 -0.0014246676 -0.0018995568) to (10.860961 16.291425 21.7219) with tilt (0 0 0)
  triclinic box = (-0.00094977841 -0.0014246676 -0.0018995568) to (10.860961 16.291425 21.7219) with tilt (0 0 0)
Neighbor list info ...
  update: every = 1 steps, delay = 0 steps, check = yes
  max neighbors/atom: 2000, page size: 100000
  master list distance cutoff = 4.77118
  ghost atom cutoff = 4.77118
  1 neighbor lists, perpetual/occasional/extra = 1 0 0
  (1) pair sw, perpetual
      attributes: full, newton on
      pair build: full/nsq
      stencil: none
      bin: none
Setting up cg style minimization ...
  Unit style    : metal
  Current step  : 4
Per MPI rank memory allocation (min/avg/max) = 4.178 | 4.178 | 4.178 Mbytes
   Step          Temp          PotEng         Press           Pxx            Pyy            Pzz            Pxy            Pxz            Pyz             Lx             Ly             Lz           Volume    
         4   0             -832.6272      -1.0141644     -1.5141809     -0.76415873    -0.76415342     0.66241928    -0.3283505      0.76423943     10.86191       16.292849      21.723799      3844.4927    
         5   0             -832.6272      -1.0142256     -1.5142413     -0.7642178     -0.76421779    -0.16309065     0.080834724   -0.18814675     10.86191       16.292849      21.723799      3844.4927    
         6   0             -832.6272      -1.0142274     -1.5142433     -0.76421952    -0.76421941     0.13989818    -0.069338814    0.16138748     10.86191       16.292849      21.723799      3844.4927    
         7   0             -832.6272      -1.0142272     -1.5142432     -0.76421921    -0.76421906    -0.1076495      0.05335372    -0.12418273     10.86191       16.292849      21.723799      3844.4927    
         8   0             -832.6272      -1.0142271     -1.5142431     -0.76421901    -0.76421901     0.067867898   -0.033636441    0.07828978     10.86191       16.292849      21.723799      3844.4927    
         9   0             -832.6272      -1.0142271     -1.5142431     -0.76421901    -0.76421901    -0.048564151    0.024068888   -0.056020777    10.86191       16.292849      21.723799      3844.4927    
        10   0             -832.6272      -1.014227      -1.5142431     -0.764219      -0.764219       0.032310958   -0.016013468    0.037271447    10.86191       16.292849      21.723799      3844.4927    
        11   0             -832.6272      -1.014227      -1.5142431     -0.76421899    -0.76421899    -0.022455547    0.011128956   -0.025902525    10.86191       16.292849      21.723799      3844.4927    
        12   0             -832.6272      -1.014227      -1.5142431     -0.76421898    -0.76421899     0.01267019    -0.0062792611   0.014614789    10.86191       16.292849      21.723799      3844.4927    
        13   0             -832.6272      -1.014227      -1.5142431     -0.76421898    -0.76421899    -0.0072917815   0.0036136919  -0.0084106107   10.86191       16.292849      21.723799      3844.4927    
        14   0             -832.6272      -1.014227      -1.5142431     -0.76421898    -0.76421898     0.0040094378  -0.0019869469   0.0046243336   10.86191       16.292849      21.723799      3844.4927    
        15   0             -832.6272      -1.014227      -1.5142431     -0.76421898    -0.76421898    -0.0021932744   0.001086846   -0.0025293154   10.86191       16.292849      21.723799      3844.4927    
        16   0             -832.6272      -1.014227      -1.5142431     -0.76421898    -0.76421898     0.001551993   -0.00076899407  0.0017894313   10.86191       16.292849      21.723799      3844.4927    
        17   0             -832.6272      -1.014227      -1.5142431     -0.76421898    -0.76421898    -0.00091534472  0.00045347354 -0.0010550568   10.86191       16.292849      21.723799      3844.4927    
        18   0             -832.6272      -1.014227      -1.5142431     -0.76421898    -0.76421898     0.00053479424 -0.00026484655  0.00061595633  10.86191       16.292849      21.723799      3844.4927    
        19   0             -832.6272      -1.014227      -1.5142431     -0.76421898    -0.76421898    -0.00025982701  0.00012859098 -0.00029886226  10.86191       16.292849      21.723799      3844.4927    
        20   0             -832.6272      -1.014227      -1.5142431     -0.76421898    -0.76421898     0.0001170873  -5.783827e-05   0.00013415503  10.86191       16.292849      21.723799      3844.4927    
        21   0             -832.6272      -1.014227      -1.5142431     -0.76421898    -0.76421898    -5.8523163e-05  2.8766848e-05 -6.637585e-05   10.86191       16.292849      21.723799      3844.4927    
        22   0             -832.6272      -1.014227      -1.5142431     -0.76421898    -0.76421898     2.9665547e-05 -1.4454726e-05  3.3038305e-05  10.86191       16.292849      21.723799      3844.4927    
        23   0             -832.6272      -1.014227      -1.5142431     -0.76421898    -0.76421898    -1.2621941e-05  5.9695342e-06 -1.3194895e-05  10.86191       16.292849      21.723799      3844.4927    
        24   0             -832.6272      -1.014227      -1.5142431     -0.76421898    -0.76421898     6.9873559e-06 -2.989185e-06   5.7983415e-06  10.86191       16.292849      21.723799      3844.4927    
        25   0             -832.6272      -1.014227      -1.5142431     -0.76421898    -0.76421898    -8.381019e-07   4.3051249e-10  1.0139822e-06  10.86191       16.292849      21.723799      3844.4927    
        26   0             -832.6272      -1.014227      -1.5142431     -0.76421898    -0.76421898    -4.304018e-06   2.8991509e-06 -8.6219557e-06  10.86191       16.292849      21.723799      3844.4927    
        27   0             -832.6272      -1.014227      -1.5142431     -0.76421898    -0.76421898     6.3960565e-06 -3.9265614e-06  1.0990233e-05  10.86191       16.292849      21.723799      3844.4927    
        28   0             -832.6272      -1.014227      -1.5142431     -0.76421898    -0.76421898    -6.2783713e-06  3.7455499e-06 -1.0268666e-05  10.86191       16.292849      21.723799      3844.4927    
        29   0             -832.6272      -1.014227      -1.5142431     -0.76421898    -0.76421898     8.9072586e-06 -5.2435227e-06  1.4232307e-05  10.86191       16.292849      21.723799      3844.4927    
        30   0             -832.6272      -1.014227      -1.5142431     -0.76421898    -0.76421898    -7.7735339e-06  4.5520661e-06 -1.2306207e-05  10.86191       16.292849      21.723799      3844.4927    
        31   0             -832.6272      -1.014227      -1.5142431     -0.76421898    -0.76421898     6.8890087e-06 -4.0229079e-06  1.0852582e-05  10.86191       16.292849      21.723799      3844.4927    
        32   0             -832.6272      -1.014227      -1.5142431     -0.76421898    -0.76421898    -6.9764139e-06  4.0672646e-06 -1.0958607e-05  10.86191       16.292849      21.723799      3844.4927    
        33   0             -832.6272      -1.014227      -1.5142431     -0.76421898    -0.76421898     6.6274931e-06 -3.8605949e-06  1.0395036e-05  10.86191       16.292849      21.723799      3844.4927    
        34   0             -832.6272      -1.014227      -1.5142431     -0.76421898    -0.76421898    -5.160174e-06   3.0046589e-06 -8.0877854e-06  10.86191       16.292849      21.723799      3844.4927    
        35   0             -832.6272      -1.014227      -1.5142431     -0.76421898    -0.76421898     6.8153743e-06 -3.9676025e-06  1.0677946e-05  10.86191       16.292849      21.723799      3844.4927    
        36   0             -832.6272      -1.014227      -1.5142431     -0.76421898    -0.76421898    -7.1887634e-06  4.184679e-06  -1.1261587e-05  10.86191       16.292849      21.723799      3844.4927    
        37   0             -832.6272      -1.014227      -1.5142431     -0.76421898    -0.76421898     6.5731999e-06 -3.8262937e-06  1.0297071e-05  10.86191       16.292849      21.723799      3844.4927    
        38   0             -832.6272      -1.014227      -1.5142431     -0.76421898    -0.76421898    -5.4569954e-06  3.1764981e-06 -8.5484953e-06  10.86191       16.292849      21.723799      3844.4927    
        39   0             -832.6272      -1.014227      -1.5142431     -0.76421898    -0.76421898     5.0349934e-06 -2.9307674e-06  7.8874453e-06  10.86191       16.292849      21.723799      3844.4927    
        40   0             -832.6272      -1.014227      -1.5142431     -0.76421898    -0.76421898    -3.3202663e-06  1.9325337e-06 -5.2012467e-06  10.86191       16.292849      21.723799      3844.4927    
        41   0             -832.6272      -1.014227      -1.5142431     -0.76421898    -0.76421898     2.199927e-06  -1.2803034e-06  3.4461808e-06  10.86191       16.292849      21.723799      3844.4927    
        42   0             -832.6272      -1.014227      -1.5142431     -0.76421898    -0.76421898    -1.8362086e-06  1.0683479e-06 -2.8762954e-06  10.86191       16.292849      21.723799      3844.4927    
        43   0             -832.6272      -1.014227      -1.5142431     -0.76421898    -0.76421898     5.8086254e-07 -3.3750804e-07  9.0974306e-07  10.86191       16.292849      21.723799      3844.4927    
        44   0             -832.6272      -1.014227      -1.5142431     -0.76421898    -0.76421898    -3.3450759e-07  1.9384162e-07 -5.238229e-07   10.86191       16.292849      21.723799      3844.4927    
        45   0             -832.6272      -1.014227      -1.5142431     -0.76421898    -0.76421898     1.4751351e-07 -8.4847398e-08  2.3106349e-07  10.86191       16.292849      21.723799      3844.4927    
        46   0             -832.6272      -1.014227      -1.5142431     -0.76421898    -0.76421898    -6.3914885e-08  3.5873934e-08 -1.0040946e-07  10.86191       16.292849      21.723799      3844.4927    
        47   0             -832.6272      -1.014227      -1.5142431     -0.76421898    -0.76421898     2.4159968e-08 -1.2903665e-08  3.8358479e-08  10.86191       16.292849      21.723799      3844.4927    
        48   0             -832.6272      -1.014227      -1.5142431     -0.76421898    -0.76421898    -1.2514151e-08  5.6187936e-09 -2.0666684e-08  10.86191       16.292849      21.723799      3844.4927    
        49   0             -832.6272      -1.014227      -1.5142431     -0.76421898    -0.76421898     3.9699907e-09 -1.0036831e-09  7.363929e-09   10.86191       16.292849      21.723799      3844.4927    
        50   0             -832.6272      -1.014227      -1.5142431     -0.76421898    -0.76421898    -1.2492879e-09 -4.495794e-10  -3.2380825e-09  10.86191       16.292849      21.723799      3844.4927    
        51   0             -832.6272      -1.014227      -1.5142431     -0.76421898    -0.76421898    -1.868067e-10   1.4963116e-09  1.5699249e-09  10.86191       16.292849      21.723799      3844.4927    
        52   0             -832.6272      -1.014227      -1.5142431     -0.76421898    -0.76421898     8.8085064e-10 -1.326901e-09  -1.9422941e-10  10.86191       16.292849      21.723799      3844.4927    
Loop time of 0.017726 on 1 procs for 48 steps with 192 atoms

0.0% CPU use with 1 MPI tasks x 1 OpenMP threads

Minimization stats:
  Stopping criterion = force tolerance
  Energy initial, next-to-last, final = 
     -832.627199814203  -832.627199982311  -832.627199982311
  Force two-norm initial, final = 0.0029645911 9.5933603e-11
  Force max component initial, final = 0.00032575264 1.4281423e-11
  Final line search alpha, max atom move = 1 1.4281423e-11
  Iterations, force evaluations = 48 96

MPI task timing breakdown:
Section |  min time  |  avg time  |  max time  |%varavg| %total
---------------------------------------------------------------
Pair    | 0.016699   | 0.016699   | 0.016699   |   0.0 | 94.21
Neigh   | 0          | 0          | 0          |   0.0 |  0.00
Comm    | 0.000181   | 0.000181   | 0.000181   |   0.0 |  1.02
Output  | 0.000539   | 0.000539   | 0.000539   |   0.0 |  3.04
Modify  | 0          | 0          | 0          |   0.0 |  0.00
Other   |            | 0.000307   |            |       |  1.73

Nlocal:            192 ave         192 max         192 min
Histogram: 1 0 0 0 0 0 0 0 0 0
Nghost:            634 ave         634 max         634 min
Histogram: 1 0 0 0 0 0 0 0 0 0
Neighs:              0 ave           0 max           0 min
Histogram: 1 0 0 0 0 0 0 0 0 0
FullNghs:         5376 ave        5376 max        5376 min
Histogram: 1 0 0 0 0 0 0 0 0 0

Total # of neighbors = 5376
Ave neighs/atom = 28
Neighbor list builds = 0
Dangerous builds = 0
OMP_NUM_THREADS environment is not set. Defaulting to 1 thread. (src/comm.cpp:98)
  using 1 OpenMP thread(s) per MPI task
Loaded 1 plugins from F:\Lammps\LAMMPS 64-bit 2Aug2023\plugins

The 'box' command has been removed and will be ignored

Reading restart file ...
  restart file = 2 Aug 2023, LAMMPS = 2 Aug 2023
  restoring atom style atomic from restart
  triclinic box = (-0.00094977841 -0.0014246676 -0.0018995568) to (10.86095 16.291425 21.7219) with tilt (0 0 0)
  1 by 1 by 1 MPI processor grid
  pair style sw stores no restart info
  192 atoms
  read_restart CPU = 0.001 seconds
Reading sw potential file Si.sw with DATE: 2007-06-11
Changing box ...
  triclinic box = (-0.00094977841 -0.0014246676 -0.0018995568) to (10.86095 16.291408 21.7219) with tilt (0 0 0)
  triclinic box = (-0.00094977841 -0.0014246676 -0.0018995568) to (10.86095 16.291408 21.7219) with tilt (0 0 0)
Neighbor list info ...
  update: every = 1 steps, delay = 0 steps, check = yes
  max neighbors/atom: 2000, page size: 100000
  master list distance cutoff = 4.77118
  ghost atom cutoff = 4.77118
  1 neighbor lists, perpetual/occasional/extra = 1 0 0
  (1) pair sw, perpetual
      attributes: full, newton on
      pair build: full/nsq
      stencil: none
      bin: none
Setting up cg style minimization ...
  Unit style    : metal
  Current step  : 4
Per MPI rank memory allocation (min/avg/max) = 4.178 | 4.178 | 4.178 Mbytes
   Step          Temp          PotEng         Press           Pxx            Pyy            Pzz            Pxy            Pxz            Pyz             Lx             Ly             Lz           Volume    
         4   0             -832.6272       1.0142933      0.76428491     1.5143067      0.76428827     0.66242267    -0.32835214     0.76424326     10.8619        16.292833      21.723799      3844.485     
         5   0             -832.6272       1.014232       0.76422455     1.5142477      0.7642239     -0.16309106     0.080835075   -0.18814757     10.8619        16.292833      21.723799      3844.485     
         6   0             -832.6272       1.0142303      0.76422254     1.5142459      0.76422228     0.13989833    -0.069339132    0.16138822     10.8619        16.292833      21.723799      3844.485     
         7   0             -832.6272       1.0142305      0.76422261     1.5142462      0.76422263    -0.10764961     0.053354071   -0.12418355     10.8619        16.292833      21.723799      3844.485     
         8   0             -832.6272       1.0142306      0.76422268     1.5142464      0.76422267     0.06786789    -0.033636749    0.078290496    10.8619        16.292833      21.723799      3844.485     
         9   0             -832.6272       1.0142306      0.76422269     1.5142464      0.76422267    -0.04856402     0.024069152   -0.056021392    10.8619        16.292833      21.723799      3844.485     
        10   0             -832.6272       1.0142306      0.76422269     1.5142465      0.76422269     0.032310789   -0.016013682    0.037271947    10.8619        16.292833      21.723799      3844.485     
        11   0             -832.6272       1.0142306      0.7642227      1.5142465      0.76422269    -0.022455359    0.011129146   -0.025902969    10.8619        16.292833      21.723799      3844.485     
        12   0             -832.6272       1.0142306      0.7642227      1.5142465      0.7642227      0.012670015   -0.0062793913   0.014615093    10.8619        16.292833      21.723799      3844.485     
        13   0             -832.6272       1.0142306      0.7642227      1.5142465      0.7642227     -0.0072916122   0.0036137927  -0.0084108463   10.8619        16.292833      21.723799      3844.485     
        14   0             -832.6272       1.0142306      0.76422271     1.5142465      0.7642227      0.0040092746  -0.0019870301   0.0046245284   10.8619        16.292833      21.723799      3844.485     
        15   0             -832.6272       1.0142306      0.76422271     1.5142465      0.76422271    -0.002193101    0.0010869176  -0.0025294836   10.8619        16.292833      21.723799      3844.485     
        16   0             -832.6272       1.0142306      0.76422271     1.5142465      0.76422271     0.0015517787  -0.00076907403  0.0017896197   10.8619        16.292833      21.723799      3844.485     
        17   0             -832.6272       1.0142306      0.76422271     1.5142465      0.76422271    -0.000915134    0.00045354833 -0.0010552336   10.8619        16.292833      21.723799      3844.485     
        18   0             -832.6272       1.0142306      0.76422271     1.5142465      0.76422271     0.00053454897 -0.00026492964  0.00061615367  10.8619        16.292833      21.723799      3844.485     
        19   0             -832.6272       1.0142306      0.76422271     1.5142465      0.76422271    -0.000259603    0.00012866449 -0.00029903725  10.8619        16.292833      21.723799      3844.485     
        20   0             -832.6272       1.0142306      0.76422271     1.5142465      0.76422271     0.00011684711 -5.7914784e-05  0.00013433747  10.8619        16.292833      21.723799      3844.485     
        21   0             -832.6272       1.0142306      0.76422271     1.5142465      0.76422271    -5.822225e-05   2.8861179e-05 -6.6600745e-05  10.8619        16.292833      21.723799      3844.485     
        22   0             -832.6272       1.0142306      0.76422271     1.5142465      0.76422271     2.9350868e-05 -1.4552856e-05  3.3272221e-05  10.8619        16.292833      21.723799      3844.485     
        23   0             -832.6272       1.0142306      0.76422271     1.5142465      0.76422271    -1.2258084e-05  6.0825397e-06 -1.3464432e-05  10.8619        16.292833      21.723799      3844.485     
        24   0             -832.6272       1.0142306      0.76422271     1.5142465      0.76422271     6.3840256e-06 -3.176348e-06   6.2447719e-06  10.8619        16.292833      21.723799      3844.485     
        25   0             -832.6272       1.0142306      0.76422271     1.5142465      0.76422271    -3.0954508e-07  1.6431726e-07  6.2310658e-07  10.8619        16.292833      21.723799      3844.485     
        26   0             -832.6272       1.0142306      0.76422271     1.5142465      0.76422271    -5.2800041e-06  2.5966475e-06 -7.9001171e-06  10.8619        16.292833      21.723799      3844.485     
        27   0             -832.6272       1.0142306      0.76422271     1.5142465      0.76422271     7.3600235e-06 -3.6277605e-06  1.0277161e-05  10.8619        16.292833      21.723799      3844.485     
        28   0             -832.6272       1.0142306      0.76422271     1.5142465      0.76422271    -7.086067e-06   3.4951838e-06 -9.6712037e-06  10.8619        16.292833      21.723799      3844.485     
        29   0             -832.6272       1.0142306      0.76422271     1.5142465      0.76422271     9.9635416e-06 -4.9161725e-06  1.3451169e-05  10.8619        16.292833      21.723799      3844.485     
        30   0             -832.6272       1.0142306      0.76422271     1.5142465      0.76422271    -8.6648612e-06  4.2759789e-06 -1.1647353e-05  10.8619        16.292833      21.723799      3844.485     
        31   0             -832.6272       1.0142306      0.76422271     1.5142465      0.76422271     7.6649142e-06 -3.7827967e-06  1.0279542e-05  10.8619        16.292833      21.723799      3844.485     
        32   0             -832.6272       1.0142306      0.76422271     1.5142465      0.76422271    -7.7539028e-06  3.8269046e-06 -1.0384727e-05  10.8619        16.292833      21.723799      3844.485     
        33   0             -832.6272       1.0142306      0.76422271     1.5142465      0.76422271     7.362256e-06  -3.6337596e-06  9.8532705e-06  10.8619        16.292833      21.723799      3844.485     
        34   0             -832.6272       1.0142306      0.76422271     1.5142465      0.76422271    -5.7309841e-06  2.8287528e-06 -7.6675954e-06  10.8619        16.292833      21.723799      3844.485     
        35   0             -832.6272       1.0142306      0.76422271     1.5142465      0.76422271     7.5691059e-06 -3.736164e-06   1.0124989e-05  10.8619        16.292833      21.723799      3844.485     
        36   0             -832.6272       1.0142306      0.76422271     1.5142465      0.76422271    -7.9863452e-06  3.9421757e-06 -1.0682561e-05  10.8619        16.292833      21.723799      3844.485     
        37   0             -832.6272       1.0142306      0.76422271     1.5142465      0.76422271     7.3091395e-06 -3.6078998e-06  9.7764553e-06  10.8619        16.292833      21.723799      3844.485     
        38   0             -832.6272       1.0142306      0.76422271     1.5142465      0.76422271    -6.0765409e-06  2.9994663e-06 -8.1276518e-06  10.8619        16.292833      21.723799      3844.485     
        39   0             -832.6272       1.0142306      0.76422271     1.5142465      0.76422271     5.6220332e-06 -2.7750642e-06  7.5194743e-06  10.8619        16.292833      21.723799      3844.485     
        40   0             -832.6272       1.0142306      0.76422271     1.5142465      0.76422271    -3.7173856e-06  1.8348403e-06 -4.9716412e-06  10.8619        16.292833      21.723799      3844.485     
        41   0             -832.6272       1.0142306      0.76422271     1.5142465      0.76422271     2.4693778e-06 -1.2188361e-06  3.3022286e-06  10.8619        16.292833      21.723799      3844.485     
        42   0             -832.6272       1.0142306      0.76422271     1.5142465      0.76422271    -2.0654843e-06  1.0195529e-06 -2.7617522e-06  10.8619        16.292833      21.723799      3844.485     
        43   0             -832.6272       1.0142306      0.76422271     1.5142465      0.76422271     6.5413471e-07 -3.2295281e-07  8.7414445e-07  10.8619        16.292833      21.723799      3844.485     
        44   0             -832.6272       1.0142306      0.76422271     1.5142465      0.76422271    -3.7712046e-07  1.8627121e-07 -5.0333506e-07  10.8619        16.292833      21.723799      3844.485     
        45   0             -832.6272       1.0142306      0.76422271     1.5142465      0.76422271     1.6683294e-07 -8.2476684e-08  2.2184958e-07  10.8619        16.292833      21.723799      3844.485     
        46   0             -832.6272       1.0142306      0.76422271     1.5142465      0.76422271    -7.3109369e-08  3.6238749e-08 -9.6061975e-08  10.8619        16.292833      21.723799      3844.485     
        47   0             -832.6272       1.0142306      0.76422271     1.5142465      0.76422271     2.8368361e-08 -1.411537e-08   3.6436377e-08  10.8619        16.292833      21.723799      3844.485     
        48   0             -832.6272       1.0142306      0.76422271     1.5142465      0.76422271    -1.6002599e-08  8.0777293e-09 -1.9151716e-08  10.8619        16.292833      21.723799      3844.485     
        49   0             -832.6272       1.0142306      0.76422271     1.5142465      0.76422271     6.184991e-09  -3.2857817e-09  6.4354774e-09  10.8619        16.292833      21.723799      3844.485     
        50   0             -832.6272       1.0142306      0.76422271     1.5142465      0.76422271    -3.1398304e-09  1.8492595e-09 -2.4802897e-09  10.8619        16.292833      21.723799      3844.485     
        51   0             -832.6272       1.0142306      0.76422271     1.5142465      0.76422271     2.0909185e-09 -1.5110231e-09  6.6166651e-10  10.8619        16.292833      21.723799      3844.485     
        52   0             -832.6272       1.0142306      0.76422271     1.5142465      0.76422271    -6.4749971e-10  7.4611005e-10  5.2506425e-10  10.8619        16.292833      21.723799      3844.485     
Loop time of 0.017311 on 1 procs for 48 steps with 192 atoms

90.3% CPU use with 1 MPI tasks x 1 OpenMP threads

Minimization stats:
  Stopping criterion = force tolerance
  Energy initial, next-to-last, final = 
     -832.627199814202  -832.627199982311  -832.627199982311
  Force two-norm initial, final = 0.0029645989 9.5965848e-11
  Force max component initial, final = 0.00032575343 1.4283726e-11
  Final line search alpha, max atom move = 1 1.4283726e-11
  Iterations, force evaluations = 48 96

MPI task timing breakdown:
Section |  min time  |  avg time  |  max time  |%varavg| %total
---------------------------------------------------------------
Pair    | 0.016352   | 0.016352   | 0.016352   |   0.0 | 94.46
Neigh   | 0          | 0          | 0          |   0.0 |  0.00
Comm    | 0.000174   | 0.000174   | 0.000174   |   0.0 |  1.01
Output  | 0.000496   | 0.000496   | 0.000496   |   0.0 |  2.87
Modify  | 0          | 0          | 0          |   0.0 |  0.00
Other   |            | 0.000289   |            |       |  1.67

Nlocal:            192 ave         192 max         192 min
Histogram: 1 0 0 0 0 0 0 0 0 0
Nghost:            634 ave         634 max         634 min
Histogram: 1 0 0 0 0 0 0 0 0 0
Neighs:              0 ave           0 max           0 min
Histogram: 1 0 0 0 0 0 0 0 0 0
FullNghs:         5376 ave        5376 max        5376 min
Histogram: 1 0 0 0 0 0 0 0 0 0

Total # of neighbors = 5376
Ave neighs/atom = 28
Neighbor list builds = 0
Dangerous builds = 0
OMP_NUM_THREADS environment is not set. Defaulting to 1 thread. (src/comm.cpp:98)
  using 1 OpenMP thread(s) per MPI task
Loaded 1 plugins from F:\Lammps\LAMMPS 64-bit 2Aug2023\plugins

The 'box' command has been removed and will be ignored

Reading restart file ...
  restart file = 2 Aug 2023, LAMMPS = 2 Aug 2023
  restoring atom style atomic from restart
  triclinic box = (-0.00094977841 -0.0014246676 -0.0018995568) to (10.86095 16.291425 21.7219) with tilt (0 0 0)
  1 by 1 by 1 MPI processor grid
  pair style sw stores no restart info
  192 atoms
  read_restart CPU = 0.000 seconds
Reading sw potential file Si.sw with DATE: 2007-06-11
Changing box ...
  triclinic box = (-0.00094977841 -0.0014246676 -0.0018995568) to (10.86095 16.291441 21.7219) with tilt (0 0 0)
  triclinic box = (-0.00094977841 -0.0014246676 -0.0018995568) to (10.86095 16.291441 21.7219) with tilt (0 0 0)
Neighbor list info ...
  update: every = 1 steps, delay = 0 steps, check = yes
  max neighbors/atom: 2000, page size: 100000
  master list distance cutoff = 4.77118
  ghost atom cutoff = 4.77118
  1 neighbor lists, perpetual/occasional/extra = 1 0 0
  (1) pair sw, perpetual
      attributes: full, newton on
      pair build: full/nsq
      stencil: none
      bin: none
Setting up cg style minimization ...
  Unit style    : metal
  Current step  : 4
Per MPI rank memory allocation (min/avg/max) = 4.178 | 4.178 | 4.178 Mbytes
   Step          Temp          PotEng         Press           Pxx            Pyy            Pzz            Pxy            Pxz            Pyz             Lx             Ly             Lz           Volume    
         4   0             -832.6272      -1.0141644     -0.76415678    -1.5141829     -0.76415342     0.66241928    -0.32835054     0.76423934     10.8619        16.292866      21.723799      3844.4927    
         5   0             -832.6272      -1.0142256     -0.76421714    -1.5142419     -0.76421779    -0.16309068     0.080834595   -0.18814712     10.8619        16.292866      21.723799      3844.4927    
         6   0             -832.6272      -1.0142274     -0.76421914    -1.5142437     -0.76421941     0.13989822    -0.069338593    0.16138809     10.8619        16.292866      21.723799      3844.4927    
         7   0             -832.6272      -1.0142272     -0.76421907    -1.5142433     -0.76421906    -0.10764961     0.053353477   -0.12418355     10.8619        16.292866      21.723799      3844.4927    
         8   0             -832.6272      -1.0142271     -0.764219      -1.5142431     -0.76421901     0.067867931   -0.033636146    0.078290543    10.8619        16.292866      21.723799      3844.4927    
         9   0             -832.6272      -1.0142271     -0.76421899    -1.5142431     -0.76421901    -0.048564132    0.024068549   -0.056021521    10.8619        16.292866      21.723799      3844.4927    
        10   0             -832.6272      -1.014227      -0.76421899    -1.5142431     -0.764219       0.03231085    -0.016013116    0.037272018    10.8619        16.292866      21.723799      3844.4927    
        11   0             -832.6272      -1.014227      -0.76421898    -1.5142431     -0.76421899    -0.022455335    0.011128566   -0.025902942    10.8619        16.292866      21.723799      3844.4927    
        12   0             -832.6272      -1.014227      -0.76421898    -1.5142431     -0.76421899     0.012669954   -0.0062789267   0.014615023    10.8619        16.292866      21.723799      3844.4927    
        13   0             -832.6272      -1.014227      -0.76421898    -1.5142431     -0.76421899    -0.0072915741   0.0036134034  -0.0084108021   10.8619        16.292866      21.723799      3844.4927    
        14   0             -832.6272      -1.014227      -0.76421898    -1.5142431     -0.76421898     0.0040092497  -0.0019866884   0.0046244993   10.8619        16.292866      21.723799      3844.4927    
        15   0             -832.6272      -1.014227      -0.76421898    -1.5142431     -0.76421898    -0.0021931047   0.0010866028  -0.0025294874   10.8619        16.292866      21.723799      3844.4927    
        16   0             -832.6272      -1.014227      -0.76421898    -1.5142431     -0.76421898     0.0015518032  -0.00076871172  0.0017896473   10.8619        16.292866      21.723799      3844.4927    
        17   0             -832.6272      -1.014227      -0.76421898    -1.5142431     -0.76421898    -0.00091517056  0.00045320562 -0.0010552753   10.8619        16.292866      21.723799      3844.4927    
        18   0             -832.6272      -1.014227      -0.76421898    -1.5142431     -0.76421898     0.00053460494 -0.00026454504  0.00061621772  10.8619        16.292866      21.723799      3844.4927    
        19   0             -832.6272      -1.014227      -0.76421898    -1.5142431     -0.76421898    -0.00025966155  0.00012832144 -0.00029910438  10.8619        16.292866      21.723799      3844.4927    
        20   0             -832.6272      -1.014227      -0.76421898    -1.5142431     -0.76421898     0.00011691635 -5.7554617e-05  0.00013441703  10.8619        16.292866      21.723799      3844.4927    
        21   0             -832.6272      -1.014227      -0.76421898    -1.5142431     -0.76421898    -5.8312862e-05  2.8415058e-05 -6.6705078e-05  10.8619        16.292866      21.723799      3844.4927    
        22   0             -832.6272      -1.014227      -0.76421898    -1.5142431     -0.76421898     2.9446794e-05 -1.4087935e-05  3.3382873e-05  10.8619        16.292866      21.723799      3844.4927    
        23   0             -832.6272      -1.014227      -0.76421898    -1.5142431     -0.76421898    -1.2370088e-05  5.5462356e-06 -1.3593742e-05  10.8619        16.292866      21.723799      3844.4927    
        24   0             -832.6272      -1.014227      -0.76421898    -1.5142431     -0.76421898     6.5703661e-06 -2.2879083e-06  6.45982e-06    10.8619        16.292866      21.723799      3844.4927    
        25   0             -832.6272      -1.014227      -0.76421898    -1.5142431     -0.76421898    -4.7313348e-07 -6.1353962e-07  4.3454408e-07  10.8619        16.292866      21.723799      3844.4927    
        26   0             -832.6272      -1.014227      -0.76421898    -1.5142431     -0.76421898    -4.9775706e-06  4.0325862e-06 -7.5518794e-06  10.8619        16.292866      21.723799      3844.4927    
        27   0             -832.6272      -1.014227      -0.76421898    -1.5142431     -0.76421898     7.0612417e-06 -5.0459955e-06  9.9332122e-06  10.8619        16.292866      21.723799      3844.4927    
        28   0             -832.6272      -1.014227      -0.76421898    -1.5142431     -0.76421898    -6.8358776e-06  4.683384e-06  -9.3830267e-06  10.8619        16.292866      21.723799      3844.4927    
        29   0             -832.6272      -1.014227      -0.76421898    -1.5142431     -0.76421898     9.6366247e-06 -6.4699109e-06  1.307427e-05   10.8619        16.292866      21.723799      3844.4927    
        30   0             -832.6272      -1.014227      -0.76421898    -1.5142431     -0.76421898    -8.388981e-06   5.5869291e-06 -1.1329169e-05  10.8619        16.292866      21.723799      3844.4927    
        31   0             -832.6272      -1.014227      -0.76421898    -1.5142431     -0.76421898     7.4245993e-06 -4.9235865e-06  1.0002456e-05  10.8619        16.292866      21.723799      3844.4927    
        32   0             -832.6272      -1.014227      -0.76421898    -1.5142431     -0.76421898    -7.5127757e-06  4.9695642e-06 -1.0106894e-05  10.8619        16.292866      21.723799      3844.4927    
        33   0             -832.6272      -1.014227      -0.76421898    -1.5142431     -0.76421898     7.1340628e-06 -4.7129589e-06  9.5904016e-06  10.8619        16.292866      21.723799      3844.4927    
        34   0             -832.6272      -1.014227      -0.76421898    -1.5142431     -0.76421898    -5.553648e-06   3.6666726e-06 -7.4632702e-06  10.8619        16.292866      21.723799      3844.4927    
        35   0             -832.6272      -1.014227      -0.76421898    -1.5142431     -0.76421898     7.3349579e-06 -4.8410871e-06  9.8551837e-06  10.8619        16.292866      21.723799      3844.4927    
        36   0             -832.6272      -1.014227      -0.76421898    -1.5142431     -0.76421898    -7.7388451e-06  5.1070742e-06 -1.039708e-05   10.8619        16.292866      21.723799      3844.4927    
        37   0             -832.6272      -1.014227      -0.76421898    -1.5142431     -0.76421898     7.0812904e-06 -4.6728534e-06  9.5131924e-06  10.8619        16.292866      21.723799      3844.4927    
        38   0             -832.6272      -1.014227      -0.76421898    -1.5142431     -0.76421898    -5.8852349e-06  3.8834108e-06 -7.9060091e-06  10.8619        16.292866      21.723799      3844.4927    
        39   0             -832.6272      -1.014227      -0.76421898    -1.5142431     -0.76421898     5.4413272e-06 -3.5904322e-06  7.3095676e-06  10.8619        16.292866      21.723799      3844.4927    
        40   0             -832.6272      -1.014227      -0.76421898    -1.5142431     -0.76421898    -3.5953349e-06  2.3722769e-06 -4.829813e-06   10.8619        16.292866      21.723799      3844.4927    
        41   0             -832.6272      -1.014227      -0.76421898    -1.5142431     -0.76421898     2.3865491e-06 -1.5746989e-06  3.206137e-06   10.8619        16.292866      21.723799      3844.4927    
        42   0             -832.6272      -1.014227      -0.76421898    -1.5142431     -0.76421898    -1.9949586e-06  1.3164133e-06 -2.680195e-06   10.8619        16.292866      21.723799      3844.4927    
        43   0             -832.6272      -1.014227      -0.76421898    -1.5142431     -0.76421898     6.3131694e-07 -4.1682463e-07  8.4834335e-07  10.8619        16.292866      21.723799      3844.4927    
        44   0             -832.6272      -1.014227      -0.76421898    -1.5142431     -0.76421898    -3.6358361e-07  2.4024285e-07 -4.8870663e-07  10.8619        16.292866      21.723799      3844.4927    
        45   0             -832.6272      -1.014227      -0.76421898    -1.5142431     -0.76421898     1.6039018e-07 -1.0613561e-07  2.1566207e-07  10.8619        16.292866      21.723799      3844.4927    
        46   0             -832.6272      -1.014227      -0.76421898    -1.5142431     -0.76421898    -6.969478e-08   4.6237308e-08 -9.3777881e-08  10.8619        16.292866      21.723799      3844.4927    
        47   0             -832.6272      -1.014227      -0.76421898    -1.5142431     -0.76421898     2.6683461e-08 -1.7704156e-08  3.5817205e-08  10.8619        16.292866      21.723799      3844.4927    
        48   0             -832.6272      -1.014227      -0.76421898    -1.5142431     -0.76421898    -1.4471911e-08  9.5724716e-09 -1.9235809e-08  10.8619        16.292866      21.723799      3844.4927    
        49   0             -832.6272      -1.014227      -0.76421898    -1.5142431     -0.76421898     5.241119e-09  -3.3665551e-09  6.8065046e-09  10.8619        16.292866      21.723799      3844.4927    
        50   0             -832.6272      -1.014227      -0.76421898    -1.5142431     -0.76421898    -2.3992122e-09  1.3899219e-09 -2.9342679e-09  10.8619        16.292866      21.723799      3844.4927    
        51   0             -832.6272      -1.014227      -0.76421898    -1.5142431     -0.76421898     1.3622906e-09 -4.7387903e-10  1.3350817e-09  10.8619        16.292866      21.723799      3844.4927    
        52   0             -832.6272      -1.014227      -0.76421898    -1.5142431     -0.76421898    -2.7357929e-10 -1.4619656e-10 -2.1649286e-11  10.8619        16.292866      21.723799      3844.4927    
Loop time of 0.017342 on 1 procs for 48 steps with 192 atoms

90.1% CPU use with 1 MPI tasks x 1 OpenMP threads

Minimization stats:
  Stopping criterion = force tolerance
  Energy initial, next-to-last, final = 
     -832.627199814203  -832.627199982311  -832.627199982311
  Force two-norm initial, final = 0.0029645911 9.5947166e-11
  Force max component initial, final = 0.00032575278 1.4269997e-11
  Final line search alpha, max atom move = 1 1.4269997e-11
  Iterations, force evaluations = 48 96

MPI task timing breakdown:
Section |  min time  |  avg time  |  max time  |%varavg| %total
---------------------------------------------------------------
Pair    | 0.016372   | 0.016372   | 0.016372   |   0.0 | 94.41
Neigh   | 0          | 0          | 0          |   0.0 |  0.00
Comm    | 0.000189   | 0.000189   | 0.000189   |   0.0 |  1.09
Output  | 0.000479   | 0.000479   | 0.000479   |   0.0 |  2.76
Modify  | 0          | 0          | 0          |   0.0 |  0.00
Other   |            | 0.000302   |            |       |  1.74

Nlocal:            192 ave         192 max         192 min
Histogram: 1 0 0 0 0 0 0 0 0 0
Nghost:            634 ave         634 max         634 min
Histogram: 1 0 0 0 0 0 0 0 0 0
Neighs:              0 ave           0 max           0 min
Histogram: 1 0 0 0 0 0 0 0 0 0
FullNghs:         5376 ave        5376 max        5376 min
Histogram: 1 0 0 0 0 0 0 0 0 0

Total # of neighbors = 5376
Ave neighs/atom = 28
Neighbor list builds = 0
Dangerous builds = 0
OMP_NUM_THREADS environment is not set. Defaulting to 1 thread. (src/comm.cpp:98)
  using 1 OpenMP thread(s) per MPI task
Loaded 1 plugins from F:\Lammps\LAMMPS 64-bit 2Aug2023\plugins

The 'box' command has been removed and will be ignored

Reading restart file ...
  restart file = 2 Aug 2023, LAMMPS = 2 Aug 2023
  restoring atom style atomic from restart
  triclinic box = (-0.00094977841 -0.0014246676 -0.0018995568) to (10.86095 16.291425 21.7219) with tilt (0 0 0)
  1 by 1 by 1 MPI processor grid
  pair style sw stores no restart info
  192 atoms
  read_restart CPU = 0.000 seconds
Reading sw potential file Si.sw with DATE: 2007-06-11
Changing box ...
  triclinic box = (-0.00094977841 -0.0014246676 -0.0018995568) to (10.86095 16.291425 21.721878) with tilt (0 0 0)
Neighbor list info ...
  update: every = 1 steps, delay = 0 steps, check = yes
  max neighbors/atom: 2000, page size: 100000
  master list distance cutoff = 4.77118
  ghost atom cutoff = 4.77118
  1 neighbor lists, perpetual/occasional/extra = 1 0 0
  (1) pair sw, perpetual
      attributes: full, newton on
      pair build: full/nsq
      stencil: none
      bin: none
Setting up cg style minimization ...
  Unit style    : metal
  Current step  : 4
Per MPI rank memory allocation (min/avg/max) = 4.178 | 4.178 | 4.178 Mbytes
   Step          Temp          PotEng         Press           Pxx            Pyy            Pzz            Pxy            Pxz            Pyz             Lx             Ly             Lz           Volume    
         4   0             -832.6272       1.0142933      0.76428491     0.76428295     1.514312       0.66242259    -0.32835218     0.76424326     10.8619        16.292849      21.723777      3844.485     
         5   0             -832.6272       1.014232       0.76422455     0.76422389     1.5142477     -0.16309138     0.080834942   -0.18814759     10.8619        16.292849      21.723777      3844.485     
         6   0             -832.6272       1.0142303      0.76422254     0.76422217     1.514246       0.13989887    -0.069338916    0.16138828     10.8619        16.292849      21.723777      3844.485     
         7   0             -832.6272       1.0142305      0.76422261     0.76422248     1.5142464     -0.10765028     0.053353811   -0.12418363     10.8619        16.292849      21.723777      3844.485     
         8   0             -832.6272       1.0142306      0.76422268     0.76422268     1.5142464      0.067868519   -0.033636437    0.078290496    10.8619        16.292849      21.723777      3844.485     
         9   0             -832.6272       1.0142306      0.76422269     0.76422268     1.5142464     -0.048564619    0.02406879    -0.056021316    10.8619        16.292849      21.723777      3844.485     
        10   0             -832.6272       1.0142306      0.76422269     0.76422269     1.5142464      0.032311311   -0.016013344    0.037271854    10.8619        16.292849      21.723777      3844.485     
        11   0             -832.6272       1.0142306      0.7642227      0.76422269     1.5142465     -0.022455785    0.01112879    -0.025902799    10.8619        16.292849      21.723777      3844.485     
        12   0             -832.6272       1.0142306      0.7642227      0.7642227      1.5142465      0.012670303   -0.0062790994   0.014614919    10.8619        16.292849      21.723777      3844.485     
        13   0             -832.6272       1.0142306      0.7642227      0.76422271     1.5142465     -0.0072918504   0.0036135406  -0.0084106897   10.8619        16.292849      21.723777      3844.485     
        14   0             -832.6272       1.0142306      0.76422271     0.76422271     1.5142465      0.0040094767  -0.0019868012   0.0046243782   10.8619        16.292849      21.723777      3844.485     
        15   0             -832.6272       1.0142306      0.76422271     0.76422271     1.5142465     -0.0021933015   0.0010867008  -0.0025293465   10.8619        16.292849      21.723777      3844.485     
        16   0             -832.6272       1.0142306      0.76422271     0.76422271     1.5142465      0.0015520208  -0.00076882014  0.0017894631   10.8619        16.292849      21.723777      3844.485     
        17   0             -832.6272       1.0142306      0.76422271     0.76422271     1.5142465     -0.00091537373  0.00045330677 -0.0010550897   10.8619        16.292849      21.723777      3844.485     
        18   0             -832.6272       1.0142306      0.76422271     0.76422271     1.5142465      0.00053483171 -0.00026465789  0.00061599877  10.8619        16.292849      21.723777      3844.485     
        19   0             -832.6272       1.0142306      0.76422271     0.76422271     1.5142465     -0.00025986219  0.0001284214  -0.00029890199  10.8619        16.292849      21.723777      3844.485     
        20   0             -832.6272       1.0142306      0.76422271     0.76422271     1.5142465      0.00011712593 -5.7659119e-05  0.00013419846  10.8619        16.292849      21.723777      3844.485     
        21   0             -832.6272       1.0142306      0.76422271     0.76422271     1.5142465     -5.8571613e-05  2.8544129e-05 -6.6430263e-05  10.8619        16.292849      21.723777      3844.485     
        22   0             -832.6272       1.0142306      0.76422271     0.76422271     1.5142465      2.9716103e-05 -1.4222455e-05  3.3095218e-05  10.8619        16.292849      21.723777      3844.485     
        23   0             -832.6272       1.0142306      0.76422271     0.76422271     1.5142465     -1.2680155e-05  5.7014789e-06 -1.3260938e-05  10.8619        16.292849      21.723777      3844.485     
        24   0             -832.6272       1.0142306      0.76422271     0.76422271     1.5142465      7.0835487e-06 -2.5451397e-06  5.9081814e-06  10.8619        16.292849      21.723777      3844.485     
        25   0             -832.6272       1.0142306      0.76422271     0.76422271     1.5142465     -9.2209146e-07 -3.8828498e-07  9.1755091e-07  10.8619        16.292849      21.723777      3844.485     
        26   0             -832.6272       1.0142306      0.76422271     0.76422271     1.5142465     -4.1492438e-06  3.6166667e-06 -8.443582e-06   10.8619        16.292849      21.723777      3844.485     
        27   0             -832.6272       1.0142306      0.76422271     0.76422271     1.5142465      6.2433506e-06 -4.6352654e-06  1.0814028e-05  10.8619        16.292849      21.723777      3844.485     
        28   0             -832.6272       1.0142306      0.76422271     0.76422271     1.5142465     -6.1504984e-06  4.3393617e-06 -1.0121032e-05  10.8619        16.292849      21.723777      3844.485     
        29   0             -832.6272       1.0142306      0.76422271     0.76422271     1.5142465      8.7401491e-06 -6.0201312e-06  1.4039398e-05  10.8619        16.292849      21.723777      3844.485     
        30   0             -832.6272       1.0142306      0.76422271     0.76422271     1.5142465     -7.6326622e-06  5.2074407e-06 -1.2143528e-05  10.8619        16.292849      21.723777      3844.485     
        31   0             -832.6272       1.0142306      0.76422271     0.76422271     1.5142465      6.7665475e-06 -4.5933059e-06  1.07111e-05    10.8619        16.292849      21.723777      3844.485     
        32   0             -832.6272       1.0142306      0.76422271     0.76422271     1.5142465     -6.8536409e-06  4.6387279e-06 -1.0816732e-05  10.8619        16.292849      21.723777      3844.485     
        33   0             -832.6272       1.0142306      0.76422271     0.76422271     1.5142465      6.5113413e-06 -4.4003764e-06  1.0260823e-05  10.8619        16.292849      21.723777      3844.485     
        34   0             -832.6272       1.0142306      0.76422271     0.76422271     1.5142465     -5.0699264e-06  3.4237481e-06 -7.9835165e-06  10.8619        16.292849      21.723777      3844.485     
        35   0             -832.6272       1.0142306      0.76422271     0.76422271     1.5142465      6.6964661e-06 -4.5202878e-06  1.0540291e-05  10.8619        16.292849      21.723777      3844.485     
        36   0             -832.6272       1.0142306      0.76422271     0.76422271     1.5142465     -7.0633681e-06  4.7673757e-06 -1.1116284e-05  10.8619        16.292849      21.723777      3844.485     
        37   0             -832.6272       1.0142306      0.76422271     0.76422271     1.5142465      6.4583536e-06 -4.3588779e-06  1.0163612e-05  10.8619        16.292849      21.723777      3844.485     
        38   0             -832.6272       1.0142306      0.76422271     0.76422271     1.5142465     -5.361274e-06   3.6182784e-06 -8.4368259e-06  10.8619        16.292849      21.723777      3844.485     
        39   0             -832.6272       1.0142306      0.76422271     0.76422271     1.5142465      4.9458466e-06 -3.3377562e-06  7.782952e-06   10.8619        16.292849      21.723777      3844.485     
        40   0             -832.6272       1.0142306      0.76422271     0.76422271     1.5142465     -3.2611207e-06  2.2005357e-06 -5.1314111e-06  10.8619        16.292849      21.723777      3844.485     
        41   0             -832.6272       1.0142306      0.76422271     0.76422271     1.5142465      2.1605811e-06 -1.4576963e-06  3.399213e-06   10.8619        16.292849      21.723777      3844.485     
        42   0             -832.6272       1.0142306      0.76422271     0.76422271     1.5142465     -1.8031702e-06  1.2162916e-06 -2.8364309e-06  10.8619        16.292849      21.723777      3844.485     
        43   0             -832.6272       1.0142306      0.76422271     0.76422271     1.5142465      5.7067381e-07 -3.8455573e-07  8.971452e-07   10.8619        16.292849      21.723777      3844.485     
        44   0             -832.6272       1.0142306      0.76422271     0.76422271     1.5142465     -3.2902683e-07  2.2126101e-07 -5.1660119e-07  10.8619        16.292849      21.723777      3844.485     
        45   0             -832.6272       1.0142306      0.76422271     0.76422271     1.5142465      1.4564259e-07 -9.7497898e-08  2.2785124e-07  10.8619        16.292849      21.723777      3844.485     
        46   0             -832.6272       1.0142306      0.76422271     0.76422271     1.5142465     -6.3984678e-08  4.2246975e-08 -9.8847643e-08  10.8619        16.292849      21.723777      3844.485     
        47   0             -832.6272       1.0142306      0.76422271     0.76422271     1.5142465      2.4935991e-08 -1.6097867e-08  3.7647327e-08  10.8619        16.292849      21.723777      3844.485     
        48   0             -832.6272       1.0142306      0.76422271     0.76422271     1.5142465     -1.4283539e-08  8.6326692e-09 -2.0149409e-08  10.8619        16.292849      21.723777      3844.485     
        49   0             -832.6272       1.0142306      0.76422271     0.76422271     1.5142465      5.7132498e-09 -3.0396271e-09  7.0750965e-09  10.8619        16.292849      21.723777      3844.485     
        50   0             -832.6272       1.0142306      0.76422271     0.76422271     1.5142465     -3.0772338e-09  1.3695802e-09 -2.9833842e-09  10.8619        16.292849      21.723777      3844.485     
        51   0             -832.6272       1.0142306      0.76422271     0.76422271     1.5142465      2.3138171e-09 -6.927141e-10   1.192172e-09   10.8619        16.292849      21.723777      3844.485     
        52   0             -832.6272       1.0142306      0.76422271     0.76422271     1.5142465     -9.8568252e-10  4.3832397e-11  1.7490618e-10  10.8619        16.292849      21.723777      3844.485     
Loop time of 0.017646 on 1 procs for 48 steps with 192 atoms

88.5% CPU use with 1 MPI tasks x 1 OpenMP threads

Minimization stats:
  Stopping criterion = force tolerance
  Energy initial, next-to-last, final = 
     -832.627199814203  -832.627199982311  -832.627199982311
  Force two-norm initial, final = 0.002964599 9.593999e-11
  Force max component initial, final = 0.00032575363 1.426117e-11
  Final line search alpha, max atom move = 1 1.426117e-11
  Iterations, force evaluations = 48 96

MPI task timing breakdown:
Section |  min time  |  avg time  |  max time  |%varavg| %total
---------------------------------------------------------------
Pair    | 0.016659   | 0.016659   | 0.016659   |   0.0 | 94.41
Neigh   | 0          | 0          | 0          |   0.0 |  0.00
Comm    | 0.000187   | 0.000187   | 0.000187   |   0.0 |  1.06
Output  | 0.000482   | 0.000482   | 0.000482   |   0.0 |  2.73
Modify  | 0          | 0          | 0          |   0.0 |  0.00
Other   |            | 0.000318   |            |       |  1.80

Nlocal:            192 ave         192 max         192 min
Histogram: 1 0 0 0 0 0 0 0 0 0
Nghost:            634 ave         634 max         634 min
Histogram: 1 0 0 0 0 0 0 0 0 0
Neighs:              0 ave           0 max           0 min
Histogram: 1 0 0 0 0 0 0 0 0 0
FullNghs:         5376 ave        5376 max        5376 min
Histogram: 1 0 0 0 0 0 0 0 0 0

Total # of neighbors = 5376
Ave neighs/atom = 28
Neighbor list builds = 0
Dangerous builds = 0
OMP_NUM_THREADS environment is not set. Defaulting to 1 thread. (src/comm.cpp:98)
  using 1 OpenMP thread(s) per MPI task
Loaded 1 plugins from F:\Lammps\LAMMPS 64-bit 2Aug2023\plugins

The 'box' command has been removed and will be ignored

Reading restart file ...
  restart file = 2 Aug 2023, LAMMPS = 2 Aug 2023
  restoring atom style atomic from restart
  triclinic box = (-0.00094977841 -0.0014246676 -0.0018995568) to (10.86095 16.291425 21.7219) with tilt (0 0 0)
  1 by 1 by 1 MPI processor grid
  pair style sw stores no restart info
  192 atoms
  read_restart CPU = 0.000 seconds
Reading sw potential file Si.sw with DATE: 2007-06-11
Changing box ...
  triclinic box = (-0.00094977841 -0.0014246676 -0.0018995568) to (10.86095 16.291425 21.721921) with tilt (0 0 0)
Neighbor list info ...
  update: every = 1 steps, delay = 0 steps, check = yes
  max neighbors/atom: 2000, page size: 100000
  master list distance cutoff = 4.77118
  ghost atom cutoff = 4.77118
  1 neighbor lists, perpetual/occasional/extra = 1 0 0
  (1) pair sw, perpetual
      attributes: full, newton on
      pair build: full/nsq
      stencil: none
      bin: none
Setting up cg style minimization ...
  Unit style    : metal
  Current step  : 4
Per MPI rank memory allocation (min/avg/max) = 4.178 | 4.178 | 4.178 Mbytes
   Step          Temp          PotEng         Press           Pxx            Pyy            Pzz            Pxy            Pxz            Pyz             Lx             Ly             Lz           Volume    
         4   0             -832.6272      -1.0141644     -0.76415678    -0.76415873    -1.5141776      0.66241936    -0.3283505      0.76423934     10.8619        16.292849      21.723821      3844.4927    
         5   0             -832.6272      -1.0142256     -0.76421714    -0.7642178     -1.5142419     -0.16309036     0.080834727   -0.18814709     10.8619        16.292849      21.723821      3844.4927    
         6   0             -832.6272      -1.0142274     -0.76421914    -0.76421952    -1.5142435      0.13989768    -0.06933881     0.16138803     10.8619        16.292849      21.723821      3844.4927    
         7   0             -832.6272      -1.0142272     -0.76421907    -0.76421921    -1.5142432     -0.10764894     0.053353737   -0.12418346     10.8619        16.292849      21.723821      3844.4927    
         8   0             -832.6272      -1.0142271     -0.764219      -0.76421901    -1.5142431      0.067867302   -0.033636457    0.078290543    10.8619        16.292849      21.723821      3844.4927    
         9   0             -832.6272      -1.0142271     -0.76421899    -0.76421901    -1.5142432     -0.048563534    0.024068911   -0.056021597    10.8619        16.292849      21.723821      3844.4927    
        10   0             -832.6272      -1.014227      -0.76421899    -0.764219      -1.5142431      0.032310328   -0.016013454    0.03727211     10.8619        16.292849      21.723821      3844.4927    
        11   0             -832.6272      -1.014227      -0.76421898    -0.76421899    -1.5142431     -0.022454909    0.011128923   -0.025903111    10.8619        16.292849      21.723821      3844.4927    
        12   0             -832.6272      -1.014227      -0.76421898    -0.76421898    -1.5142431      0.012669667   -0.0062792188   0.014615197    10.8619        16.292849      21.723821      3844.4927    
        13   0             -832.6272      -1.014227      -0.76421898    -0.76421898    -1.5142431     -0.0072913362   0.0036136557  -0.0084109582   10.8619        16.292849      21.723821      3844.4927    
        14   0             -832.6272      -1.014227      -0.76421898    -0.76421898    -1.5142431      0.004009048   -0.0019869176   0.0046246491   10.8619        16.292849      21.723821      3844.4927    
        15   0             -832.6272      -1.014227      -0.76421898    -0.76421898    -1.5142431     -0.0021929045   0.0010868201  -0.0025296241   10.8619        16.292849      21.723821      3844.4927    
        16   0             -832.6272      -1.014227      -0.76421898    -0.76421898    -1.5142431      0.0015515616  -0.00076896658  0.0017898037   10.8619        16.292849      21.723821      3844.4927    
        17   0             -832.6272      -1.014227      -0.76421898    -0.76421898    -1.5142431     -0.00091493149  0.00045344834 -0.001055419    10.8619        16.292849      21.723821      3844.4927    
        18   0             -832.6272      -1.014227      -0.76421898    -0.76421898    -1.5142431      0.00053432325 -0.0002648184   0.0006163722   10.8619        16.292849      21.723821      3844.4927    
        19   0             -832.6272      -1.014227      -0.76421898    -0.76421898    -1.5142431     -0.00025940318  0.00012856619 -0.00029923919  10.8619        16.292849      21.723821      3844.4927    
        20   0             -832.6272      -1.014227      -0.76421898    -0.76421898    -1.5142431      0.00011663841 -5.7812258e-05  0.00013455557  10.8619        16.292849      21.723821      3844.4927    
        21   0             -832.6272      -1.014227      -0.76421898    -0.76421898    -1.5142431     -5.7964766e-05  2.873478e-05  -6.6875148e-05  10.8619        16.292849      21.723821      3844.4927    
        22   0             -832.6272      -1.014227      -0.76421898    -0.76421898    -1.5142431      2.9082705e-05 -1.4421321e-05  3.3559521e-05  10.8619        16.292849      21.723821      3844.4927    
        23   0             -832.6272      -1.014227      -0.76421898    -0.76421898    -1.5142431     -1.1948959e-05  5.9309684e-06 -1.3796948e-05  10.8619        16.292849      21.723821      3844.4927    
        24   0             -832.6272      -1.014227      -0.76421898    -0.76421898    -1.5142431      5.8719882e-06 -2.9253376e-06  6.7960755e-06  10.8619        16.292849      21.723821      3844.4927    
        25   0             -832.6272      -1.014227      -0.76421898    -0.76421898    -1.5142431      1.3868926e-07 -5.5395165e-08  1.4021605e-07  10.8619        16.292849      21.723821      3844.4927    
        26   0             -832.6272      -1.014227      -0.76421898    -0.76421898    -1.5142431     -6.1073499e-06  3.002107e-06  -7.0084737e-06  10.8619        16.292849      21.723821      3844.4927    
        27   0             -832.6272      -1.014227      -0.76421898    -0.76421898    -1.5142431      8.1769799e-06 -4.0281097e-06  9.3964094e-06  10.8619        16.292849      21.723821      3844.4927    
        28   0             -832.6272      -1.014227      -0.76421898    -0.76421898    -1.5142431     -7.7703987e-06  3.8305878e-06 -8.9333049e-06  10.8619        16.292849      21.723821      3844.4927    
        29   0             -832.6272      -1.014227      -0.76421898    -0.76421898    -1.5142431      1.0858373e-05 -5.3547659e-06  1.2486273e-05  10.8619        16.292849      21.723821      3844.4927    
        30   0             -832.6272      -1.014227      -0.76421898    -0.76421898    -1.5142431     -9.4198628e-06  4.64607e-06   -1.0833125e-05  10.8619        16.292849      21.723821      3844.4927    
        31   0             -832.6272      -1.014227      -0.76421898    -0.76421898    -1.5142431      8.3218858e-06 -4.104808e-06   9.5709341e-06  10.8619        16.292849      21.723821      3844.4927    
        32   0             -832.6272      -1.014227      -0.76421898    -0.76421898    -1.5142431     -8.4119983e-06  4.14945e-06   -9.6748865e-06  10.8619        16.292849      21.723821      3844.4927    
        33   0             -832.6272      -1.014227      -0.76421898    -0.76421898    -1.5142431      7.9839834e-06 -3.9384394e-06  9.182729e-06   10.8619        16.292849      21.723821      3844.4927    
        34   0             -832.6272      -1.014227      -0.76421898    -0.76421898    -1.5142431     -6.2140616e-06  3.0653825e-06 -7.1471242e-06  10.8619        16.292849      21.723821      3844.4927    
        35   0             -832.6272      -1.014227      -0.76421898    -0.76421898    -1.5142431      8.2066295e-06 -4.0484002e-06  9.4390473e-06  10.8619        16.292849      21.723821      3844.4927    
        36   0             -832.6272      -1.014227      -0.76421898    -0.76421898    -1.5142431     -8.6599304e-06  4.2720928e-06 -9.9604403e-06  10.8619        16.292849      21.723821      3844.4927    
        37   0             -832.6272      -1.014227      -0.76421898    -0.76421898    -1.5142431      7.9282516e-06 -3.9111222e-06  9.1188143e-06  10.8619        16.292849      21.723821      3844.4927    
        38   0             -832.6272      -1.014227      -0.76421898    -0.76421898    -1.5142431     -6.5947597e-06  3.2532189e-06 -7.5850479e-06  10.8619        16.292849      21.723821      3844.4927    
        39   0             -832.6272      -1.014227      -0.76421898    -0.76421898    -1.5142431      6.1077957e-06 -3.0129659e-06  7.0248537e-06  10.8619        16.292849      21.723821      3844.4927    
        40   0             -832.6272      -1.014227      -0.76421898    -0.76421898    -1.5142431     -4.0424507e-06  1.9941231e-06 -4.6493382e-06  10.8619        16.292849      21.723821      3844.4927    
        41   0             -832.6272      -1.014227      -0.76421898    -0.76421898    -1.5142431      2.6877931e-06 -1.325816e-06   3.091234e-06   10.8619        16.292849      21.723821      3844.4927    
        42   0             -832.6272      -1.014227      -0.76421898    -0.76421898    -1.5142431     -2.2500092e-06  1.1097858e-06 -2.5875922e-06  10.8619        16.292849      21.723821      3844.4927    
[...]
        35   0             -832.6272      -1.8130284e-07 -5.7741565e-07  1.7659818e-07 -1.4309103e-07  0.56452196    -7.8869897e-06  1.916627e-05   10.8619        16.292849      21.723799      3844.4888    
        36   0             -832.6272      -1.8126358e-07 -5.7730673e-07  1.7662481e-07 -1.4310882e-07  0.56446785     7.0365911e-06 -1.7099618e-05  10.8619        16.292849      21.723799      3844.4888    
        37   0             -832.6272      -1.8127673e-07 -5.7738163e-07  1.7662597e-07 -1.4307454e-07  0.56451024    -4.6521351e-06  1.130517e-05   10.8619        16.292849      21.723799      3844.4888    
        38   0             -832.6272      -1.81273e-07   -5.7733828e-07  1.7661926e-07 -1.4309997e-07  0.56448358     2.7000199e-06 -6.5613969e-06  10.8619        16.292849      21.723799      3844.4888    
        39   0             -832.6272      -1.8125866e-07 -5.7734614e-07  1.7664345e-07 -1.4307329e-07  0.56449907    -1.5726618e-06  3.8217797e-06  10.8619        16.292849      21.723799      3844.4888    
        40   0             -832.6272      -1.8127176e-07 -5.7734946e-07  1.7662692e-07 -1.4309275e-07  0.5644906      7.6259397e-07 -1.8533437e-06  10.8619        16.292849      21.723799      3844.4888    
        41   0             -832.6272      -1.8127215e-07 -5.7735354e-07  1.7662911e-07 -1.4309202e-07  0.56449483    -4.0390933e-07  9.817544e-07   10.8619        16.292849      21.723799      3844.4888    
        42   0             -832.6272      -1.8132661e-07 -5.7740388e-07  1.7656676e-07 -1.4314271e-07  0.56449232     2.8758807e-07 -6.9909192e-07  10.8619        16.292849      21.723799      3844.4888    
        43   0             -832.6272      -1.8130064e-07 -5.7737629e-07  1.7659413e-07 -1.4311975e-07  0.56449368    -8.537568e-08   2.0755627e-07  10.8619        16.292849      21.723799      3844.4888    
        44   0             -832.6272      -1.8122183e-07 -5.7730265e-07  1.7668096e-07 -1.4304381e-07  0.56449319     4.7463269e-08 -1.1545335e-07  10.8619        16.292849      21.723799      3844.4888    
        45   0             -832.6272      -1.8128233e-07 -5.7736341e-07  1.7661858e-07 -1.4310216e-07  0.56449344    -2.0113551e-08  4.897024e-08   10.8619        16.292849      21.723799      3844.4888    
        46   0             -832.6272      -1.8126844e-07 -5.773439e-07   1.7662861e-07 -1.4309002e-07  0.56449334     7.8085713e-09 -1.9166507e-08  10.8619        16.292849      21.723799      3844.4888    
        47   0             -832.6272      -1.8130387e-07 -5.7738023e-07  1.7659154e-07 -1.4312291e-07  0.56449338    -2.3146347e-09  5.741971e-09   10.8619        16.292849      21.723799      3844.4888    
        48   0             -832.6272      -1.8128582e-07 -5.773613e-07   1.7660704e-07 -1.4310319e-07  0.56449337     7.0038435e-11 -3.4283607e-10  10.8619        16.292849      21.723799      3844.4888    
        49   0             -832.6272      -1.8126269e-07 -5.7734736e-07  1.7663813e-07 -1.4307885e-07  0.56449337     8.7551466e-10 -1.9806182e-09  10.8619        16.292849      21.723799      3844.4888    
        50   0             -832.6272      -1.8128277e-07 -5.7736135e-07  1.7661139e-07 -1.4309835e-07  0.56449337    -1.2164986e-09  2.7619909e-09  10.8619        16.292849      21.723799      3844.4888    
        51   0             -832.6272      -1.8129732e-07 -5.7737396e-07  1.7660055e-07 -1.4311855e-07  0.56449336     1.8484568e-09 -4.0557783e-09  10.8619        16.292849      21.723799      3844.4888    
        52   0             -832.6272      -1.8126529e-07 -5.7734197e-07  1.7663134e-07 -1.4308523e-07  0.56449337    -1.4817168e-09  3.171364e-09   10.8619        16.292849      21.723799      3844.4888    
Loop time of 0.017225 on 1 procs for 48 steps with 192 atoms

90.7% CPU use with 1 MPI tasks x 1 OpenMP threads

Minimization stats:
  Stopping criterion = force tolerance
  Energy initial, next-to-last, final = 
     -832.627199813112  -832.627199983438  -832.627199983438
  Force two-norm initial, final = 0.0029919461 9.5984635e-11
  Force max component initial, final = 0.00032575326 1.4355141e-11
  Final line search alpha, max atom move = 1 1.4355141e-11
  Iterations, force evaluations = 48 96

MPI task timing breakdown:
Section |  min time  |  avg time  |  max time  |%varavg| %total
---------------------------------------------------------------
Pair    | 0.016168   | 0.016168   | 0.016168   |   0.0 | 93.86
Neigh   | 0          | 0          | 0          |   0.0 |  0.00
Comm    | 0.000182   | 0.000182   | 0.000182   |   0.0 |  1.06
Output  | 0.000574   | 0.000574   | 0.000574   |   0.0 |  3.33
Modify  | 0          | 0          | 0          |   0.0 |  0.00
Other   |            | 0.000301   |            |       |  1.75

Nlocal:            192 ave         192 max         192 min
Histogram: 1 0 0 0 0 0 0 0 0 0
Nghost:            634 ave         634 max         634 min
Histogram: 1 0 0 0 0 0 0 0 0 0
Neighs:              0 ave           0 max           0 min
Histogram: 1 0 0 0 0 0 0 0 0 0
FullNghs:         5376 ave        5376 max        5376 min
Histogram: 1 0 0 0 0 0 0 0 0 0

Total # of neighbors = 5376
Ave neighs/atom = 28
Neighbor list builds = 0
Dangerous builds = 0
OMP_NUM_THREADS environment is not set. Defaulting to 1 thread. (src/comm.cpp:98)
  using 1 OpenMP thread(s) per MPI task
Loaded 1 plugins from F:\Lammps\LAMMPS 64-bit 2Aug2023\plugins

The 'box' command has been removed and will be ignored

Reading restart file ...
  restart file = 2 Aug 2023, LAMMPS = 2 Aug 2023
  restoring atom style atomic from restart
  triclinic box = (-0.00094977841 -0.0014246676 -0.0018995568) to (10.86095 16.291425 21.7219) with tilt (0 0 0)
  1 by 1 by 1 MPI processor grid
  pair style sw stores no restart info
  192 atoms
  read_restart CPU = 0.000 seconds
Reading sw potential file Si.sw with DATE: 2007-06-11
Changing box ...
  triclinic box = (-0.00094977841 -0.0014246676 -0.0018995568) to (10.86095 16.291425 21.7219) with tilt (1.6292849e-05 0 0)
Neighbor list info ...
  update: every = 1 steps, delay = 0 steps, check = yes
  max neighbors/atom: 2000, page size: 100000
  master list distance cutoff = 4.77118
  ghost atom cutoff = 4.77118
  1 neighbor lists, perpetual/occasional/extra = 1 0 0
  (1) pair sw, perpetual
      attributes: full, newton on
      pair build: full/nsq
      stencil: none
      bin: none
Setting up cg style minimization ...
  Unit style    : metal
  Current step  : 4
Per MPI rank memory allocation (min/avg/max) = 4.178 | 4.178 | 4.178 Mbytes
   Step          Temp          PotEng         Press           Pxx            Pyy            Pzz            Pxy            Pxz            Pyz             Lx             Ly             Lz           Volume    
         4   0             -832.6272       6.2040871e-05  6.1154501e-05  5.9697356e-05  6.5270756e-05 -0.43514385    -0.32835172     0.76424179     10.8619        16.292849      21.723799      3844.4888    
         5   0             -832.6272       1.2208092e-06  1.2042467e-06  1.352755e-06   1.1054258e-06 -0.59666284     0.081635674   -0.19000904     10.8619        16.292849      21.723799      3844.4888    
         6   0             -832.6272      -5.7812551e-07 -7.3295669e-07 -4.0363551e-07 -5.9778432e-07 -0.53639855    -0.07128926     0.16592546     10.8619        16.292849      21.723799      3844.4888    
         7   0             -832.6272      -2.9997948e-07 -6.9581398e-07 -3.1685844e-08 -1.7243863e-07 -0.58691069     0.056877382   -0.13238286     10.8619        16.292849      21.723799      3844.4888    
         8   0             -832.6272      -2.1996868e-07 -5.9214396e-07  1.305728e-07  -1.9833489e-07 -0.54978819    -0.037307412    0.08683366     10.8619        16.292849      21.723799      3844.4888    
         9   0             -832.6272      -2.0230414e-07 -6.0569501e-07  1.5778668e-07 -1.5900408e-07 -0.57555309     0.028057173   -0.065303685    10.8619        16.292849      21.723799      3844.4888    
        10   0             -832.6272      -2.0591347e-07 -5.8829188e-07  1.4648711e-07 -1.7593565e-07 -0.5566204     -0.019971907    0.046485188    10.8619        16.292849      21.723799      3844.4888    
        11   0             -832.6272      -1.8989198e-07 -5.9003225e-07  1.6931369e-07 -1.4895739e-07 -0.57034418     0.014841511   -0.034544176    10.8619        16.292849      21.723799      3844.4888    
        12   0             -832.6272      -1.9166924e-07 -5.8050844e-07  1.6627722e-07 -1.6077649e-07 -0.56094948    -0.0089892536   0.020922955    10.8619        16.292849      21.723799      3844.4888    
        13   0             -832.6272      -1.8582915e-07 -5.8464881e-07  1.7645076e-07 -1.4928941e-07 -0.56662987     0.005418998   -0.012613118    10.8619        16.292849      21.723799      3844.4888    
        14   0             -832.6272      -1.8561851e-07 -5.789867e-07   1.7279729e-07 -1.5066613e-07 -0.56328562    -0.0030630007   0.0071294951   10.8619        16.292849      21.723799      3844.4888    
        15   0             -832.6272      -1.8350465e-07 -5.8081493e-07  1.756865e-07  -1.4538553e-07 -0.56516407     0.0017006363  -0.0039585719   10.8619        16.292849      21.723799      3844.4888    
        16   0             -832.6272      -1.8333342e-07 -5.7910115e-07  1.7406498e-07 -1.4496408e-07 -0.56401412    -0.0012148257   0.0028279081   10.8619        16.292849      21.723799      3844.4888    
        17   0             -832.6272      -1.8216847e-07 -5.7934465e-07  1.7581376e-07 -1.4297452e-07 -0.56477803     0.00072125762 -0.001679112    10.8619        16.292849      21.723799      3844.4888    
        18   0             -832.6272      -1.8191109e-07 -5.7818227e-07  1.7552649e-07 -1.4307749e-07 -0.56432624    -0.00042296874  0.00098489645  10.8619        16.292849      21.723799      3844.4888    
        19   0             -832.6272      -1.81529e-07   -5.7813907e-07  1.7619318e-07 -1.4264112e-07 -0.56457502     0.00020624009 -0.00048041695  10.8619        16.292849      21.723799      3844.4888    
        20   0             -832.6272      -1.814586e-07  -5.7771892e-07  1.7626157e-07 -1.4291847e-07 -0.56445612    -9.3551318e-05  0.00021815644  10.8619        16.292849      21.723799      3844.4888    
        21   0             -832.6272      -1.8140086e-07 -5.7765943e-07  1.7646144e-07 -1.4300458e-07 -0.56451254     4.7495403e-05 -0.00011106278  10.8619        16.292849      21.723799      3844.4888    
        22   0             -832.6272      -1.8134491e-07 -5.7749783e-07  1.7649545e-07 -1.4303236e-07 -0.56448315    -2.473018e-05   5.8099208e-05  10.8619        16.292849      21.723799      3844.4888    
        23   0             -832.6272      -1.8136554e-07 -5.7751499e-07  1.7651848e-07 -1.4310011e-07 -0.56449842     1.1445987e-05 -2.7263719e-05  10.8619        16.292849      21.723799      3844.4888    
        24   0             -832.6272      -1.8135271e-07 -5.7745569e-07  1.7651697e-07 -1.4311942e-07 -0.56448933    -7.9500755e-06  1.9536679e-05  10.8619        16.292849      21.723799      3844.4888    
        25   0             -832.6272      -1.8133607e-07 -5.7742903e-07  1.7654987e-07 -1.4312906e-07 -0.56449525     2.7846486e-06 -7.3860687e-06  10.8619        16.292849      21.723799      3844.4888    
        26   0             -832.6272      -1.8129232e-07 -5.7737181e-07  1.7660058e-07 -1.4310574e-07 -0.56449171    -5.12773e-07    2.8645845e-06  10.8619        16.292849      21.723799      3844.4888    
        27   0             -832.6272      -1.8128675e-07 -5.7736654e-07  1.7661029e-07 -1.4310401e-07 -0.56449434    -1.1900676e-06  1.1190361e-06  10.8619        16.292849      21.723799      3844.4888    
        28   0             -832.6272      -1.8129691e-07 -5.7737408e-07  1.7660143e-07 -1.4311809e-07 -0.56449284     1.7245148e-06 -2.6304508e-06  10.8619        16.292849      21.723799      3844.4888    
        29   0             -832.6272      -1.8127724e-07 -5.7735853e-07  1.7662672e-07 -1.4309989e-07 -0.56449384    -2.8068394e-06  4.7234669e-06  10.8619        16.292849      21.723799      3844.4888    
        30   0             -832.6272      -1.8128629e-07 -5.7736668e-07  1.7660634e-07 -1.4309854e-07 -0.56449305     2.5729477e-06 -4.4611837e-06  10.8619        16.292849      21.723799      3844.4888    
        31   0             -832.6272      -1.8125105e-07 -5.7733389e-07  1.7665278e-07 -1.4307206e-07 -0.5644936     -2.3385536e-06  4.1131175e-06  10.8619        16.292849      21.723799      3844.4888    
        32   0             -832.6272      -1.8124253e-07 -5.773273e-07   1.766581e-07  -1.4305838e-07 -0.56449315     2.4043108e-06 -4.2625785e-06  10.8619        16.292849      21.723799      3844.4888    
        33   0             -832.6272      -1.8125047e-07 -5.7732912e-07  1.7664824e-07 -1.4307055e-07 -0.56449356    -2.3048513e-06  4.1024222e-06  10.8619        16.292849      21.723799      3844.4888    
        34   0             -832.6272      -1.8129822e-07 -5.7736632e-07  1.7659363e-07 -1.4312199e-07 -0.56449322     1.8079838e-06 -3.2239846e-06  10.8619        16.292849      21.723799      3844.4888    
        35   0             -832.6272      -1.8126579e-07 -5.7734547e-07  1.766335e-07  -1.4308539e-07 -0.56449355    -2.4099223e-06  4.3016858e-06  10.8619        16.292849      21.723799      3844.4888    
        36   0             -832.6272      -1.8130459e-07 -5.7738085e-07  1.7658887e-07 -1.4312178e-07 -0.56449317     2.600853e-06  -4.6439504e-06  10.8619        16.292849      21.723799      3844.4888    
        37   0             -832.6272      -1.8127161e-07 -5.7735066e-07  1.7662588e-07 -1.4309005e-07 -0.56449356    -2.5201661e-06  4.5004475e-06  10.8619        16.292849      21.723799      3844.4888    
        38   0             -832.6272      -1.8129864e-07 -5.7737725e-07  1.7659244e-07 -1.4311111e-07 -0.56449319     2.3055721e-06 -4.1175439e-06  10.8619        16.292849      21.723799      3844.4888    
        39   0             -832.6272      -1.8126937e-07 -5.7734456e-07  1.766259e-07  -1.4308945e-07 -0.56449357    -2.6511235e-06  4.7349857e-06  10.8619        16.292849      21.723799      3844.4888    
        40   0             -832.6272      -1.8123582e-07 -5.7731372e-07  1.7665735e-07 -1.4305107e-07 -0.56449319     2.3003051e-06 -4.1087668e-06  10.8619        16.292849      21.723799      3844.4888    
        41   0             -832.6272      -1.8126271e-07 -5.773415e-07   1.7663473e-07 -1.4308138e-07 -0.56449353    -2.173137e-06   3.882081e-06   10.8619        16.292849      21.723799      3844.4888    
        42   0             -832.6272      -1.8128962e-07 -5.7736456e-07  1.7659765e-07 -1.4310195e-07 -0.56449315     2.849121e-06  -5.0901721e-06  10.8619        16.292849      21.723799      3844.4888    
        43   0             -832.6272      -1.8128357e-07 -5.773669e-07   1.7660935e-07 -1.4309317e-07 -0.56449346    -1.1761459e-06  2.1016671e-06  10.8619        16.292849      21.723799      3844.4888    
        44   0             -832.6272      -1.8129754e-07 -5.7738008e-07  1.7660399e-07 -1.4311653e-07 -0.56449331     7.7937923e-07 -1.3930583e-06  10.8619        16.292849      21.723799      3844.4888    
        45   0             -832.6272      -1.8126834e-07 -5.7734896e-07  1.7663464e-07 -1.4309069e-07 -0.5644934     -3.6733113e-07  6.5694911e-07  10.8619        16.292849      21.723799      3844.4888    
        46   0             -832.6272      -1.8125423e-07 -5.7733809e-07  1.7665079e-07 -1.4307538e-07 -0.56449336     1.637073e-07  -2.9321161e-07  10.8619        16.292849      21.723799      3844.4888    
        47   0             -832.6272      -1.8132236e-07 -5.7739547e-07  1.7656727e-07 -1.4313889e-07 -0.56449337    -6.3693963e-08  1.1429817e-07  10.8619        16.292849      21.723799      3844.4888    
        48   0             -832.6272      -1.8129619e-07 -5.773685e-07   1.765926e-07  -1.4311267e-07 -0.56449337     3.5116586e-08 -6.3256313e-08  10.8619        16.292849      21.723799      3844.4888    
        49   0             -832.6272      -1.8128661e-07 -5.7735889e-07  1.7660677e-07 -1.4310769e-07 -0.56449337    -1.3029448e-08  2.3658189e-08  10.8619        16.292849      21.723799      3844.4888    
        50   0             -832.6272      -1.8124543e-07 -5.7731932e-07  1.7664805e-07 -1.4306503e-07 -0.56449337     6.1298979e-09 -1.1341757e-08  10.8619        16.292849      21.723799      3844.4888    
        51   0             -832.6272      -1.8129067e-07 -5.7736734e-07  1.7659831e-07 -1.4310297e-07 -0.56449337    -3.3884144e-09  6.6609628e-09  10.8619        16.292849      21.723799      3844.4888    
        52   0             -832.6272      -1.8126641e-07 -5.7734889e-07  1.766314e-07  -1.4308175e-07 -0.56449337     6.5615633e-10 -1.7120148e-09  10.8619        16.292849      21.723799      3844.4888    
Loop time of 0.017552 on 1 procs for 48 steps with 192 atoms

89.0% CPU use with 1 MPI tasks x 1 OpenMP threads

Minimization stats:
  Stopping criterion = force tolerance
  Energy initial, next-to-last, final = 
     -832.627199816291  -832.627199983438  -832.627199983438
  Force two-norm initial, final = 0.0029528617 9.5956757e-11
  Force max component initial, final = 0.00032575294 1.4280246e-11
  Final line search alpha, max atom move = 1 1.4280246e-11
  Iterations, force evaluations = 48 96

MPI task timing breakdown:
Section |  min time  |  avg time  |  max time  |%varavg| %total
---------------------------------------------------------------
Pair    | 0.016486   | 0.016486   | 0.016486   |   0.0 | 93.93
Neigh   | 0          | 0          | 0          |   0.0 |  0.00
Comm    | 0.000194   | 0.000194   | 0.000194   |   0.0 |  1.11
Output  | 0.000572   | 0.000572   | 0.000572   |   0.0 |  3.26
Modify  | 0          | 0          | 0          |   0.0 |  0.00
Other   |            | 0.0003     |            |       |  1.71

Nlocal:            192 ave         192 max         192 min
Histogram: 1 0 0 0 0 0 0 0 0 0
Nghost:            634 ave         634 max         634 min
Histogram: 1 0 0 0 0 0 0 0 0 0
Neighs:              0 ave           0 max           0 min
Histogram: 1 0 0 0 0 0 0 0 0 0
FullNghs:         5376 ave        5376 max        5376 min
Histogram: 1 0 0 0 0 0 0 0 0 0

Total # of neighbors = 5376
Ave neighs/atom = 28
Neighbor list builds = 0
Dangerous builds = 0
=========================================
Components of the Elastic Constant Tensor
=========================================
Elastic Constant C11all = 151.424479261338 GPa
Elastic Constant C22all = 151.424479245943 GPa
Elastic Constant C33all = 151.424479260682 GPa
Elastic Constant C12all = 76.4220842898964 GPa
Elastic Constant C13all = 76.4220842934589 GPa
Elastic Constant C23all = 76.4220842902073 GPa
Elastic Constant C44all = 56.4493368622115 GPa
Elastic Constant C55all = 56.4493367924321 GPa
Elastic Constant C66all = 56.4493369755954 GPa
Elastic Constant C14all = -1.58612019665969e-09 GPa
Elastic Constant C15all = 3.0707177743536e-08 GPa
Elastic Constant C16all = 7.89496289191193e-10 GPa
Elastic Constant C24all = 1.43737954387705e-08 GPa
Elastic Constant C25all = 2.24524340964266e-08 GPa
Elastic Constant C26all = -9.34960583912686e-09 GPa
Elastic Constant C34all = 1.53192462029816e-09 GPa
Elastic Constant C35all = -3.97439341273617e-09 GPa
Elastic Constant C36all = -2.92081269137483e-08 GPa
Elastic Constant C45all = -8.2545257238109e-08 GPa
Elastic Constant C46all = 1.92906607155497e-07 GPa
Elastic Constant C56all = -6.34690929546631e-08 GPa
=========================================
Average properties for a cubic crystal
=========================================
Bulk Modulus = 101.422882612788 GPa
Shear Modulus 1 = 56.4493368767463 GPa
Shear Modulus 2 = 37.5011974824002 GPa
Poisson Ratio = 0.335410300253944
Total wall time: 0:00:00
