 TITLE = "Tecplot data"
 VARIABLES = "X", "Y", "Z" "U", "V", "p", "dispX", "dispY"
 ZONE SOLUTIONTIME=11.900000, NODES=26114 , ELEMENTS=25916, DATAPACKING=POINT, ZONETYPE=FEQUADRILATERAL
0.4398250419 0.3531921943 0.0000000000 0.0000000000 0.0000000000 -271.1173865742 0.0862716514 -0.0003611963
0.4398250422 -0.3539145866 0.0000000000 0.0000000000 0.0000000000 -268.2118881830 0.0862716514 -0.0003611963
-0.2672817393 0.3531921942 0.0000000000 0.0000000000 0.0000000000 -90.5227371898 0.0862716514 -0.0003611963
-0.2672817390 -0.3539145871 0.0000000000 0.0000000000 0.0000000000 -116.5467705465 0.0862716514 -0.0003611963
0.6151303978 0.5302850326 0.0000000000 0.0779646834 0.1016281373 -261.3097876241 0.0848003119 -0.0000450534
0.6188166606 -0.5299359203 0.0000000000 0.0755902585 -0.1002836759 -258.8894400415 0.0884865744 0.0003941653
-0.4416756187 0.5308296056 0.0000000000 0.8211656665 0.4869704708 78.4509266792 0.0886544673 0.0004995199
-0.4441255846 -0.5306201756 0.0000000000 0.8180975842 -0.4847563207 82.6217913068 0.0862045010 -0.0002900894
1.1468561602 1.0605083029 0.0000000000 1.3237362027 0.1357284458 -336.0268203261 0.0861959885 -0.0001518690
1.1475523244 -1.0599420990 0.0000000000 1.3172942441 -0.1381898133 -328.3617313928 0.0868921519 0.0007180720
-0.9695634312 1.0622824230 0.0000000000 0.9262744862 0.1848330948 89.1279121346 0.0910967409 0.0016222516
-0.9752973022 -1.0601229744 0.0000000000 0.9249970322 -0.1836072002 90.9580812607 0.0853628691 0.0005371979
4.2816553072 3.3002850327 0.0000000000 1.0364636210 -0.0552358646 -30.6093605011 0.0816553072 0.0002850327
4.2789173767 -3.2996000325 0.0000000000 1.0364841868 0.0559672198 -31.0512293254 0.0789173767 0.0003999675
20.0000000000 4.7000000000 0.0000000000 0.9995283731 -0.0014955752 0.0036120862 0.0000000000 0.0000000000
20.0000000000 -4.7000000000 0.0000000000 0.9995259165 0.0014915298 0.0039701338 0.0000000000 0.0000000000
-10.0000000000 15.0000000000 0.0000000000 1.0000000000 0.0000000000 6.8343175471 0.0000000000 0.0000000000
20.0000000000 15.0000000000 0.0000000000 1.0008627803 0.0000000000 0.0001141302 0.0000000000 0.0000000000
20.0000000000 -15.0000000000 0.0000000000 1.0008633081 0.0000000000 0.0003460362 0.0000000000 0.0000000000
-10.0000000000 -15.0000000000 0.0000000000 1.0000000000 0.0000000000 7.0532742779 0.0000000000 0.0000000000
0.4527975875 -0.3404475649 0.0000000000 0.0000000000 0.0000000000 -268.2368933216 0.0862716514 -0.0003611963
0.4652575132 -0.3265049017 0.0000000000 0.0000000000 0.0000000000 -269.3445172288 0.0862716514 -0.0003611963
0.4771873928 -0.3121060970 0.0000000000 0.0000000000 0.0000000000 -269.9189518313 0.0862716514 -0.0003611963
0.4885705415 -0.2972712888 0.0000000000 0.0000000000 0.0000000000 -270.5835191597 0.0862716514 -0.0003611963
0.4993910387 -0.2820212251 0.0000000000 0.0000000000 0.0000000000 -270.8925387082 0.0862716514 -0.0003611963
0.5096337512 -0.2663772343 0.0000000000 0.0000000000 0.0000000000 -270.9192988693 0.0862716514 -0.0003611963
0.5192843534 -0.2503611960 0.0000000000 0.0000000000 0.0000000000 -270.5034922940 0.0862716514 -0.0003611963
0.5283293483 -0.2339955102 0.0000000000 0.0000000000 0.0000000000 -269.6251983939 0.0862716514 -0.0003611963
0.5367560855 -0.2173030656 0.0000000000 0.0000000000 0.0000000000 -268.1747931248 0.0862716514 -0.0003611963
0.5445527794 -0.2003072082 0.0000000000 0.0000000000 0.0000000000 -266.3086817513 0.0862716514 -0.0003611963
0.5517085258 -0.1830317082 0.0000000000 0.0000000000 0.0000000000 -263.4432894453 0.0862716514 -0.0003611963
0.5582133166 -0.1655007270 0.0000000000 0.0000000000 0.0000000000 -261.7630505540 0.0862716514 -0.0003611963
0.5640580544 -0.1477387833 0.0000000000 0.0000000000 0.0000000000 -254.5063270521 0.0862716514 -0.0003611963
0.5692345646 -0.1297707186 0.0000000000 0.0000000000 0.0000000000 -253.6221654165 0.0862716514 -0.0003611963
0.5737356075 -0.1116216630 0.0000000000 0.0000000000 0.0000000000 -249.9953797401 0.0862716514 -0.0003611963
0.5775548880 -0.0933169996 0.0000000000 0.0000000000 0.0000000000 -246.5512690349 0.0862716514 -0.0003611963
0.5806870645 -0.0748823292 0.0000000000 0.0000000000 0.0000000000 -243.3648265813 0.0862716514 -0.0003611963
0.5831277564 -0.0563434341 0.0000000000 0.0000000000 0.0000000000 -240.7560731671 0.0862716514 -0.0003611963
0.5848735500 -0.0377262429 0.0000000000 0.0000000000 0.0000000000 -238.8500573252 0.0862716514 -0.0003611963
0.5859220038 -0.0190567932 0.0000000000 0.0000000000 0.0000000000 -237.8045056521 0.0862716514 -0.0003611963
0.5862716514 -0.0003611961 0.0000000000 0.0000000000 0.0000000000 -237.6904662946 0.0862716514 -0.0003611963
0.5859220038 0.0183344010 0.0000000000 0.0000000000 0.0000000000 -238.5301751231 0.0862716514 -0.0003611963
0.5848735500 0.0370038507 0.0000000000 0.0000000000 0.0000000000 -240.2834618373 0.0862716514 -0.0003611963
0.5831277563 0.0556210419 0.0000000000 0.0000000000 0.0000000000 -242.8413967819 0.0862716514 -0.0003611963
0.5806870645 0.0741599370 0.0000000000 0.0000000000 0.0000000000 -246.0585237051 0.0862716514 -0.0003611963
0.5775548880 0.0925946074 0.0000000000 0.0000000000 0.0000000000 -249.7408124726 0.0862716514 -0.0003611963
0.5737356074 0.1108992708 0.0000000000 0.0000000000 0.0000000000 -253.6816685295 0.0862716514 -0.0003611963
0.5692345645 0.1290483264 0.0000000000 0.0000000000 0.0000000000 -257.6686512853 0.0862716514 -0.0003611963
0.5640580542 0.1470163910 0.0000000000 0.0000000000 0.0000000000 -261.5033762097 0.0862716514 -0.0003611963
0.5582133165 0.1647783348 0.0000000000 0.0000000000 0.0000000000 -265.0164987901 0.0862716514 -0.0003611963
0.5517085257 0.1823093160 0.0000000000 0.0000000000 0.0000000000 -268.0731816442 0.0862716514 -0.0003611963
0.5445527793 0.1995848160 0.0000000000 0.0000000000 0.0000000000 -270.5881121516 0.0862716514 -0.0003611963
0.5367560853 0.2165806734 0.0000000000 0.0000000000 0.0000000000 -272.5088925964 0.0862716514 -0.0003611963
0.5283293481 0.2332731179 0.0000000000 0.0000000000 0.0000000000 -273.8461309480 0.0862716514 -0.0003611963
0.5192843532 0.2496388038 0.0000000000 0.0000000000 0.0000000000 -274.6047659812 0.0862716514 -0.0003611963
0.5096337509 0.2656548420 0.0000000000 0.0000000000 0.0000000000 -274.8910975083 0.0862716514 -0.0003611963
0.4993910385 0.2812988328 0.0000000000 0.0000000000 0.0000000000 -274.7018819675 0.0862716514 -0.0003611963
0.4885705412 0.2965488965 0.0000000000 0.0000000000 0.0000000000 -274.2557270396 0.0862716514 -0.0003611963
0.4771873926 0.3113837047 0.0000000000 0.0000000000 0.0000000000 -273.4325259783 0.0862716514 -0.0003611963
0.4652575129 0.3257825094 0.0000000000 0.0000000000 0.0000000000 -272.6984528296 0.0862716514 -0.0003611963
0.4527975873 0.3397251726 0.0000000000 0.0000000000 0.0000000000 -271.5524376222 0.0862716514 -0.0003611963
0.4249124372 0.3675007591 0.0000000000 0.0000000000 0.0000000000 -270.0887547635 0.0862716514 -0.0003611963
0.4094212703 0.3811808378 0.0000000000 0.0000000000 0.0000000000 -270.0818467421 0.0862716514 -0.0003611963
0.3933780077 0.3942090584 0.0000000000 0.0000000000 0.0000000000 -270.4676505718 0.0862716514 -0.0003611963
0.3768100590 0.4065631624 0.0000000000 0.0000000000 0.0000000000 -271.3082634773 0.0862716514 -0.0003611963
0.3597457304 0.4182220429 0.0000000000 0.0000000000 0.0000000000 -274.3790372005 0.0862716514 -0.0003611963
0.3422141759 0.4291657809 0.0000000000 0.0000000000 0.0000000000 -276.0100503067 0.0862716514 -0.0003611963
0.3242453478 0.4393756793 0.0000000000 0.0000000000 0.0000000000 -280.2939397241 0.0862716514 -0.0003611963
0.3058699457 0.4488342947 0.0000000000 0.0000000000 0.0000000000 -284.4500601370 0.0862716514 -0.0003611963
0.2871193636 0.4575254671 0.0000000000 0.0000000000 0.0000000000 -289.6641525125 0.0862716514 -0.0003611963
0.2680256366 0.4654343477 0.0000000000 0.0000000000 0.0000000000 -295.5721931247 0.0862716514 -0.0003611963
0.2486213859 0.4725474246 0.0000000000 0.0000000000 0.0000000000 -302.2922724476 0.0862716514 -0.0003611963
0.2289397634 0.4788525449 0.0000000000 0.0000000000 0.0000000000 -309.8248224235 0.0862716514 -0.0003611963
0.2090143949 0.4843389367 0.0000000000 0.0000000000 0.0000000000 -318.1812132011 0.0862716514 -0.0003611963
0.1888793224 0.4889972264 0.0000000000 0.0000000000 0.0000000000 -327.3319943309 0.0862716514 -0.0003611963
0.1685689464 0.4928194554 0.0000000000 0.0000000000 0.0000000000 -337.2003244355 0.0862716514 -0.0003611963
0.1481179669 0.4957990936 0.0000000000 0.0000000000 0.0000000000 -347.6542623242 0.0862716514 -0.0003611963
0.1275613240 0.4979310502 0.0000000000 0.0000000000 0.0000000000 -358.5001787577 0.0862716514 -0.0003611963
0.1069341384 0.4992116829 0.0000000000 0.0000000000 0.0000000000 -369.4814041340 0.0862716514 -0.0003611963
0.0862716513 0.4996388037 0.0000000000 0.0000000000 0.0000000000 -380.2789052494 0.0862716514 -0.0003611963
0.0656091642 0.4992116829 0.0000000000 0.0000000000 0.0000000000 -390.5172271650 0.0862716514 -0.0003611963
0.0449819785 0.4979310502 0.0000000000 0.0000000000 0.0000000000 -399.7744448243 0.0862716514 -0.0003611963
0.0244253356 0.4957990936 0.0000000000 0.0000000000 0.0000000000 -407.5965534994 0.0862716514 -0.0003611963
0.0039743561 0.4928194554 0.0000000000 0.0000000000 0.0000000000 -413.5148802316 0.0862716514 -0.0003611963
-0.0163360198 0.4889972263 0.0000000000 0.0000000000 0.0000000000 -417.0653768570 0.0862716514 -0.0003611963
-0.0364710923 0.4843389366 0.0000000000 0.0000000000 0.0000000000 -417.8081180575 0.0862716514 -0.0003611963
-0.0563964609 0.4788525449 0.0000000000 0.0000000000 0.0000000000 -415.3455677801 0.0862716514 -0.0003611963
-0.0760780833 0.4725474245 0.0000000000 0.0000000000 0.0000000000 -409.3383389843 0.0862716514 -0.0003611963
-0.0954823340 0.4654343477 0.0000000000 0.0000000000 0.0000000000 -399.5176126218 0.0862716514 -0.0003611963
-0.1145760611 0.4575254670 0.0000000000 0.0000000000 0.0000000000 -385.6938076921 0.0862716514 -0.0003611963
-0.1333266432 0.4488342946 0.0000000000 0.0000000000 0.0000000000 -367.7615289285 0.0862716514 -0.0003611963
-0.1517020453 0.4393756792 0.0000000000 0.0000000000 0.0000000000 -345.7011392265 0.0862716514 -0.0003611963
-0.1696708733 0.4291657808 0.0000000000 0.0000000000 0.0000000000 -319.5774843443 0.0862716514 -0.0003611963
-0.1872024278 0.4182220427 0.0000000000 0.0000000000 0.0000000000 -289.5363106920 0.0862716514 -0.0003611963
-0.2042667564 0.4065631622 0.0000000000 0.0000000000 0.0000000000 -255.7988097033 0.0862716514 -0.0003611963
-0.2208347051 0.3942090583 0.0000000000 0.0000000000 0.0000000000 -218.6545918431 0.0862716514 -0.0003611963
-0.2368779677 0.3811808377 0.0000000000 0.0000000000 0.0000000000 -178.4533517095 0.0862716514 -0.0003611963
-0.2523691345 0.3675007589 0.0000000000 0.0000000000 0.0000000000 -135.5955708877 0.0862716514 -0.0003611963
-0.2815903041 0.3382795894 0.0000000000 0.0000000000 0.0000000000 -43.7076137249 0.0862716514 -0.0003611963
-0.2952703828 0.3227884225 0.0000000000 0.0000000000 0.0000000000 4.3549839826 0.0862716514 -0.0003611963
-0.3082986034 0.3067451599 0.0000000000 0.0000000000 0.0000000000 53.1566263368 0.0862716514 -0.0003611963
-0.3206527074 0.2901772113 0.0000000000 0.0000000000 0.0000000000 102.1828287841 0.0862716514 -0.0003611963
-0.3323115878 0.2731128826 0.0000000000 0.0000000000 0.0000000000 150.9197689389 0.0862716514 -0.0003611963
-0.3432553259 0.2555813281 0.0000000000 0.0000000000 0.0000000000 198.8602746625 0.0862716514 -0.0003611963
-0.3534652243 0.2376125001 0.0000000000 0.0000000000 0.0000000000 245.5092102295 0.0862716514 -0.0003611963
-0.3629238396 0.2192370980 0.0000000000 0.0000000000 0.0000000000 290.3883684580 0.0862716514 -0.0003611963
-0.3716150120 0.2004865159 0.0000000000 0.0000000000 0.0000000000 333.0409600338 0.0862716514 -0.0003611963
-0.3795238927 0.1813927888 0.0000000000 0.0000000000 0.0000000000 373.0357380335 0.0862716514 -0.0003611963
-0.3866369695 0.1619885381 0.0000000000 0.0000000000 0.0000000000 409.9708029219 0.0862716514 -0.0003611963
-0.3929420899 0.1423069156 0.0000000000 0.0000000000 0.0000000000 443.4770531189 0.0862716514 -0.0003611963
-0.3984284816 0.1223815471 0.0000000000 0.0000000000 0.0000000000 473.2213495122 0.0862716514 -0.0003611963
-0.4030867713 0.1022464746 0.0000000000 0.0000000000 0.0000000000 498.9092410853 0.0862716514 -0.0003611963
-0.4069090004 0.0819360986 0.0000000000 0.0000000000 0.0000000000 520.2875109892 0.0862716514 -0.0003611963
-0.4098886385 0.0614851191 0.0000000000 0.0000000000 0.0000000000 537.1460249710 0.0862716514 -0.0003611963
-0.4120205951 0.0409284762 0.0000000000 0.0000000000 0.0000000000 549.3198348208 0.0862716514 -0.0003611963
-0.4133012278 0.0203012906 0.0000000000 0.0000000000 0.0000000000 556.6897438384 0.0862716514 -0.0003611963
-0.4137283486 -0.0003611965 0.0000000000 0.0000000000 0.0000000000 559.1846673408 0.0862716514 -0.0003611963
-0.4133012278 -0.0210236836 0.0000000000 0.0000000000 0.0000000000 556.7796097556 0.0862716514 -0.0003611963
-0.4120205951 -0.0416508692 0.0000000000 0.0000000000 0.0000000000 549.5006787538 0.0862716514 -0.0003611963
-0.4098886385 -0.0622075122 0.0000000000 0.0000000000 0.0000000000 537.4160957207 0.0862716514 -0.0003611963
-0.4069090003 -0.0826584917 0.0000000000 0.0000000000 0.0000000000 520.6518917595 0.0862716514 -0.0003611963
-0.4030867712 -0.1029688676 0.0000000000 0.0000000000 0.0000000000 499.3612674630 0.0862716514 -0.0003611963
-0.3984284815 -0.1231039401 0.0000000000 0.0000000000 0.0000000000 473.7778541447 0.0862716514 -0.0003611963
-0.3929420898 -0.1430293086 0.0000000000 0.0000000000 0.0000000000 444.1141429203 0.0862716514 -0.0003611963
-0.3866369694 -0.1627109311 0.0000000000 0.0000000000 0.0000000000 410.7427790873 0.0862716514 -0.0003611963
-0.3795238926 -0.1821151818 0.0000000000 0.0000000000 0.0000000000 373.8574627716 0.0862716514 -0.0003611963
-0.3716150119 -0.2012089088 0.0000000000 0.0000000000 0.0000000000 334.0903151468 0.0862716514 -0.0003611963
-0.3629238395 -0.2199594909 0.0000000000 0.0000000000 0.0000000000 291.3621699152 0.0862716514 -0.0003611963
-0.3534652241 -0.2383348930 0.0000000000 0.0000000000 0.0000000000 247.0116744335 0.0862716514 -0.0003611963
-0.3432553257 -0.2563037211 0.0000000000 0.0000000000 0.0000000000 199.7913600569 0.0862716514 -0.0003611963
-0.3323115876 -0.2738352756 0.0000000000 0.0000000000 0.0000000000 153.4556940291 0.0862716514 -0.0003611963
-0.3206527071 -0.2908996042 0.0000000000 0.0000000000 0.0000000000 102.1387288264 0.0862716514 -0.0003611963
-0.3082986032 -0.3074675528 0.0000000000 0.0000000000 0.0000000000 59.0965228035 0.0862716514 -0.0003611963
-0.2952703826 -0.3235108154 0.0000000000 0.0000000000 0.0000000000 -0.0227610546 0.0862716514 -0.0003611963
-0.2815903038 -0.3390019823 0.0000000000 0.0000000000 0.0000000000 36.6533125286 0.0862716514 -0.0003611963
-0.2523691342 -0.3682231518 0.0000000000 0.0000000000 0.0000000000 -79.8542123384 0.0862716514 -0.0003611963
-0.2368779674 -0.3819032306 0.0000000000 0.0000000000 0.0000000000 -132.6961531898 0.0862716514 -0.0003611963
-0.2208347048 -0.3949314512 0.0000000000 0.0000000000 0.0000000000 -228.8000061938 0.0862716514 -0.0003611963
-0.2042667561 -0.4072855551 0.0000000000 0.0000000000 0.0000000000 -228.1728169023 0.0862716514 -0.0003611963
-0.1872024275 -0.4189444356 0.0000000000 0.0000000000 0.0000000000 -312.4550628341 0.0862716514 -0.0003611963
-0.1696708729 -0.4298881736 0.0000000000 0.0000000000 0.0000000000 -298.8765960167 0.0862716514 -0.0003611963
-0.1517020449 -0.4400980720 0.0000000000 0.0000000000 0.0000000000 -349.6139654441 0.0862716514 -0.0003611963
-0.1333266428 -0.4495566874 0.0000000000 0.0000000000 0.0000000000 -362.9287118290 0.0862716514 -0.0003611963
-0.1145760607 -0.4582478597 0.0000000000 0.0000000000 0.0000000000 -382.8768230511 0.0862716514 -0.0003611963
-0.0954823336 -0.4661567404 0.0000000000 0.0000000000 0.0000000000 -395.8629662568 0.0862716514 -0.0003611963
-0.0760780830 -0.4732698172 0.0000000000 0.0000000000 0.0000000000 -405.7923419189 0.0862716514 -0.0003611963
-0.0563964605 -0.4795749376 0.0000000000 0.0000000000 0.0000000000 -411.6978818467 0.0862716514 -0.0003611963
-0.0364710919 -0.4850613293 0.0000000000 0.0000000000 0.0000000000 -414.1755961043 0.0862716514 -0.0003611963
-0.0163360194 -0.4897196190 0.0000000000 0.0000000000 0.0000000000 -413.4441498279 0.0862716514 -0.0003611963
0.0039743565 -0.4935418481 0.0000000000 0.0000000000 0.0000000000 -409.9354440919 0.0862716514 -0.0003611963
0.0244253360 -0.4965214862 0.0000000000 0.0000000000 0.0000000000 -404.0671236102 0.0862716514 -0.0003611963
0.0449819789 -0.4986534428 0.0000000000 0.0000000000 0.0000000000 -396.3067305624 0.0862716514 -0.0003611963
0.0656091646 -0.4999340755 0.0000000000 0.0000000000 0.0000000000 -387.1147333661 0.0862716514 -0.0003611963
0.0862716517 -0.5003611963 0.0000000000 0.0000000000 0.0000000000 -376.9437330117 0.0862716514 -0.0003611963
0.1069341388 -0.4999340755 0.0000000000 0.0000000000 0.0000000000 -366.2114132492 0.0862716514 -0.0003611963
0.1275613244 -0.4986534428 0.0000000000 0.0000000000 0.0000000000 -355.2916394444 0.0862716514 -0.0003611963
0.1481179673 -0.4965214861 0.0000000000 0.0000000000 0.0000000000 -344.5015759260 0.0862716514 -0.0003611963
0.1685689468 -0.4935418480 0.0000000000 0.0000000000 0.0000000000 -334.0976463205 0.0862716514 -0.0003611963
0.1888793228 -0.4897196189 0.0000000000 0.0000000000 0.0000000000 -324.2735043774 0.0862716514 -0.0003611963
0.2090143953 -0.4850613292 0.0000000000 0.0000000000 0.0000000000 -315.1625125033 0.0862716514 -0.0003611963
0.2289397638 -0.4795749374 0.0000000000 0.0000000000 0.0000000000 -306.8431391360 0.0862716514 -0.0003611963
0.2486213863 -0.4732698170 0.0000000000 0.0000000000 0.0000000000 -299.3458649124 0.0862716514 -0.0003611963
0.2680256370 -0.4661567402 0.0000000000 0.0000000000 0.0000000000 -292.6666073714 0.0862716514 -0.0003611963
0.2871193640 -0.4582478595 0.0000000000 0.0000000000 0.0000000000 -286.7779503534 0.0862716514 -0.0003611963
0.3058699461 -0.4495566871 0.0000000000 0.0000000000 0.0000000000 -281.6573257863 0.0862716514 -0.0003611963
0.3242453482 -0.4400980717 0.0000000000 0.0000000000 0.0000000000 -277.2841958417 0.0862716514 -0.0003611963
0.3422141762 -0.4298881733 0.0000000000 0.0000000000 0.0000000000 -273.6887964040 0.0862716514 -0.0003611963
0.3597457307 -0.4189444352 0.0000000000 0.0000000000 0.0000000000 -270.8551921742 0.0862716514 -0.0003611963
0.3768100594 -0.4072855547 0.0000000000 0.0000000000 0.0000000000 -268.8886636520 0.0862716514 -0.0003611963
0.3933780080 -0.3949314508 0.0000000000 0.0000000000 0.0000000000 -267.5824576636 0.0862716514 -0.0003611963
0.4094212706 -0.3819032302 0.0000000000 0.0000000000 0.0000000000 -267.2695239227 0.0862716514 -0.0003611963
0.4249124375 -0.3682231514 0.0000000000 0.0000000000 0.0000000000 -266.9737469265 0.0862716514 -0.0003611963
0.6381041535 -0.5096866904 0.0000000000 0.0619372975 -0.1196521387 -261.5403218735 0.0883152493 0.0004428626
0.6566789787 -0.4887412062 0.0000000000 0.0522639860 -0.1393692194 -264.5807817706 0.0882001860 0.0004743518
0.6744654615 -0.4671097119 0.0000000000 0.0436038519 -0.1578052155 -267.8954244838 0.0880918494 0.0005076391
0.6914266912 -0.4448237622 0.0000000000 0.0339403051 -0.1737756044 -271.3221577457 0.0879783561 0.0005413766
0.7075349511 -0.4219161328 0.0000000000 0.0221826880 -0.1865582686 -274.6894829173 0.0878558700 0.0005739103
0.7227665544 -0.3984200459 0.0000000000 0.0079430605 -0.1958088759 -277.8244321243 0.0877234047 0.0006040111
0.7371002768 -0.3743692106 0.0000000000 -0.0087196494 -0.2014428498 -280.5643491070 0.0875812237 0.0006307890
0.7505167538 -0.3497978636 0.0000000000 -0.0274972853 -0.2035273409 -282.7705373366 0.0874302085 0.0006536072
0.7629982078 -0.3247407786 0.0000000000 -0.0479547534 -0.2022012588 -284.3401662199 0.0872715567 0.0006720253
0.7745283170 -0.2992332614 0.0000000000 -0.0695951019 -0.1976264151 -285.2145567875 0.0871066249 0.0006857564
0.7850921556 -0.2733111325 0.0000000000 -0.0918904987 -0.1899655703 -285.3836105882 0.0869368440 0.0006946354
0.7946761704 -0.2470106998 0.0000000000 -0.1142964002 -0.1793796051 -284.8868122655 0.0867636725 0.0006985963
0.8032681714 -0.2203687222 0.0000000000 -0.1362596524 -0.1660353027 -283.8111285445 0.0865885669 0.0006976582
0.8108573277 -0.1934223674 0.0000000000 -0.1572264279 -0.1501167494 -282.2858197343 0.0864129578 0.0006919161
0.8174341642 -0.1662091663 0.0000000000 -0.1766527077 -0.1318358728 -280.4740556302 0.0862382300 0.0006815338
0.8229905606 -0.1387669664 0.0000000000 -0.1940180222 -0.1114399149 -278.5613953859 0.0860657056 0.0006667386
0.8275197506 -0.1111338843 0.0000000000 -0.2088419807 -0.0892151103 -276.7415882508 0.0858966308 0.0006478150
0.8310163246 -0.0833482598 0.0000000000 -0.2207023894 -0.0654865754 -275.2006485220 0.0857321671 0.0006250970
0.8334762328 -0.0554486097 0.0000000000 -0.2292533216 -0.0406147244 -274.1006112152 0.0855733849 0.0005989601
0.8348967894 -0.0274735834 0.0000000000 -0.2342413034 -0.0149886914 -273.5646583748 0.0854212608 0.0005698120
0.8352766765 0.0005380826 0.0000000000 -0.2355178594 0.0109826129 -273.6653294233 0.0852766765 0.0005380823
0.8346159481 0.0285476093 0.0000000000 -0.2330470170 0.0368810476 -274.4172604984 0.0851404196 0.0005042133
0.8329160347 0.0565162213 0.0000000000 -0.2269069203 0.0622905281 -275.7753773341 0.0850131869 0.0004686508
0.8301797481 0.0844051927 0.0000000000 -0.2172853650 0.0868081421 -277.6387890955 0.0848955907 0.0004318353
0.8264112887 0.1121758954 0.0000000000 -0.2044697606 0.1100541938 -279.8599010184 0.0847881691 0.0003941955
0.8216162542 0.1397898467 0.0000000000 -0.1888326538 0.1316803495 -282.2576199445 0.0846913993 0.0003561410
0.8158016491 0.1672087585 0.0000000000 -0.1708144023 0.1513751718 -284.6330807447 0.0846057150 0.0003180578
0.8089758936 0.1943945878 0.0000000000 -0.1509048026 0.1688664526 -286.7861508127 0.0845315239 0.0002803037
0.8011488299 0.2213095888 0.0000000000 -0.1296254269 0.1839198694 -288.5310887905 0.0844692256 0.0002432078
0.7923317234 0.2479163680 0.0000000000 -0.1075141409 0.1963336702 -289.7100906348 0.0844192258 0.0002070713
0.7825372555 0.2741779433 0.0000000000 -0.0851127898 0.2059295372 -290.2039457409 0.0843819441 0.0001721748
0.7717795025 0.3000578087 0.0000000000 -0.0629582777 0.2125407855 -289.9395075032 0.0843578107 0.0001387902
0.7600738957 0.3255200032 0.0000000000 -0.0415760602 0.2160008319 -288.8940033567 0.0843472448 0.0001071987
0.7474371528 0.3505291827 0.0000000000 -0.0214731898 0.2161371916 -287.0962487311 0.0843506077 0.0000777114
0.7338871742 0.3750506876 0.0000000000 -0.0031251877 0.2127782715 -284.6245799287 0.0843681215 0.0000506875
0.7194429038 0.3990505946 0.0000000000 0.0130534774 0.2057806896 -281.6010075332 0.0843997544 0.0000265371
0.7041241699 0.4224957419 0.0000000000 0.0267726442 0.1950832036 -278.1812326002 0.0844450892 0.0000056982
0.6879515347 0.4453537223 0.0000000000 0.0379889119 0.1807902051 -274.5413532774 0.0845031999 -0.0000114169
0.6709461406 0.4675928596 0.0000000000 0.0471101025 0.1632823687 -270.8641217376 0.0845725288 -0.0000244919
0.6531293633 0.4891821760 0.0000000000 0.0552662549 0.1433379438 -267.3286005199 0.0846505710 -0.0000333825
0.6345215611 0.5100914777 0.0000000000 0.0645421173 0.1222169654 -264.1017144087 0.0847326573 -0.0000380757
0.5928706233 0.5517257086 0.0000000000 0.1021966710 0.0819741375 -258.9838384775 0.0849094446 -0.0000672244
0.5697453578 0.5722215882 0.0000000000 0.1405546666 0.0677979953 -257.4686585291 0.0850209295 -0.0000914630
0.5458059676 0.5917449037 0.0000000000 0.1959307642 0.0606748111 -256.7869015447 0.0851464331 -0.0001104784
0.5210932431 0.6102624231 0.0000000000 0.2687758158 0.0610705170 -256.8556936315 0.0852856316 -0.0001241149
0.4956478275 0.6277423669 0.0000000000 0.3571905023 0.0685610864 -257.5515462692 0.0854367090 -0.0001324919
0.4695112595 0.6441543381 0.0000000000 0.4575211847 0.0822504864 -258.7520329115 0.0855974728 -0.0001361278
0.4427263213 0.6594696035 0.0000000000 0.5650057011 0.1010660043 -260.3469223250 0.0857657766 -0.0001357100
0.4153370747 0.6736613154 0.0000000000 0.6743078358 0.1238297218 -262.2207944295 0.0859396332 -0.0001319210
0.3873887943 0.6867046432 0.0000000000 0.7800527791 0.1492372919 -264.2281675790 0.0861172259 -0.0001253518
0.3589278750 0.6985768247 0.0000000000 0.8774400497 0.1758991327 -266.1848769113 0.0862968972 -0.0001164914
0.3300017473 0.7092571792 0.0000000000 0.9628239432 0.2024807992 -267.8855755146 0.0864771455 -0.0001057521
0.3006587988 0.7187271118 0.0000000000 1.0340723818 0.2278774702 -269.1356316163 0.0866566308 -0.0000935001
0.2709482989 0.7269701242 0.0000000000 1.0906004839 0.2513410090 -269.7771858015 0.0868341836 -0.0000800753
0.2409203166 0.7339718330 0.0000000000 1.1331154614 0.2725184974 -269.6983860591 0.0870088101 -0.0000658010
0.2106256306 0.7397199947 0.0000000000 1.1631980950 0.2914074962 -268.8273631298 0.0871796880 -0.0000509829
0.1801156272 0.7442045344 0.0000000000 1.1828576689 0.3082592766 -267.1180076753 0.0873461539 -0.0000359004
0.1494421904 0.7474175772 0.0000000000 1.1941594277 0.3234659856 -264.5341565604 0.0875076814 -0.0000207926
0.1186575834 0.7493534781 0.0000000000 1.1989712340 0.3374596163 -261.0365072515 0.0876638529 -0.0000058407
0.0878143270 0.7500088489 0.0000000000 1.1988317883 0.3506379325 -256.5743968014 0.0878143272 0.0000088489
0.0569650746 0.7493825778 0.0000000000 1.1949158697 0.3633207506 -251.0828507414 0.0879588055 0.0000232590
0.0261624884 0.7474758383 0.0000000000 1.1880625091 0.3757321643 -244.4840901707 0.0880969977 0.0000374686
-0.0045408831 0.7442920876 0.0000000000 1.1788346458 0.3880009170 -236.6920559330 0.0882285905 0.0000516528
-0.0350927243 0.7398370505 0.0000000000 1.1675872900 0.4001711199 -227.6184271936 0.0883532186 0.0000660730
-0.0654410682 0.7341186931 0.0000000000 1.1545305610 0.4122172631 -217.1788983249 0.0884704386 0.0000810592
-0.0955344064 0.7271471863 0.0000000000 1.1397814709 0.4240596694 -205.2989082658 0.0885797091 0.0000969869
-0.1253217943 0.7189348613 0.0000000000 1.1234031960 0.4355784069 -191.9184180461 0.0886803741 0.0001142496
-0.1547529491 0.7094961614 0.0000000000 1.1054331250 0.4466249573 -176.9956209642 0.0887716530 0.0001332302
-0.1837783420 0.6988475888 0.0000000000 1.0859019319 0.4570316631 -160.5096351331 0.0888526361 0.0001542728
-0.2123492852 0.6870076507 0.0000000000 1.0648459683 0.4666192891 -142.4622975854 0.0889222835 0.0001776558
-0.2404180152 0.6739968028 0.0000000000 1.0423149136 0.4752031196 -122.8791897686 0.0889794266 0.0002035664
-0.2679377816 0.6598373908 0.0000000000 1.0183761584 0.4825979614 -101.8100061829 0.0890227634 0.0002320774
-0.2948629529 0.6445535883 0.0000000000 0.9931169640 0.4886223352 -79.3283475226 0.0890508341 0.0002631226
-0.3211491739 0.6281713272 0.0000000000 0.9666450937 0.4931020377 -55.5309861368 0.0890619449 0.0002964686
-0.3467536571 0.6107182106 0.0000000000 0.9390883377 0.4958731348 -30.5365790893 0.0890539547 0.0003316727
-0.3716358416 0.5922233895 0.0000000000 0.9105931264 0.4967842766 -4.4837304934 0.0890236931 0.0003680076
-0.3957592187 0.5727174496 0.0000000000 0.8813220324 0.4956975560 22.4724210067 0.0889652098 0.0004043986
-0.4190974727 0.5522330600 0.0000000000 0.8514497209 0.4924846087 50.1664757882 0.0888637062 0.0004401271
-0.4631026711 0.5084939773 0.0000000000 0.7908204345 0.4794176208 106.8381432716 0.0886902620 0.0005327987
-0.4836897581 0.4853110740 0.0000000000 0.7604652393 0.4694746736 135.3968402224 0.0886232932 0.0005866458
-0.5033401889 0.4612958133 0.0000000000 0.7303469086 0.4571599248 163.8627278207 0.0885151933 0.0006362789
-0.5220058488 0.4364890335 0.0000000000 0.7006936116 0.4424833260 192.0003653708 0.0883806893 0.0006814221
-0.5396487101 0.4109328392 0.0000000000 0.6717314047 0.4254683651 219.5804432062 0.0882261488 0.0007217208
-0.5562351169 0.3846704305 0.0000000000 0.6436811665 0.4061602367 246.3784531226 0.0880553490 0.0007566439
-0.5717341526 0.3577461864 0.0000000000 0.6167577380 0.3846258588 272.1756340998 0.0878711609 0.0007856419
-0.5861171303 0.3302056807 0.0000000000 0.5911678157 0.3609534779 296.7609475061 0.0876761062 0.0008082393
-0.5993574363 0.3020956450 0.0000000000 0.5671079524 0.3352516299 319.9331809173 0.0874725588 0.0008240767
-0.6114305002 0.2734639059 0.0000000000 0.5447626456 0.3076478167 341.5029803869 0.0872628159 0.0008329282
-0.6223138171 0.2443593068 0.0000000000 0.5243026234 0.2782869571 361.2947131993 0.0870491143 0.0008347052
-0.6319869877 0.2148316206 0.0000000000 0.5058833487 0.2473296769 379.1481209527 0.0868336242 0.0008294527
-0.6404317652 0.1849314567 0.0000000000 0.4896437604 0.2149504794 394.9197439057 0.0866184343 0.0008173416
-0.6476320980 0.1547101639 0.0000000000 0.4757052432 0.1813358311 408.4841116363 0.0864055360 0.0007986575
-0.6535741647 0.1242197299 0.0000000000 0.4641708010 0.1466821866 419.7347023365 0.0861968129 0.0007737874
-0.6582463977 0.0935126780 0.0000000000 0.4551243895 0.1111939738 428.5846737311 0.0859940372 0.0007432049
-0.6616394949 0.0626419608 0.0000000000 0.4486303713 0.0750815724 434.9673668837 0.0857988749 0.0007074520
-0.6637464205 0.0316608492 0.0000000000 0.4447330917 0.0385593207 438.8365884916 0.0856128983 0.0006671188
-0.6645623988 0.0006228185 0.0000000000 0.4434566116 0.0018435875 440.1666864520 0.0854376012 0.0006228189
-0.6640849044 -0.0304185684 0.0000000000 0.4448046629 -0.0348490743 438.9524472083 0.0852744144 0.0005751626
-0.6623136510 -0.0614097790 0.0000000000 0.4487608479 -0.0713036892 435.2088354225 0.0851247187 0.0005247304
-0.6592505799 -0.0922974272 0.0000000000 0.4552890990 -0.1073085330 428.9705969398 0.0849898548 0.0004720465
-0.6548998435 -0.1230283847 0.0000000000 0.4643343961 -0.1426567393 420.2917468801 0.0848711340 0.0004175584
-0.6492677795 -0.1535498859 0.0000000000 0.4758236656 -0.1771478626 409.2449398989 0.0847698544 0.0003616211
-0.6423628684 -0.1838096258 0.0000000000 0.4896667652 -0.2105894045 395.9207188074 0.0846873310 0.0003044899