 TITLE = "Tecplot data"
 VARIABLES = "X", "Y", "Z" "U", "V", "p", "dispX", "dispY"
 ZONE SOLUTIONTIME=16.900000, NODES=26114 , ELEMENTS=25916, DATAPACKING=POINT, ZONETYPE=FEQUADRILATERAL
0.4293707232 0.3499295321 0.0000000000 0.0000000000 0.0000000000 -233.3344552715 0.0758173327 -0.0036238585
0.4293707235 -0.3571772489 0.0000000000 0.0000000000 0.0000000000 -243.0273974137 0.0758173327 -0.0036238585
-0.2777360580 0.3499295320 0.0000000000 0.0000000000 0.0000000000 -64.6146279687 0.0758173327 -0.0036238585
-0.2777360577 -0.3571772493 0.0000000000 0.0000000000 0.0000000000 -102.3797477773 0.0758173327 -0.0036238585
0.6048518893 0.5269875337 0.0000000000 0.0520235214 0.0632099790 -226.0858103776 0.0745218034 -0.0033425522
0.6080693814 -0.5334047872 0.0000000000 0.0568250472 -0.0736637545 -234.6157833778 0.0777392952 -0.0030747017
-0.4524688098 0.5273705686 0.0000000000 0.8043874981 0.4793809036 94.3805074363 0.0778612763 -0.0029595171
-0.4545424488 -0.5339467393 0.0000000000 0.8121277666 -0.4857537765 86.3763661572 0.0757876368 -0.0036166531
1.1363568670 1.0571772519 0.0000000000 1.2487770985 0.1804148662 -265.0572847097 0.0756966953 -0.0034829200
1.1370499212 -1.0634255329 0.0000000000 1.2661565167 -0.1694730884 -282.9864321964 0.0763897487 -0.0027653618
-0.9807452046 1.0584682752 0.0000000000 0.9147875992 0.1863281086 98.8219932146 0.0799149675 -0.0021918962
-0.9855510299 -1.0637337341 0.0000000000 0.9188180671 -0.1879596890 94.6154424554 0.0751091413 -0.0030735618
4.2714360365 3.2973124931 0.0000000000 1.0662115903 -0.0646895550 -54.0508349760 0.0714360365 -0.0026875069
4.2696726371 -3.3025776674 0.0000000000 1.0641284449 0.0604244901 -51.9009724998 0.0696726371 -0.0025776674
20.0000000000 4.7000000000 0.0000000000 0.9995220744 -0.0025898406 0.0055913618 0.0000000000 0.0000000000
20.0000000000 -4.7000000000 0.0000000000 0.9994898518 0.0025839888 0.0064363422 0.0000000000 0.0000000000
-10.0000000000 15.0000000000 0.0000000000 1.0000000000 0.0000000000 5.5995396521 0.0000000000 0.0000000000
20.0000000000 15.0000000000 0.0000000000 1.0010354818 0.0000000000 -0.0016691734 0.0000000000 0.0000000000
20.0000000000 -15.0000000000 0.0000000000 1.0009863335 0.0000000000 -0.0014745235 0.0000000000 0.0000000000
-10.0000000000 -15.0000000000 0.0000000000 1.0000000000 0.0000000000 4.5528274298 0.0000000000 0.0000000000
0.4423432688 -0.3437102271 0.0000000000 0.0000000000 0.0000000000 -242.5513855676 0.0758173327 -0.0036238585
0.4548031945 -0.3297675639 0.0000000000 0.0000000000 0.0000000000 -242.8491129928 0.0758173327 -0.0036238585
0.4667330741 -0.3153687592 0.0000000000 0.0000000000 0.0000000000 -242.8567833816 0.0758173327 -0.0036238585
0.4781162228 -0.3005339510 0.0000000000 0.0000000000 0.0000000000 -242.9667472624 0.0758173327 -0.0036238585
0.4889367200 -0.2852838873 0.0000000000 0.0000000000 0.0000000000 -242.8948405587 0.0758173327 -0.0036238585
0.4991794325 -0.2696398965 0.0000000000 0.0000000000 0.0000000000 -242.6879523315 0.0758173327 -0.0036238585
0.5088300347 -0.2536238582 0.0000000000 0.0000000000 0.0000000000 -242.2541828548 0.0758173327 -0.0036238585
0.5178750296 -0.2372581724 0.0000000000 0.0000000000 0.0000000000 -241.5800290848 0.0758173327 -0.0036238585
0.5263017668 -0.2205657278 0.0000000000 0.0000000000 0.0000000000 -240.6358185929 0.0758173327 -0.0036238585
0.5340984607 -0.2035698704 0.0000000000 0.0000000000 0.0000000000 -239.4068173293 0.0758173327 -0.0036238585
0.5412542071 -0.1862943704 0.0000000000 0.0000000000 0.0000000000 -237.9342290352 0.0758173327 -0.0036238585
0.5477589979 -0.1687633892 0.0000000000 0.0000000000 0.0000000000 -236.1211567145 0.0758173327 -0.0036238585
0.5536037356 -0.1510014455 0.0000000000 0.0000000000 0.0000000000 -234.4070386300 0.0758173327 -0.0036238585
0.5587802459 -0.1330333808 0.0000000000 0.0000000000 0.0000000000 -231.7914158370 0.0758173327 -0.0036238585
0.5632812888 -0.1148843252 0.0000000000 0.0000000000 0.0000000000 -230.0831984761 0.0758173327 -0.0036238585
0.5671005693 -0.0965796619 0.0000000000 0.0000000000 0.0000000000 -227.5901030364 0.0758173327 -0.0036238585
0.5702327458 -0.0781449914 0.0000000000 0.0000000000 0.0000000000 -225.6959800032 0.0758173327 -0.0036238585
0.5726734376 -0.0596060963 0.0000000000 0.0000000000 0.0000000000 -223.7444357503 0.0758173327 -0.0036238585
0.5744192313 -0.0409889051 0.0000000000 0.0000000000 0.0000000000 -222.1564570820 0.0758173327 -0.0036238585
0.5754676851 -0.0223194554 0.0000000000 0.0000000000 0.0000000000 -220.8698270409 0.0758173327 -0.0036238585
0.5758173327 -0.0036238583 0.0000000000 0.0000000000 0.0000000000 -219.9839296423 0.0758173327 -0.0036238585
0.5754676851 0.0150717388 0.0000000000 0.0000000000 0.0000000000 -219.5144434494 0.0758173327 -0.0036238585
0.5744192312 0.0337411885 0.0000000000 0.0000000000 0.0000000000 -219.4704088767 0.0758173327 -0.0036238585
0.5726734376 0.0523583797 0.0000000000 0.0000000000 0.0000000000 -219.8317198483 0.0758173327 -0.0036238585
0.5702327458 0.0708972748 0.0000000000 0.0000000000 0.0000000000 -220.5569521483 0.0758173327 -0.0036238585
0.5671005693 0.0893319452 0.0000000000 0.0000000000 0.0000000000 -221.5858594574 0.0758173327 -0.0036238585
0.5632812887 0.1076366086 0.0000000000 0.0000000000 0.0000000000 -222.8447391221 0.0758173327 -0.0036238585
0.5587802458 0.1257856642 0.0000000000 0.0000000000 0.0000000000 -224.2525844836 0.0758173327 -0.0036238585
0.5536037355 0.1437537288 0.0000000000 0.0000000000 0.0000000000 -225.7266276829 0.0758173327 -0.0036238585
0.5477589978 0.1615156726 0.0000000000 0.0000000000 0.0000000000 -227.1894707456 0.0758173327 -0.0036238585
0.5412542069 0.1790466538 0.0000000000 0.0000000000 0.0000000000 -228.5713239139 0.0758173327 -0.0036238585
0.5340984606 0.1963221538 0.0000000000 0.0000000000 0.0000000000 -229.8184591490 0.0758173327 -0.0036238585
0.5263017666 0.2133180112 0.0000000000 0.0000000000 0.0000000000 -230.8866668872 0.0758173327 -0.0036238585
0.5178750294 0.2300104557 0.0000000000 0.0000000000 0.0000000000 -231.7577770569 0.0758173327 -0.0036238585
0.5088300345 0.2463761416 0.0000000000 0.0000000000 0.0000000000 -232.4109446928 0.0758173327 -0.0036238585
0.4991794322 0.2623921798 0.0000000000 0.0000000000 0.0000000000 -232.8736552371 0.0758173327 -0.0036238585
0.4889367198 0.2780361706 0.0000000000 0.0000000000 0.0000000000 -233.1259166062 0.0758173327 -0.0036238585
0.4781162225 0.2932862343 0.0000000000 0.0000000000 0.0000000000 -233.2690861797 0.0758173327 -0.0036238585
0.4667330739 0.3081210425 0.0000000000 0.0000000000 0.0000000000 -233.2264674998 0.0758173327 -0.0036238585
0.4548031942 0.3225198472 0.0000000000 0.0000000000 0.0000000000 -233.2555556458 0.0758173327 -0.0036238585
0.4423432685 0.3364625104 0.0000000000 0.0000000000 0.0000000000 -233.0809062233 0.0758173327 -0.0036238585
0.4144581184 0.3642380969 0.0000000000 0.0000000000 0.0000000000 -233.3950602679 0.0758173327 -0.0036238585
0.3989669516 0.3779181756 0.0000000000 0.0000000000 0.0000000000 -233.8899139281 0.0758173327 -0.0036238585
0.3829236890 0.3909463962 0.0000000000 0.0000000000 0.0000000000 -235.2990290309 0.0758173327 -0.0036238585
0.3663557403 0.4033005002 0.0000000000 0.0000000000 0.0000000000 -236.4257554390 0.0758173327 -0.0036238585
0.3492914117 0.4149593807 0.0000000000 0.0000000000 0.0000000000 -238.6969412437 0.0758173327 -0.0036238585
0.3317598572 0.4259031187 0.0000000000 0.0000000000 0.0000000000 -241.2708867597 0.0758173327 -0.0036238585
0.3137910291 0.4361130171 0.0000000000 0.0000000000 0.0000000000 -244.5990022768 0.0758173327 -0.0036238585
0.2954156270 0.4455716325 0.0000000000 0.0000000000 0.0000000000 -248.5816324411 0.0758173327 -0.0036238585
0.2766650449 0.4542628048 0.0000000000 0.0000000000 0.0000000000 -253.2601850818 0.0758173327 -0.0036238585
0.2575713179 0.4621716855 0.0000000000 0.0000000000 0.0000000000 -258.6631433846 0.0758173327 -0.0036238585
0.2381670672 0.4692847624 0.0000000000 0.0000000000 0.0000000000 -264.8179187151 0.0758173327 -0.0036238585
0.2184854447 0.4755898827 0.0000000000 0.0000000000 0.0000000000 -271.7504463492 0.0758173327 -0.0036238585
0.1985600762 0.4810762745 0.0000000000 0.0000000000 0.0000000000 -279.4631413024 0.0758173327 -0.0036238585
0.1784250037 0.4857345642 0.0000000000 0.0000000000 0.0000000000 -287.9297782117 0.0758173327 -0.0036238585
0.1581146277 0.4895567932 0.0000000000 0.0000000000 0.0000000000 -297.0810035029 0.0758173327 -0.0036238585
0.1376636482 0.4925364314 0.0000000000 0.0000000000 0.0000000000 -306.7983264807 0.0758173327 -0.0036238585
0.1171070053 0.4946683880 0.0000000000 0.0000000000 0.0000000000 -316.9066650449 0.0758173327 -0.0036238585
0.0964798197 0.4959490207 0.0000000000 0.0000000000 0.0000000000 -327.1718055003 0.0758173327 -0.0036238585
0.0758173326 0.4963761415 0.0000000000 0.0000000000 0.0000000000 -337.3003097031 0.0758173327 -0.0036238585
0.0551548454 0.4959490207 0.0000000000 0.0000000000 0.0000000000 -346.9441981212 0.0758173327 -0.0036238585
0.0345276598 0.4946683880 0.0000000000 0.0000000000 0.0000000000 -355.7096382312 0.0758173327 -0.0036238585
0.0139710169 0.4925364313 0.0000000000 0.0000000000 0.0000000000 -363.1698240120 0.0758173327 -0.0036238585
-0.0064799626 0.4895567932 0.0000000000 0.0000000000 0.0000000000 -368.8809484145 0.0758173327 -0.0036238585
-0.0267903385 0.4857345641 0.0000000000 0.0000000000 0.0000000000 -372.4001934568 0.0758173327 -0.0036238585
-0.0469254110 0.4810762744 0.0000000000 0.0000000000 0.0000000000 -373.3042392642 0.0758173327 -0.0036238585
-0.0668507796 0.4755898827 0.0000000000 0.0000000000 0.0000000000 -371.2069110323 0.0758173327 -0.0036238585
-0.0865324020 0.4692847623 0.0000000000 0.0000000000 0.0000000000 -365.7747244621 0.0758173327 -0.0036238585
-0.1059366527 0.4621716855 0.0000000000 0.0000000000 0.0000000000 -356.7394563484 0.0758173327 -0.0036238585
-0.1250303798 0.4542628048 0.0000000000 0.0000000000 0.0000000000 -343.9072547965 0.0758173327 -0.0036238585
-0.1437809619 0.4455716324 0.0000000000 0.0000000000 0.0000000000 -327.1642020111 0.0758173327 -0.0036238585
-0.1621563640 0.4361130170 0.0000000000 0.0000000000 0.0000000000 -306.4785565787 0.0758173327 -0.0036238585
-0.1801251920 0.4259031186 0.0000000000 0.0000000000 0.0000000000 -281.9001046902 0.0758173327 -0.0036238585
-0.1976567465 0.4149593805 0.0000000000 0.0000000000 0.0000000000 -253.5571205694 0.0758173327 -0.0036238585
-0.2147210751 0.4033005000 0.0000000000 0.0000000000 0.0000000000 -221.6514020748 0.0758173327 -0.0036238585
-0.2312890238 0.3909463961 0.0000000000 0.0000000000 0.0000000000 -186.4517643823 0.0758173327 -0.0036238585
-0.2473322864 0.3779181755 0.0000000000 0.0000000000 0.0000000000 -148.2863138951 0.0758173327 -0.0036238585
-0.2628234533 0.3642380967 0.0000000000 0.0000000000 0.0000000000 -107.5338292187 0.0758173327 -0.0036238585
-0.2920446228 0.3350169272 0.0000000000 0.0000000000 0.0000000000 -19.9813365855 0.0758173327 -0.0036238585
-0.3057247015 0.3195257603 0.0000000000 0.0000000000 0.0000000000 25.8900400762 0.0758173327 -0.0036238585
-0.3187529221 0.3034824977 0.0000000000 0.0000000000 0.0000000000 72.5084568270 0.0758173327 -0.0036238585
-0.3311070261 0.2869145491 0.0000000000 0.0000000000 0.0000000000 119.3754158116 0.0758173327 -0.0036238585
-0.3427659065 0.2698502204 0.0000000000 0.0000000000 0.0000000000 165.9917711037 0.0758173327 -0.0036238585
-0.3537096446 0.2523186659 0.0000000000 0.0000000000 0.0000000000 211.8638137221 0.0758173327 -0.0036238585
-0.3639195430 0.2343498379 0.0000000000 0.0000000000 0.0000000000 256.5087405557 0.0758173327 -0.0036238585
-0.3733781583 0.2159744358 0.0000000000 0.0000000000 0.0000000000 299.4596096563 0.0758173327 -0.0036238585
-0.3820693307 0.1972238537 0.0000000000 0.0000000000 0.0000000000 340.2698756538 0.0758173327 -0.0036238585
-0.3899782114 0.1781301266 0.0000000000 0.0000000000 0.0000000000 378.5175508930 0.0758173327 -0.0036238585
-0.3970912882 0.1587258759 0.0000000000 0.0000000000 0.0000000000 413.8090390181 0.0758173327 -0.0036238585
-0.4033964086 0.1390442534 0.0000000000 0.0000000000 0.0000000000 445.7826158035 0.0758173327 -0.0036238585
-0.4088828003 0.1191188849 0.0000000000 0.0000000000 0.0000000000 474.1116146119 0.0758173327 -0.0036238585
-0.4135410900 0.0989838124 0.0000000000 0.0000000000 0.0000000000 498.5071875877 0.0758173327 -0.0036238585
-0.4173633191 0.0786734364 0.0000000000 0.0000000000 0.0000000000 518.7208573255 0.0758173327 -0.0036238585
-0.4203429572 0.0582224569 0.0000000000 0.0000000000 0.0000000000 534.5464231848 0.0758173327 -0.0036238585
-0.4224749138 0.0376658140 0.0000000000 0.0000000000 0.0000000000 545.8220204341 0.0758173327 -0.0036238585
-0.4237555465 0.0170386284 0.0000000000 0.0000000000 0.0000000000 552.4308231815 0.0758173327 -0.0036238585
-0.4241826673 -0.0036238587 0.0000000000 0.0000000000 0.0000000000 554.3032000783 0.0758173327 -0.0036238585
-0.4237555465 -0.0242863458 0.0000000000 0.0000000000 0.0000000000 551.4151040448 0.0758173327 -0.0036238585
-0.4224749138 -0.0449135315 0.0000000000 0.0000000000 0.0000000000 543.7923622140 0.0758173327 -0.0036238585
-0.4203429572 -0.0654701744 0.0000000000 0.0000000000 0.0000000000 531.5030221349 0.0758173327 -0.0036238585
-0.4173633190 -0.0859211539 0.0000000000 0.0000000000 0.0000000000 514.6706296920 0.0758173327 -0.0036238585
-0.4135410899 -0.1062315298 0.0000000000 0.0000000000 0.0000000000 493.4479759325 0.0758173327 -0.0036238585
-0.4088828002 -0.1263666023 0.0000000000 0.0000000000 0.0000000000 468.0623885225 0.0758173327 -0.0036238585
-0.4033964085 -0.1462919708 0.0000000000 0.0000000000 0.0000000000 438.7286078575 0.0758173327 -0.0036238585
-0.3970912881 -0.1659735933 0.0000000000 0.0000000000 0.0000000000 405.8037989952 0.0758173327 -0.0036238585
-0.3899782113 -0.1853778440 0.0000000000 0.0000000000 0.0000000000 369.4962840934 0.0758173327 -0.0036238585
-0.3820693306 -0.2044715710 0.0000000000 0.0000000000 0.0000000000 330.3954479331 0.0758173327 -0.0036238585
-0.3733781582 -0.2232221531 0.0000000000 0.0000000000 0.0000000000 288.4826302249 0.0758173327 -0.0036238585
-0.3639195428 -0.2415975552 0.0000000000 0.0000000000 0.0000000000 244.9628781902 0.0758173327 -0.0036238585
-0.3537096444 -0.2595663833 0.0000000000 0.0000000000 0.0000000000 198.8172702059 0.0758173327 -0.0036238585
-0.3427659063 -0.2770979378 0.0000000000 0.0000000000 0.0000000000 153.3340500178 0.0758173327 -0.0036238585
-0.3311070258 -0.2941622664 0.0000000000 0.0000000000 0.0000000000 103.5313563003 0.0758173327 -0.0036238585
-0.3187529219 -0.3107302151 0.0000000000 0.0000000000 0.0000000000 60.8324046363 0.0758173327 -0.0036238585
-0.3057247013 -0.3267734776 0.0000000000 0.0000000000 0.0000000000 4.5117121594 0.0758173327 -0.0036238585
-0.2920446225 -0.3422646445 0.0000000000 0.0000000000 0.0000000000 16.7213888564 0.0758173327 -0.0036238585
-0.2628234529 -0.3714858140 0.0000000000 0.0000000000 0.0000000000 -26.5423634962 0.0758173327 -0.0036238585
-0.2473322861 -0.3851658928 0.0000000000 0.0000000000 0.0000000000 -174.3262736695 0.0758173327 -0.0036238585
-0.2312890235 -0.3981941134 0.0000000000 0.0000000000 0.0000000000 -229.7388582624 0.0758173327 -0.0036238585
-0.2147210748 -0.4105482173 0.0000000000 0.0000000000 0.0000000000 -238.8105057592 0.0758173327 -0.0036238585
-0.1976567462 -0.4222070978 0.0000000000 0.0000000000 0.0000000000 -276.1726533381 0.0758173327 -0.0036238585
-0.1801251916 -0.4331508358 0.0000000000 0.0000000000 0.0000000000 -303.0089958086 0.0758173327 -0.0036238585
-0.1621563636 -0.4433607342 0.0000000000 0.0000000000 0.0000000000 -327.8796609169 0.0758173327 -0.0036238585
-0.1437809615 -0.4528193496 0.0000000000 0.0000000000 0.0000000000 -348.6703883031 0.0758173327 -0.0036238585
-0.1250303794 -0.4615105220 0.0000000000 0.0000000000 0.0000000000 -365.5448295344 0.0758173327 -0.0036238585
-0.1059366523 -0.4694194026 0.0000000000 0.0000000000 0.0000000000 -378.4662384379 0.0758173327 -0.0036238585
-0.0865324017 -0.4765324795 0.0000000000 0.0000000000 0.0000000000 -387.5077910680 0.0758173327 -0.0036238585
-0.0668507792 -0.4828375998 0.0000000000 0.0000000000 0.0000000000 -392.8719106914 0.0758173327 -0.0036238585
-0.0469254106 -0.4883239916 0.0000000000 0.0000000000 0.0000000000 -394.8020684879 0.0758173327 -0.0036238585
-0.0267903381 -0.4929822812 0.0000000000 0.0000000000 0.0000000000 -393.6381220381 0.0758173327 -0.0036238585
-0.0064799622 -0.4968045103 0.0000000000 0.0000000000 0.0000000000 -389.7597437406 0.0758173327 -0.0036238585
0.0139710173 -0.4997841484 0.0000000000 0.0000000000 0.0000000000 -383.5977392112 0.0758173327 -0.0036238585
0.0345276602 -0.5019161050 0.0000000000 0.0000000000 0.0000000000 -375.6001308473 0.0758173327 -0.0036238585
0.0551548459 -0.5031967377 0.0000000000 0.0000000000 0.0000000000 -366.2226985487 0.0758173327 -0.0036238585
0.0758173330 -0.5036238585 0.0000000000 0.0000000000 0.0000000000 -355.9051029073 0.0758173327 -0.0036238585
0.0964798201 -0.5031967377 0.0000000000 0.0000000000 0.0000000000 -345.0572360879 0.0758173327 -0.0036238585
0.1171070057 -0.5019161050 0.0000000000 0.0000000000 0.0000000000 -334.0438024467 0.0758173327 -0.0036238585
0.1376636486 -0.4997841483 0.0000000000 0.0000000000 0.0000000000 -323.1755399289 0.0758173327 -0.0036238585
0.1581146281 -0.4968045102 0.0000000000 0.0000000000 0.0000000000 -312.7032313202 0.0758173327 -0.0036238585
0.1784250041 -0.4929822811 0.0000000000 0.0000000000 0.0000000000 -302.8168890228 0.0758173327 -0.0036238585
0.1985600766 -0.4883239914 0.0000000000 0.0000000000 0.0000000000 -293.6479427056 0.0758173327 -0.0036238585
0.2184854451 -0.4828375996 0.0000000000 0.0000000000 0.0000000000 -285.2751158815 0.0758173327 -0.0036238585
0.2381670676 -0.4765324793 0.0000000000 0.0000000000 0.0000000000 -277.7315257627 0.0758173327 -0.0036238585
0.2575713183 -0.4694194024 0.0000000000 0.0000000000 0.0000000000 -271.0160555338 0.0758173327 -0.0036238585
0.2766650453 -0.4615105217 0.0000000000 0.0000000000 0.0000000000 -265.1025951402 0.0758173327 -0.0036238585
0.2954156274 -0.4528193493 0.0000000000 0.0000000000 0.0000000000 -259.9592012205 0.0758173327 -0.0036238585
0.3137910295 -0.4433607340 0.0000000000 0.0000000000 0.0000000000 -255.5472971190 0.0758173327 -0.0036238585
0.3317598575 -0.4331508355 0.0000000000 0.0000000000 0.0000000000 -251.8540311546 0.0758173327 -0.0036238585
0.3492914120 -0.4222070975 0.0000000000 0.0000000000 0.0000000000 -248.8344781991 0.0758173327 -0.0036238585
0.3663557407 -0.4105482169 0.0000000000 0.0000000000 0.0000000000 -246.5220135000 0.0758173327 -0.0036238585
0.3829236893 -0.3981941130 0.0000000000 0.0000000000 0.0000000000 -244.7600870717 0.0758173327 -0.0036238585
0.3989669519 -0.3851658924 0.0000000000 0.0000000000 0.0000000000 -243.7425378950 0.0758173327 -0.0036238585
0.4144581187 -0.3714858136 0.0000000000 0.0000000000 0.0000000000 -242.8378074916 0.0758173327 -0.0036238585
0.6273765035 -0.5131596396 0.0000000000 0.0384273490 -0.0848921450 -235.8235516877 0.0775875993 -0.0030300866
0.6459656728 -0.4922198442 0.0000000000 0.0258322848 -0.0971070407 -237.2059050784 0.0774868801 -0.0030042861
0.6637659220 -0.4705951876 0.0000000000 0.0167629462 -0.1093408761 -238.7147495532 0.0773923098 -0.0029778366
0.6807416474 -0.4483163368 0.0000000000 0.0093417747 -0.1207807498 -240.2664517004 0.0772933123 -0.0029511980
0.6968655446 -0.4254155778 0.0000000000 0.0022081384 -0.1308075682 -241.7799590827 0.0771864636 -0.0029255346
0.7121140057 -0.4019258503 0.0000000000 -0.0054889521 -0.1389977834 -243.1786213602 0.0770708561 -0.0029017933
0.7264657438 -0.3778806910 0.0000000000 -0.0141787438 -0.1450955612 -244.3916302306 0.0769466908 -0.0028806914
0.7399012685 -0.3533142279 0.0000000000 -0.0239837024 -0.1489733112 -245.3567172841 0.0768147232 -0.0028627571
0.7524026485 -0.3282611671 0.0000000000 -0.0348242526 -0.1505934262 -246.0237699778 0.0766759974 -0.0028483631
0.7639533972 -0.3027567737 0.0000000000 -0.0464978420 -0.1499775378 -246.3585303796 0.0765317051 -0.0028377559
0.7745384205 -0.2768368466 0.0000000000 -0.0587319628 -0.1471850967 -246.3455455377 0.0763831088 -0.0028310787
0.7841439968 -0.2505376850 0.0000000000 -0.0712173404 -0.1423006202 -245.9898453328 0.0762314989 -0.0028283890
0.7927577700 -0.2238960497 0.0000000000 -0.0836284289 -0.1354277702 -245.3171243605 0.0760781656 -0.0028296693
0.8003687470 -0.1969491181 0.0000000000 -0.0956368653 -0.1266880159 -244.3723930802 0.0759243772 -0.0028348347
0.8069672963 -0.1697344381 0.0000000000 -0.1069215869 -0.1162217317 -243.2171658851 0.0757713621 -0.0028437380
0.8125451480 -0.1422898796 0.0000000000 -0.1171776801 -0.1041899957 -241.9253313777 0.0756202930 -0.0028561746
0.8170953951 -0.1146535870 0.0000000000 -0.1261248758 -0.0907759043 -240.5779423467 0.0754722753 -0.0028718877
0.8206124956 -0.0868639318 0.0000000000 -0.1335158703 -0.0761847312 -239.2572735274 0.0753283382 -0.0028905750
0.8230922769 -0.0589594661 0.0000000000 -0.1391442357 -0.0606426729 -238.0406034299 0.0751894290 -0.0029118962
0.8245319394 -0.0309788769 0.0000000000 -0.1428514947 -0.0443941971 -236.9942527895 0.0750564108 -0.0029354815
0.8249300607 -0.0029609408 0.0000000000 -0.1445328930 -0.0276981827 -236.1684311691 0.0749300607 -0.0029609411
0.8242865990 0.0250555219 0.0000000000 -0.1441414575 -0.0108231311 -235.5933932712 0.0748110704 -0.0029878741
0.8226028974 0.0530316926 0.0000000000 -0.1416900364 0.0059582204 -235.2772904465 0.0747000495 -0.0030158779
0.8198816882 0.0809288015 0.0000000000 -0.1372511529 0.0223745252 -235.2059346328 0.0745975308 -0.0030445559
0.8161270987 0.1087081743 0.0000000000 -0.1309546666 0.0381613152 -235.3444915320 0.0745039791 -0.0030735256
0.8113446585 0.1363312809 0.0000000000 -0.1229833977 0.0530659772 -235.6409161597 0.0744198036 -0.0031024247
0.8055413071 0.1637597836 0.0000000000 -0.1135670196 0.0668518785 -236.0307654991 0.0743453730 -0.0031309171
0.7987254008 0.1909555872 0.0000000000 -0.1029746095 0.0793013965 -236.4428968840 0.0742810311 -0.0031586968
0.7909067177 0.2178808913 0.0000000000 -0.0915062255 0.0902177712 -236.8055017413 0.0742271134 -0.0031854898
0.7820964576 0.2444982441 0.0000000000 -0.0794837019 0.0994259533 -237.0519311812 0.0741839599 -0.0032110526
0.7723072345 0.2707706015 0.0000000000 -0.0672404528 0.1067729653 -237.1258275762 0.0741519231 -0.0032351669
0.7615530576 0.2966613904 0.0000000000 -0.0551093921 0.1121287202 -236.9851642305 0.0741313657 -0.0032576280
0.7498492951 0.3221345764 0.0000000000 -0.0434070400 0.1153886750 -236.6049002896 0.0741226442 -0.0032782281
0.7372126132 0.3471547342 0.0000000000 -0.0324105105 0.1164800265 -235.9780864581 0.0741260682 -0.0032967372
0.7236608835 0.3716871154 0.0000000000 -0.0223226346 0.1153732348 -235.1154339966 0.0741418308 -0.0033128847
0.7092130579 0.3956977024 0.0000000000 -0.0132198121 0.1121003032 -234.0436052476 0.0741699085 -0.0033263551
0.6938890249 0.4191532383 0.0000000000 -0.0049790003 0.1067802015 -232.8027581950 0.0742099443 -0.0033368054
0.6777094705 0.4420212272 0.0000000000 0.0028132082 0.0996496655 -231.4440397486 0.0742611358 -0.0033439120
0.6606957341 0.4642699161 0.0000000000 0.0109540400 0.0910939500 -230.0275399028 0.0743221224 -0.0033474354
0.6428694944 0.4858682573 0.0000000000 0.0206896781 0.0816674022 -228.6205547138 0.0743907021 -0.0033473013
0.6242516649 0.5067859473 0.0000000000 0.0337095200 0.0720901149 -227.2921490053 0.0744627611 -0.0033436061
0.5825774000 0.5484396689 0.0000000000 0.0811615747 0.0553748188 -225.0880795942 0.0746162213 -0.0033532642
0.5594368436 0.5689457293 0.0000000000 0.1220766395 0.0506730440 -224.3951612064 0.0747124152 -0.0033673219
0.5354804447 0.5884778002 0.0000000000 0.1766207573 0.0500578552 -224.0754377961 0.0748209103 -0.0033775819
0.5107490344 0.6070027646 0.0000000000 0.2454642089 0.0541682701 -224.1372264244 0.0749414229 -0.0033837734
0.4852834757 0.6244889192 0.0000000000 0.3278660661 0.0633115373 -224.5694529571 0.0750723572 -0.0033859395
0.4591255637 0.6409059581 0.0000000000 0.4216194094 0.0774610167 -225.3535488096 0.0752117769 -0.0033845077
0.4323183273 0.6562252355 0.0000000000 0.5231737780 0.0962409279 -226.4651702282 0.0753577826 -0.0033800779
0.4049060564 0.6704199720 0.0000000000 0.6279654003 0.1189081205 -227.8607460764 0.0755086149 -0.0033732645
0.3769342365 0.6834653816 0.0000000000 0.7309700954 0.1443818340 -229.4558114042 0.0756626681 -0.0033646134
0.3484494588 0.6953387294 0.0000000000 0.8274014024 0.1713600820 -231.1129897355 0.0758184810 -0.0033545867
0.3194993352 0.7060193517 0.0000000000 0.9133791797 0.1985085868 -232.6533825451 0.0759747334 -0.0033435796
0.2901324187 0.7154886686 0.0000000000 0.9863812967 0.2246634736 -233.8865716394 0.0761302506 -0.0033319433
0.2603981259 0.7237301996 0.0000000000 1.0453764970 0.2489830773 -234.6413618420 0.0762840107 -0.0033199999
0.2303466552 0.7307295844 0.0000000000 1.0906577996 0.2710121042 -234.7831852778 0.0764351486 -0.0033080496
0.2000288956 0.7364746092 0.0000000000 1.1234826791 0.2906586607 -234.2157028747 0.0765829531 -0.0032963683
0.1694963286 0.7409552349 0.0000000000 1.1456506208 0.3081107433 -232.8717112523 0.0767268553 -0.0032851999
0.1388009194 0.7441636258 0.0000000000 1.1591235696 0.3237273017 -230.6998268208 0.0768664105 -0.0032747439
0.1079950033 0.7460941773 0.0000000000 1.1657483153 0.3379339037 -227.6518426673 0.0770012727 -0.0032651415
0.0771311665 0.7467435391 0.0000000000 1.1670951862 0.3511414680 -223.6736132303 0.0771311666 -0.0032564609
0.0462621259 0.7461106320 0.0000000000 1.1643968578 0.3636945011 -218.7005560598 0.0772558567 -0.0032486868
0.0154406079 0.7441966555 0.0000000000 1.1585571706 0.3758464416 -212.6575140127 0.0773751172 -0.0032417142
-0.0152807708 0.7410050851 0.0000000000 1.1501990566 0.3877552023 -205.4618941724 0.0774887028 -0.0032353497
-0.0458496205 0.7365416579 0.0000000000 1.1397271974 0.3994911252 -197.0287114126 0.0775963224 -0.0032293196
-0.0762138913 0.7308143487 0.0000000000 1.1273897403 0.4110508589 -187.2762938773 0.0776976156 -0.0032232852
-0.1063219822 0.7238333363 0.0000000000 1.1133310758 0.4223727343 -176.1317540624 0.0777921333 -0.0032168632
-0.1361228448 0.7156109632 0.0000000000 1.0976330637 0.4333511566 -163.5357100223 0.0778793235 -0.0032096486
-0.1655660812 0.7061616911 0.0000000000 1.0803451808 0.4438489593 -149.4460468742 0.0779585208 -0.0032012401
-0.1946020362 0.6955020515 0.0000000000 1.0615054347 0.4537075330 -133.8407041839 0.0780289419 -0.0031912645
-0.2231818846 0.6836505953 0.0000000000 1.0411542025 0.4627549695 -116.7195726308 0.0780896840 -0.0031793996
-0.2512577158 0.6706278400 0.0000000000 1.0193429400 0.4708126088 -98.1056144546 0.0781397260 -0.0031653964
-0.2787826218 0.6564562144 0.0000000000 0.9961393016 0.4777003691 -78.0453164292 0.0781779231 -0.0031490989
-0.3057108005 0.6411600017 0.0000000000 0.9716297967 0.4832411651 -56.6085608486 0.0782029865 -0.0031304639
-0.3319977031 0.6247652769 0.0000000000 0.9459207557 0.4872646210 -33.8879699008 0.0782134156 -0.0031095816
-0.3576002985 0.6072998344 0.0000000000 0.9191380936 0.4896101745 -9.9977205593 0.0782073132 -0.0030867034
-0.3824776584 0.5887930986 0.0000000000 0.8914261320 0.4901294917 14.9282530921 0.0781818763 -0.0030622833
-0.4065925645 0.5692760903 0.0000000000 0.8629454211 0.4886875485 40.7392562487 0.0781318640 -0.0030369607
-0.4299169185 0.5487822344 0.0000000000 0.8338692219 0.4851593842 67.2735465195 0.0780442603 -0.0030106984
-0.4738975292 0.5050173459 0.0000000000 0.7748102298 0.4715805908 121.6316042438 0.0778954040 -0.0029438327
-0.4944746894 0.4818180235 0.0000000000 0.7452238057 0.4614368531 149.0506054508 0.0778383619 -0.0029064047
-0.5141101366 0.4577882808 0.0000000000 0.7158659249 0.4489637901 176.3864529241 0.0777452456 -0.0028712535
-0.5327575510 0.4329685116 0.0000000000 0.6869603194 0.4341694968 203.4115820772 0.0776289871 -0.0028390998
-0.5503797042 0.4074006899 0.0000000000 0.6587293085 0.4170763262 229.9030738883 0.0774951546 -0.0028104284
-0.5669434168 0.3811280026 0.0000000000 0.6313906474 0.3977281143 255.6420550890 0.0773470491 -0.0027857840
-0.5824181304 0.3541948521 0.0000000000 0.6051564078 0.3761901931 280.4148843573 0.0771871832 -0.0027656924
-0.5967754688 0.3266468418 0.0000000000 0.5802308422 0.3525489812 304.0151784483 0.0770177677 -0.0027505996
-0.6099891066 0.2985307265 0.0000000000 0.5568083709 0.3269109809 326.2459219433 0.0768408885 -0.0027408417
-0.6220347489 0.2698943447 0.0000000000 0.5350716697 0.2994014999 346.9214936022 0.0766585672 -0.0027366330
-0.6328901557 0.2407865386 0.0000000000 0.5151899494 0.2701631526 365.8695254717 0.0764727757 -0.0027380631
-0.6425351823 0.2112570679 0.0000000000 0.4973174495 0.2393542010 382.9325593065 0.0762854296 -0.0027451001
-0.6509518246 0.1813565170 0.0000000000 0.4815921592 0.2071467741 397.9694827456 0.0760983749 -0.0027575981
-0.6581242612 0.1511361994 0.0000000000 0.4681347627 0.1737249978 410.8567399563 0.0759133728 -0.0027753069
-0.6640388875 0.1206480587 0.0000000000 0.4570477862 0.1392830562 421.4893178331 0.0757320901 -0.0027978837
-0.6686843403 0.0899445665 0.0000000000 0.4484149046 0.1040232069 429.7815091412 0.0755560945 -0.0028249067
-0.6720515107 0.0590786171 0.0000000000 0.4423003729 0.0681537788 435.6674520263 0.0753868591 -0.0028558917
-0.6741335476 0.0281034191 0.0000000000 0.4387485758 0.0318871916 439.1014494530 0.0752257712 -0.0028903113
-0.6749258545 -0.0029276173 0.0000000000 0.4377837332 -0.0045619665 440.0580818218 0.0750741455 -0.0029276170
-0.6744260816 -0.0339609952 0.0000000000 0.4394098212 -0.0409787859 438.5321405119 0.0749332372 -0.0029672642
-0.6726341173 -0.0649432464 0.0000000000 0.4436107359 -0.0771497996 434.5384027570 0.0748042524 -0.0030087370
-0.6695520766 -0.0958210463 0.0000000000 0.4503507135 -0.1128646675 428.1112677368 0.0746883581 -0.0030515725
-0.6651842865 -0.1265413241 0.0000000000 0.4595750086 -0.1479177977 419.3042741232 0.0745866910 -0.0030953811
-0.6595372605 -0.1570513679 0.0000000000 0.4712107610 -0.1821099278 408.1894951885 0.0745003735 -0.0031398609