 TITLE = "Tecplot data"
 VARIABLES = "X", "Y", "Z" "U", "V", "p", "dispX", "dispY"
 ZONE SOLUTIONTIME=32.900000, NODES=26114 , ELEMENTS=25916, DATAPACKING=POINT, ZONETYPE=FEQUADRILATERAL
0.4067109830 0.3380314179 0.0000000000 0.0000000000 0.0000000000 -456.3163387953 0.0531575924 -0.0155219727
0.4067109832 -0.3690753631 0.0000000000 0.0000000000 0.0000000000 -346.5020970721 0.0531575924 -0.0155219727
-0.3003957983 0.3380314177 0.0000000000 0.0000000000 0.0000000000 -182.4149077478 0.0531575924 -0.0155219727
-0.3003957980 -0.3690753635 0.0000000000 0.0000000000 0.0000000000 -155.7018925486 0.0531575924 -0.0155219727
0.5825695900 0.5150189809 0.0000000000 0.2916965406 -0.0101890068 -450.6595830462 0.0522395041 -0.0153111051
0.5847388024 -0.5459172315 0.0000000000 0.0883564662 -0.0475655097 -331.7475772228 0.0544087161 -0.0155871460
-0.4759362219 0.5149124146 0.0000000000 0.8659515828 0.4756166112 14.9547479085 0.0543938642 -0.0154176712
-0.4770782128 -0.5460640578 0.0000000000 0.8565214767 -0.5009173989 50.6226278971 0.0532518728 -0.0157339716
1.1135206131 1.0450681060 0.0000000000 1.1708080020 -0.0310172732 -263.2534097263 0.0528604415 -0.0155920659
1.1143255252 -1.0759335207 0.0000000000 1.2993310218 0.0109547973 -259.0320183539 0.0536653526 -0.0152733496
-1.0051900778 1.0449206644 0.0000000000 0.9409593031 0.1613570366 49.3031616613 0.0554700943 -0.0157395070
-1.0076439396 -1.0767355477 0.0000000000 0.9483004131 -0.1777308762 76.5427315467 0.0530162316 -0.0160753753
4.2488123104 3.2865810081 0.0000000000 1.0193195592 -0.0014751381 16.0711155977 0.0488123104 -0.0134189919
4.2500994112 -3.3133073040 0.0000000000 1.0521271935 -0.0617685202 10.1567299368 0.0500994112 -0.0133073040
20.0000000000 4.7000000000 0.0000000000 1.0052148090 -0.0102597952 -0.0151479748 0.0000000000 0.0000000000
20.0000000000 -4.7000000000 0.0000000000 1.0043932160 0.0078205668 0.0241664456 0.0000000000 0.0000000000
-10.0000000000 15.0000000000 0.0000000000 1.0000000000 0.0000000000 12.1243463280 0.0000000000 0.0000000000
20.0000000000 15.0000000000 0.0000000000 1.0020729230 0.0000000000 0.0019048226 0.0000000000 0.0000000000
20.0000000000 -15.0000000000 0.0000000000 1.0023071668 0.0000000000 0.0019031155 0.0000000000 0.0000000000
-10.0000000000 -15.0000000000 0.0000000000 1.0000000000 0.0000000000 16.0971457158 0.0000000000 0.0000000000
0.4196835285 -0.3556083414 0.0000000000 0.0000000000 0.0000000000 -345.6839445757 0.0531575924 -0.0155219727
0.4321434542 -0.3416656781 0.0000000000 0.0000000000 0.0000000000 -345.5111240555 0.0531575924 -0.0155219727
0.4440733338 -0.3272668734 0.0000000000 0.0000000000 0.0000000000 -345.6897225911 0.0531575924 -0.0155219727
0.4554564825 -0.3124320653 0.0000000000 0.0000000000 0.0000000000 -346.2751271218 0.0531575924 -0.0155219727
0.4662769797 -0.2971820015 0.0000000000 0.0000000000 0.0000000000 -347.1710993931 0.0531575924 -0.0155219727
0.4765196922 -0.2815380107 0.0000000000 0.0000000000 0.0000000000 -348.3418024786 0.0531575924 -0.0155219727
0.4861702944 -0.2655219725 0.0000000000 0.0000000000 0.0000000000 -349.7288916643 0.0531575924 -0.0155219727
0.4952152893 -0.2491562866 0.0000000000 0.0000000000 0.0000000000 -351.2927590256 0.0531575924 -0.0155219727
0.5036420265 -0.2324638420 0.0000000000 0.0000000000 0.0000000000 -352.9956894314 0.0531575924 -0.0155219727
0.5114387204 -0.2154679846 0.0000000000 0.0000000000 0.0000000000 -354.8093288976 0.0531575924 -0.0155219727
0.5185944668 -0.1981924847 0.0000000000 0.0000000000 0.0000000000 -356.7100802395 0.0531575924 -0.0155219727
0.5250992576 -0.1806615035 0.0000000000 0.0000000000 0.0000000000 -358.6800739841 0.0531575924 -0.0155219727
0.5309439954 -0.1628995597 0.0000000000 0.0000000000 0.0000000000 -360.7058796243 0.0531575924 -0.0155219727
0.5361205056 -0.1449314951 0.0000000000 0.0000000000 0.0000000000 -362.7792592460 0.0531575924 -0.0155219727
0.5406215485 -0.1267824395 0.0000000000 0.0000000000 0.0000000000 -364.8959237034 0.0531575924 -0.0155219727
0.5444408291 -0.1084777761 0.0000000000 0.0000000000 0.0000000000 -367.0614966284 0.0531575924 -0.0155219727
0.5475730055 -0.0900431056 0.0000000000 0.0000000000 0.0000000000 -369.2698616628 0.0531575924 -0.0155219727
0.5500136974 -0.0715042106 0.0000000000 0.0000000000 0.0000000000 -371.5924342670 0.0531575924 -0.0155219727
0.5517594910 -0.0528870193 0.0000000000 0.0000000000 0.0000000000 -373.9038367618 0.0531575924 -0.0155219727
0.5528079448 -0.0342175697 0.0000000000 0.0000000000 0.0000000000 -376.3663115443 0.0531575924 -0.0155219727
0.5531575924 -0.0155219725 0.0000000000 0.0000000000 0.0000000000 -379.0186517192 0.0531575924 -0.0155219727
0.5528079448 0.0031736246 0.0000000000 0.0000000000 0.0000000000 -381.7815817509 0.0531575924 -0.0155219727
0.5517594910 0.0218430742 0.0000000000 0.0000000000 0.0000000000 -384.7387353375 0.0531575924 -0.0155219727
0.5500136973 0.0404602655 0.0000000000 0.0000000000 0.0000000000 -387.8982522762 0.0531575924 -0.0155219727
0.5475730055 0.0589991605 0.0000000000 0.0000000000 0.0000000000 -391.2726919328 0.0531575924 -0.0155219727
0.5444408290 0.0774338310 0.0000000000 0.0000000000 0.0000000000 -394.8666168930 0.0531575924 -0.0155219727
0.5406215484 0.0957384944 0.0000000000 0.0000000000 0.0000000000 -398.6717793536 0.0531575924 -0.0155219727
0.5361205055 0.1138875500 0.0000000000 0.0000000000 0.0000000000 -402.6684948531 0.0531575924 -0.0155219727
0.5309439952 0.1318556146 0.0000000000 0.0000000000 0.0000000000 -406.8244716542 0.0531575924 -0.0155219727
0.5250992575 0.1496175584 0.0000000000 0.0000000000 0.0000000000 -411.0985432731 0.0531575924 -0.0155219727
0.5185944667 0.1671485396 0.0000000000 0.0000000000 0.0000000000 -415.4363558423 0.0531575924 -0.0155219727
0.5114387203 0.1844240395 0.0000000000 0.0000000000 0.0000000000 -419.7880749155 0.0531575924 -0.0155219727
0.5036420263 0.2014198969 0.0000000000 0.0000000000 0.0000000000 -424.0895469583 0.0531575924 -0.0155219727
0.4952152891 0.2181123415 0.0000000000 0.0000000000 0.0000000000 -428.2815315725 0.0531575924 -0.0155219727
0.4861702942 0.2344780273 0.0000000000 0.0000000000 0.0000000000 -432.3474839950 0.0531575924 -0.0155219727
0.4765196920 0.2504940656 0.0000000000 0.0000000000 0.0000000000 -436.1372734628 0.0531575924 -0.0155219727
0.4662769795 0.2661380564 0.0000000000 0.0000000000 0.0000000000 -439.8825707456 0.0531575924 -0.0155219727
0.4554564822 0.2813881201 0.0000000000 0.0000000000 0.0000000000 -443.4112108792 0.0531575924 -0.0155219727
0.4440733336 0.2962229282 0.0000000000 0.0000000000 0.0000000000 -446.6914378296 0.0531575924 -0.0155219727
0.4321434539 0.3106217329 0.0000000000 0.0000000000 0.0000000000 -450.0953975738 0.0531575924 -0.0155219727
0.4196835283 0.3245643962 0.0000000000 0.0000000000 0.0000000000 -452.9747662364 0.0531575924 -0.0155219727
0.3917983782 0.3523399826 0.0000000000 0.0000000000 0.0000000000 -459.8264377971 0.0531575924 -0.0155219727
0.3763072113 0.3660200614 0.0000000000 0.0000000000 0.0000000000 -463.9334262787 0.0531575924 -0.0155219727
0.3602639487 0.3790482820 0.0000000000 0.0000000000 0.0000000000 -468.4140525604 0.0531575924 -0.0155219727
0.3436960000 0.3914023859 0.0000000000 0.0000000000 0.0000000000 -473.6449630759 0.0531575924 -0.0155219727
0.3266316714 0.4030612664 0.0000000000 0.0000000000 0.0000000000 -479.6576165310 0.0531575924 -0.0155219727
0.3091001169 0.4140050045 0.0000000000 0.0000000000 0.0000000000 -486.6360838443 0.0531575924 -0.0155219727
0.2911312889 0.4242149029 0.0000000000 0.0000000000 0.0000000000 -494.6483851369 0.0531575924 -0.0155219727
0.2727558868 0.4336735182 0.0000000000 0.0000000000 0.0000000000 -503.7930808377 0.0531575924 -0.0155219727
0.2540053047 0.4423646906 0.0000000000 0.0000000000 0.0000000000 -514.1166839914 0.0531575924 -0.0155219727
0.2349115776 0.4502735713 0.0000000000 0.0000000000 0.0000000000 -525.6511190671 0.0531575924 -0.0155219727
0.2155073269 0.4573866481 0.0000000000 0.0000000000 0.0000000000 -538.3771292846 0.0531575924 -0.0155219727
0.1958257044 0.4636917685 0.0000000000 0.0000000000 0.0000000000 -552.2235828159 0.0531575924 -0.0155219727
0.1759003359 0.4691781602 0.0000000000 0.0000000000 0.0000000000 -567.0459043488 0.0531575924 -0.0155219727
0.1557652634 0.4738364499 0.0000000000 0.0000000000 0.0000000000 -582.6199636235 0.0531575924 -0.0155219727
0.1354548874 0.4776586790 0.0000000000 0.0000000000 0.0000000000 -598.6349658984 0.0531575924 -0.0155219727
0.1150039079 0.4806383171 0.0000000000 0.0000000000 0.0000000000 -614.6965611284 0.0531575924 -0.0155219727
0.0944472650 0.4827702738 0.0000000000 0.0000000000 0.0000000000 -630.3348722019 0.0531575924 -0.0155219727
0.0738200794 0.4840509065 0.0000000000 0.0000000000 0.0000000000 -645.0200343611 0.0531575924 -0.0155219727
0.0531575923 0.4844780273 0.0000000000 0.0000000000 0.0000000000 -658.1824081146 0.0531575924 -0.0155219727
0.0324951052 0.4840509064 0.0000000000 0.0000000000 0.0000000000 -669.2365073877 0.0531575924 -0.0155219727
0.0118679196 0.4827702737 0.0000000000 0.0000000000 0.0000000000 -677.6059900768 0.0531575924 -0.0155219727
-0.0086887234 0.4806383171 0.0000000000 0.0000000000 0.0000000000 -682.7477758585 0.0531575924 -0.0155219727
-0.0291397029 0.4776586789 0.0000000000 0.0000000000 0.0000000000 -684.1733214422 0.0531575924 -0.0155219727
-0.0494500788 0.4738364499 0.0000000000 0.0000000000 0.0000000000 -681.4658227812 0.0531575924 -0.0155219727
-0.0695851513 0.4691781602 0.0000000000 0.0000000000 0.0000000000 -674.2926444179 0.0531575924 -0.0155219727
-0.0895105198 0.4636917684 0.0000000000 0.0000000000 0.0000000000 -662.4129090797 0.0531575924 -0.0155219727
-0.1091921423 0.4573866481 0.0000000000 0.0000000000 0.0000000000 -645.6806173635 0.0531575924 -0.0155219727
-0.1285963930 0.4502735712 0.0000000000 0.0000000000 0.0000000000 -624.0439803933 0.0531575924 -0.0155219727
-0.1476901201 0.4423646905 0.0000000000 0.0000000000 0.0000000000 -597.5417881226 0.0531575924 -0.0155219727
-0.1664407021 0.4336735181 0.0000000000 0.0000000000 0.0000000000 -566.2976541563 0.0531575924 -0.0155219727
-0.1848161042 0.4242149028 0.0000000000 0.0000000000 0.0000000000 -530.5128978123 0.0531575924 -0.0155219727
-0.2027849323 0.4140050044 0.0000000000 0.0000000000 0.0000000000 -490.4586852682 0.0531575924 -0.0155219727
-0.2203164868 0.4030612663 0.0000000000 0.0000000000 0.0000000000 -446.4678808116 0.0531575924 -0.0155219727
-0.2373808154 0.3914023858 0.0000000000 0.0000000000 0.0000000000 -398.9268838436 0.0531575924 -0.0155219727
-0.2539487641 0.3790482819 0.0000000000 0.0000000000 0.0000000000 -348.2675733714 0.0531575924 -0.0155219727
-0.2699920267 0.3660200613 0.0000000000 0.0000000000 0.0000000000 -294.9593762956 0.0531575924 -0.0155219727
-0.2854831935 0.3523399825 0.0000000000 0.0000000000 0.0000000000 -239.5014385365 0.0531575924 -0.0155219727
-0.3147043630 0.3231188130 0.0000000000 0.0000000000 0.0000000000 -124.2354080842 0.0531575924 -0.0155219727
-0.3283844418 0.3076276461 0.0000000000 0.0000000000 0.0000000000 -65.5058579183 0.0531575924 -0.0155219727
-0.3414126624 0.2915843835 0.0000000000 0.0000000000 0.0000000000 -6.7698001045 0.0531575924 -0.0155219727
-0.3537667663 0.2750164348 0.0000000000 0.0000000000 0.0000000000 51.4346234926 0.0531575924 -0.0155219727
-0.3654256468 0.2579521062 0.0000000000 0.0000000000 0.0000000000 108.5800015961 0.0531575924 -0.0155219727
-0.3763693849 0.2404205517 0.0000000000 0.0000000000 0.0000000000 164.1543330726 0.0531575924 -0.0155219727
-0.3865792833 0.2224517236 0.0000000000 0.0000000000 0.0000000000 217.6651651843 0.0531575924 -0.0155219727
-0.3960378986 0.2040763215 0.0000000000 0.0000000000 0.0000000000 268.6433136517 0.0531575924 -0.0155219727
-0.4047290710 0.1853257394 0.0000000000 0.0000000000 0.0000000000 316.6462847876 0.0531575924 -0.0155219727
-0.4126379517 0.1662320124 0.0000000000 0.0000000000 0.0000000000 361.2614636801 0.0531575924 -0.0155219727
-0.4197510285 0.1468277617 0.0000000000 0.0000000000 0.0000000000 402.1091138548 0.0531575924 -0.0155219727
-0.4260561489 0.1271461392 0.0000000000 0.0000000000 0.0000000000 438.8451652313 0.0531575924 -0.0155219727
-0.4315425406 0.1072207706 0.0000000000 0.0000000000 0.0000000000 471.1638086112 0.0531575924 -0.0155219727
-0.4362008303 0.0870856982 0.0000000000 0.0000000000 0.0000000000 498.7997896221 0.0531575924 -0.0155219727
-0.4400230593 0.0667753222 0.0000000000 0.0000000000 0.0000000000 521.5305154869 0.0531575924 -0.0155219727
-0.4430026975 0.0463243427 0.0000000000 0.0000000000 0.0000000000 539.1776731403 0.0531575924 -0.0155219727
-0.4451346541 0.0257676998 0.0000000000 0.0000000000 0.0000000000 551.6088564593 0.0531575924 -0.0155219727
-0.4464152868 0.0051405142 0.0000000000 0.0000000000 0.0000000000 558.7382137841 0.0531575924 -0.0155219727
-0.4468424076 -0.0155219730 0.0000000000 0.0000000000 0.0000000000 560.5279342251 0.0531575924 -0.0155219727
-0.4464152868 -0.0361844601 0.0000000000 0.0000000000 0.0000000000 556.9871566571 0.0531575924 -0.0155219727
-0.4451346541 -0.0568116457 0.0000000000 0.0000000000 0.0000000000 548.1746571593 0.0531575924 -0.0155219727
-0.4430026974 -0.0773682886 0.0000000000 0.0000000000 0.0000000000 534.1934971144 0.0531575924 -0.0155219727
-0.4400230593 -0.0978192681 0.0000000000 0.0000000000 0.0000000000 515.1995697261 0.0531575924 -0.0155219727
-0.4362008302 -0.1181296441 0.0000000000 0.0000000000 0.0000000000 491.3833630447 0.0531575924 -0.0155219727
-0.4315425405 -0.1382647165 0.0000000000 0.0000000000 0.0000000000 463.0003505809 0.0531575924 -0.0155219727
-0.4260561488 -0.1581900851 0.0000000000 0.0000000000 0.0000000000 430.3101917024 0.0531575924 -0.0155219727
-0.4197510284 -0.1778717076 0.0000000000 0.0000000000 0.0000000000 393.6841607388 0.0531575924 -0.0155219727
-0.4126379515 -0.1972759582 0.0000000000 0.0000000000 0.0000000000 353.3987694012 0.0531575924 -0.0155219727
-0.4047290708 -0.2163696853 0.0000000000 0.0000000000 0.0000000000 310.0132127226 0.0531575924 -0.0155219727
-0.3960378985 -0.2351202674 0.0000000000 0.0000000000 0.0000000000 263.6538500431 0.0531575924 -0.0155219727
-0.3865792831 -0.2534956695 0.0000000000 0.0000000000 0.0000000000 215.3514665110 0.0531575924 -0.0155219727
-0.3763693847 -0.2714644975 0.0000000000 0.0000000000 0.0000000000 164.4957848513 0.0531575924 -0.0155219727
-0.3654256466 -0.2889960520 0.0000000000 0.0000000000 0.0000000000 113.6901451655 0.0531575924 -0.0155219727
-0.3537667661 -0.3060603806 0.0000000000 0.0000000000 0.0000000000 59.3688374020 0.0531575924 -0.0155219727
-0.3414126622 -0.3226283293 0.0000000000 0.0000000000 0.0000000000 10.1142549861 0.0531575924 -0.0155219727
-0.3283844415 -0.3386715919 0.0000000000 0.0000000000 0.0000000000 -48.9602101361 0.0531575924 -0.0155219727
-0.3147043628 -0.3541627587 0.0000000000 0.0000000000 0.0000000000 -77.2980534803 0.0531575924 -0.0155219727
-0.2854831932 -0.3833839283 0.0000000000 0.0000000000 0.0000000000 -195.9400703552 0.0531575924 -0.0155219727
-0.2699920263 -0.3970640070 0.0000000000 0.0000000000 0.0000000000 -250.8155186277 0.0531575924 -0.0155219727
-0.2539487637 -0.4100922276 0.0000000000 0.0000000000 0.0000000000 -284.7651166244 0.0531575924 -0.0155219727
-0.2373808151 -0.4224463315 0.0000000000 0.0000000000 0.0000000000 -329.1453644709 0.0531575924 -0.0155219727
-0.2203164864 -0.4341052120 0.0000000000 0.0000000000 0.0000000000 -363.9855294266 0.0531575924 -0.0155219727
-0.2027849319 -0.4450489501 0.0000000000 0.0000000000 0.0000000000 -398.6733155074 0.0531575924 -0.0155219727
-0.1848161039 -0.4552588485 0.0000000000 0.0000000000 0.0000000000 -427.3957468563 0.0531575924 -0.0155219727
-0.1664407018 -0.4647174638 0.0000000000 0.0000000000 0.0000000000 -453.0218544394 0.0531575924 -0.0155219727
-0.1476901197 -0.4734086362 0.0000000000 0.0000000000 0.0000000000 -473.7539908317 0.0531575924 -0.0155219727
-0.1285963926 -0.4813175169 0.0000000000 0.0000000000 0.0000000000 -490.5542555995 0.0531575924 -0.0155219727
-0.1091921419 -0.4884305937 0.0000000000 0.0000000000 0.0000000000 -502.9271790550 0.0531575924 -0.0155219727
-0.0895105195 -0.4947357141 0.0000000000 0.0000000000 0.0000000000 -511.3566076421 0.0531575924 -0.0155219727
-0.0695851509 -0.5002221058 0.0000000000 0.0000000000 0.0000000000 -515.8819199712 0.0531575924 -0.0155219727
-0.0494500784 -0.5048803955 0.0000000000 0.0000000000 0.0000000000 -516.9214909904 0.0531575924 -0.0155219727
-0.0291397025 -0.5087026245 0.0000000000 0.0000000000 0.0000000000 -514.7774737787 0.0531575924 -0.0155219727
-0.0086887229 -0.5116822627 0.0000000000 0.0000000000 0.0000000000 -509.9050565147 0.0531575924 -0.0155219727
0.0118679200 -0.5138142193 0.0000000000 0.0000000000 0.0000000000 -502.7328806749 0.0531575924 -0.0155219727
0.0324951056 -0.5150948520 0.0000000000 0.0000000000 0.0000000000 -493.7400659434 0.0531575924 -0.0155219727
0.0531575927 -0.5155219727 0.0000000000 0.0000000000 0.0000000000 -483.3842682592 0.0531575924 -0.0155219727
0.0738200798 -0.5150948519 0.0000000000 0.0000000000 0.0000000000 -472.1153204576 0.0531575924 -0.0155219727
0.0944472654 -0.5138142192 0.0000000000 0.0000000000 0.0000000000 -460.3428250356 0.0531575924 -0.0155219727
0.1150039083 -0.5116822626 0.0000000000 0.0000000000 0.0000000000 -448.4337850199 0.0531575924 -0.0155219727
0.1354548878 -0.5087026244 0.0000000000 0.0000000000 0.0000000000 -436.6989118134 0.0531575924 -0.0155219727
0.1557652638 -0.5048803953 0.0000000000 0.0000000000 0.0000000000 -425.3912688565 0.0531575924 -0.0155219727
0.1759003363 -0.5002221056 0.0000000000 0.0000000000 0.0000000000 -414.7042159745 0.0531575924 -0.0155219727
0.1958257048 -0.4947357139 0.0000000000 0.0000000000 0.0000000000 -404.7752405909 0.0531575924 -0.0155219727
0.2155073273 -0.4884305935 0.0000000000 0.0000000000 0.0000000000 -395.6905980657 0.0531575924 -0.0155219727
0.2349115780 -0.4813175167 0.0000000000 0.0000000000 0.0000000000 -387.4921500141 0.0531575924 -0.0155219727
0.2540053050 -0.4734086359 0.0000000000 0.0000000000 0.0000000000 -380.1826256976 0.0531575924 -0.0155219727
0.2727558871 -0.4647174635 0.0000000000 0.0000000000 0.0000000000 -373.7327685926 0.0531575924 -0.0155219727
0.2911312892 -0.4552588482 0.0000000000 0.0000000000 0.0000000000 -368.0852403428 0.0531575924 -0.0155219727
0.3091001172 -0.4450489498 0.0000000000 0.0000000000 0.0000000000 -363.1715013102 0.0531575924 -0.0155219727
0.3266316717 -0.4341052117 0.0000000000 0.0000000000 0.0000000000 -358.9130439519 0.0531575924 -0.0155219727
0.3436960004 -0.4224463312 0.0000000000 0.0000000000 0.0000000000 -355.2661887651 0.0531575924 -0.0155219727
0.3602639490 -0.4100922272 0.0000000000 0.0000000000 0.0000000000 -352.1698652617 0.0531575924 -0.0155219727
0.3763072116 -0.3970640066 0.0000000000 0.0000000000 0.0000000000 -349.6855347986 0.0531575924 -0.0155219727
0.3917983785 -0.3833839278 0.0000000000 0.0000000000 0.0000000000 -347.6767105698 0.0531575924 -0.0155219727
0.6040868186 -0.5256782772 0.0000000000 0.0428001714 -0.0544551637 -330.6730108012 0.0542979144 -0.0155487243
0.6227076641 -0.5047535460 0.0000000000 0.0104360197 -0.0637218229 -330.0687917927 0.0542288714 -0.0155379879
0.6405386834 -0.4831478035 0.0000000000 -0.0103485642 -0.0751456646 -330.0120913435 0.0541650713 -0.0155304525
0.6575469122 -0.4608887338 0.0000000000 -0.0219040444 -0.0882424429 -330.5142939043 0.0540985771 -0.0155235950
0.6737058632 -0.4380071400 0.0000000000 -0.0269207598 -0.1023395089 -331.5359858784 0.0540267821 -0.0155170969
0.6889920399 -0.4145351555 0.0000000000 -0.0279365558 -0.1167033597 -333.0111210316 0.0539488902 -0.0155110985
0.7033839748 -0.3905058474 0.0000000000 -0.0269853177 -0.1306576928 -334.8682471674 0.0538649218 -0.0155058478
0.7168618769 -0.3659530628 0.0000000000 -0.0254809858 -0.1436493127 -337.0421793005 0.0537753316 -0.0155015920
0.7294074694 -0.3409113403 0.0000000000 -0.0242893354 -0.1552634409 -339.4764813775 0.0536808182 -0.0154985364
0.7410039076 -0.3154158490 0.0000000000 -0.0238790045 -0.1652105460 -342.1221883288 0.0535822155 -0.0154968311
0.7516357402 -0.2895023375 0.0000000000 -0.0244647438 -0.1733050102 -344.9369608409 0.0534804286 -0.0154965696
0.7612888931 -0.2632070860 0.0000000000 -0.0261077065 -0.1794451821 -347.8857881218 0.0533763953 -0.0154977899
0.7699506650 -0.2365668580 0.0000000000 -0.0287750283 -0.1835964154 -350.9425048872 0.0532710605 -0.0155004776
0.7776097273 -0.2096188502 0.0000000000 -0.0323734395 -0.1857761638 -354.0911362808 0.0531653575 -0.0155045668
0.7842561262 -0.1824006421 0.0000000000 -0.0367694535 -0.1860406418 -357.3265059439 0.0530601919 -0.0155099420
0.7898812839 -0.1549501457 0.0000000000 -0.0418030489 -0.1844733770 -360.6539378057 0.0529564289 -0.0155164407
0.7944780023 -0.1273055553 0.0000000000 -0.0472977124 -0.1811762064 -364.0880842263 0.0528548826 -0.0155238560
0.7980404656 -0.0995052985 0.0000000000 -0.0530677522 -0.1762629806 -367.6509910266 0.0527563082 -0.0155319417
0.8005642444 -0.0715879886 0.0000000000 -0.0589230884 -0.1698558234 -371.3695372547 0.0526613965 -0.0155404187
0.8020462994 -0.0435923778 0.0000000000 -0.0646716069 -0.1620835142 -375.2723952222 0.0525707708 -0.0155489824
0.8024849847 -0.0155573113 0.0000000000 -0.0701192650 -0.1530814789 -379.3866542510 0.0524849847 -0.0155573116
0.8018800506 0.0124783184 0.0000000000 -0.0750683697 -0.1429929613 -383.7342460026 0.0524045220 -0.0155650776
0.8002326470 0.0404756158 0.0000000000 -0.0793147422 -0.1319710754 -388.3283088372 0.0523297991 -0.0155719547
0.7975453256 0.0683957284 0.0000000000 -0.0826448039 -0.1201815136 -393.1696442543 0.0522611682 -0.0155776289
0.7938220438 0.0961998917 0.0000000000 -0.0848338688 -0.1078056442 -398.2434605407 0.0521989241 -0.0155818082
0.7890681684 0.1238494751 0.0000000000 -0.0856469678 -0.0950435547 -403.5166717108 0.0521433136 -0.0155842305
0.7832904800 0.1513060292 0.0000000000 -0.0848432245 -0.0821163519 -408.9361140834 0.0520945459 -0.0155846715
0.7764971755 0.1785313335 0.0000000000 -0.0821840456 -0.0692668091 -414.4281280748 0.0520528059 -0.0155829506
0.7686978710 0.2054874467 0.0000000000 -0.0774441993 -0.0567574044 -419.8999779142 0.0520182668 -0.0155789344
0.7599035997 0.2321367599 0.0000000000 -0.0704234114 -0.0448649998 -425.2434873434 0.0519911020 -0.0155725368
0.7501268058 0.2584420536 0.0000000000 -0.0609547306 -0.0338718902 -430.3410136092 0.0519714944 -0.0155637149
0.7393813312 0.2843665589 0.0000000000 -0.0489049685 -0.0240535607 -435.0734770497 0.0519596394 -0.0155524595
0.7276823897 0.3098740246 0.0000000000 -0.0341622369 -0.0156639629 -439.3296985255 0.0519557388 -0.0155387799
0.7150465242 0.3349287866 0.0000000000 -0.0166060146 -0.0089191263 -443.0159248805 0.0519599791 -0.0155226848
0.7014915406 0.3594958382 0.0000000000 0.0039436694 -0.0039792275 -446.0642929100 0.0519724878 -0.0155041620
0.6870364148 0.3835408917 0.0000000000 0.0277987915 -0.0009279548 -448.4391421866 0.0519932655 -0.0154831658
0.6717011803 0.4070304225 0.0000000000 0.0554925594 0.0002531225 -450.1404149169 0.0520220996 -0.0154596211
0.6555068074 0.4299316867 0.0000000000 0.0878680410 -0.0002831777 -451.2036455618 0.0520584727 -0.0154334526
0.6384750750 0.4522127080 0.0000000000 0.1261295729 -0.0022135283 -451.6961141662 0.0521014632 -0.0154046435
0.6206283175 0.4738422109 0.0000000000 0.1718007247 -0.0050155774 -451.7090615844 0.0521495252 -0.0153733477
0.6019886369 0.4947894971 0.0000000000 0.2265288456 -0.0079675976 -451.3425839375 0.0521997331 -0.0153400563
0.5602610312 0.5365087583 0.0000000000 0.3766832646 -0.0107112330 -449.8283869201 0.0522998525 -0.0152841748
0.5370847314 0.5570474593 0.0000000000 0.4744085418 -0.0081161926 -448.8276607688 0.0523603031 -0.0152655919
0.5130888387 0.5766079241 0.0000000000 0.5819044566 -0.0017741443 -447.8166146245 0.0524293043 -0.0152474580
0.4883142730 0.5951574805 0.0000000000 0.6943268990 0.0084322311 -446.8905487849 0.0525066615 -0.0152290575
0.4628023748 0.6126646813 0.0000000000 0.8057780451 0.0220709104 -446.1000017442 0.0525912562 -0.0152101774
0.4365954806 0.6290994584 0.0000000000 0.9104390563 0.0383050436 -445.4374022795 0.0526816939 -0.0151910074
0.4097371347 0.6444333620 0.0000000000 1.0036038492 0.0561112185 -444.8408723602 0.0527765900 -0.0151719515
0.3822721028 0.6586397390 0.0000000000 1.0823237552 0.0745041426 -444.2178797244 0.0528746612 -0.0151534975
0.3542463140 0.6716938620 0.0000000000 1.1455606189 0.0927100582 -443.4715777856 0.0529747456 -0.0151361330
0.3257067783 0.6835730070 0.0000000000 1.1939196079 0.1102565861 -442.5160475264 0.0530758005 -0.0151203090
0.2967015001 0.6942565002 0.0000000000 1.2291346778 0.1269760052 -441.2784123854 0.0531768983 -0.0151064311
0.2672793949 0.7037257513 0.0000000000 1.2534970679 0.1429442380 -439.6924296920 0.0532772268 -0.0150948606
0.2374902076 0.7119642834 0.0000000000 1.2693707875 0.1583894680 -437.6888252291 0.0533760924 -0.0150859160
0.2073844281 0.7189577636 0.0000000000 1.2788662382 0.1736013922 -435.1863438134 0.0534729216 -0.0150798704
0.1770132023 0.7246940317 0.0000000000 1.2836775035 0.1888605775 -432.0860547350 0.0535672598 -0.0150769458
0.1464282378 0.7291631283 0.0000000000 1.2850482909 0.2043945364 -428.2699862429 0.0536587645 -0.0150773065
0.1156817024 0.7323573184 0.0000000000 1.2838177863 0.2203578507 -423.6038045758 0.0537471935 -0.0150810513
0.0848261178 0.7342711114 0.0000000000 1.2805027208 0.2368293496 -417.9423473061 0.0538323873 -0.0150882074
0.0539142486 0.7349012757 0.0000000000 1.2753853377 0.2538189805 -411.1365365832 0.0539142487 -0.0150987243
0.0229989884 0.7342468477 0.0000000000 1.2685907774 0.2712787043 -403.0404113200 0.0539927193 -0.0151124711
-0.0078667545 0.7323091346 0.0000000000 1.2601477609 0.2891139279 -393.5174605578 0.0540677548 -0.0151292352
-0.0386301722 0.7290917097 0.0000000000 1.2500325894 0.3071937910 -382.4458782522 0.0541393014 -0.0151487251
-0.0692386700 0.7246004011 0.0000000000 1.2381992513 0.3253597897 -369.7226709550 0.0542072728 -0.0151705764
-0.0996399764 0.7188432729 0.0000000000 1.2245991034 0.3434328248 -355.2667156081 0.0542715304 -0.0151943611
-0.1297822499 0.7118305993 0.0000000000 1.2091932409 0.3612189913 -339.0209211535 0.0543318656 -0.0152196002
-0.1596141820 0.7035748334 0.0000000000 1.1919599655 0.3785144488 -320.9536431607 0.0543879863 -0.0152457783
-0.1890850950 0.6940905715 0.0000000000 1.1728990543 0.3951096489 -301.0594728777 0.0544395070 -0.0152723597
-0.2181450359 0.6833945121 0.0000000000 1.1520339615 0.4107931136 -279.3594925434 0.0544859422 -0.0152988039
-0.2467448658 0.6715054140 0.0000000000 1.1294126758 0.4253548813 -255.9010659590 0.0545267029 -0.0153245809
-0.2748363467 0.6584440515 0.0000000000 1.1051076816 0.4385896862 -230.7572180423 0.0545610952 -0.0153491848
-0.3023722294 0.6442331683 0.0000000000 1.0792152978 0.4502998973 -204.0256467428 0.0545883155 -0.0153721450
-0.3293063512 0.6288974330 0.0000000000 1.0518545618 0.4602982178 -175.8274018746 0.0546074358 -0.0153930326
-0.3555937609 0.6124633986 0.0000000000 1.0231657564 0.4684101263 -146.3052514478 0.0546173579 -0.0154114600
-0.3811909224 0.5949594751 0.0000000000 0.9933086340 0.4744760043 -115.6217362451 0.0546166893 -0.0154270628
-0.4060561352 0.5764159496 0.0000000000 0.9624603287 0.4783527852 -83.9567918439 0.0546033995 -0.0154394323
-0.4301506601 0.5568652307 0.0000000000 0.9308129398 0.4799145897 -51.5048223540 0.0545737685 -0.0154478203
-0.4534425507 0.5363433592 0.0000000000 0.8985701878 0.4790494527 -18.4684321686 0.0545186282 -0.0154495736
-0.4973646562 0.4925012602 0.0000000000 0.8332312059 0.4698298620 48.3671523812 0.0544282769 -0.0154599183
-0.5179176562 0.4692519078 0.0000000000 0.8005729108 0.4614031618 81.7130029871 0.0543953951 -0.0154725204
-0.5375178761 0.4451784157 0.0000000000 0.7682258413 0.4503660749 114.7217503843 0.0543375061 -0.0154811186
-0.5561229020 0.4203195164 0.0000000000 0.7364275671 0.4367422077 147.1479617890 0.0542636361 -0.0154880950
-0.5736972791 0.3947166486 0.0000000000 0.7054127822 0.4205707409 178.7531349938 0.0541775797 -0.0154944697
-0.5902088869 0.3684128560 0.0000000000 0.6754102955 0.4019123372 209.3057033574 0.0540815791 -0.0155009306
-0.6056279595 0.3414525295 0.0000000000 0.6466416911 0.3808489314 238.5822552406 0.0539773540 -0.0155080150
-0.6199268015 0.3138812960 0.0000000000 0.6193193172 0.3574831182 266.3693898864 0.0538664350 -0.0155161454
-0.6330797132 0.2857459305 0.0000000000 0.5936444314 0.3319370552 292.4655942331 0.0537502819 -0.0155256377
-0.6450629922 0.2570942741 0.0000000000 0.5698054614 0.3043511399 316.6830167861 0.0536303239 -0.0155367036
-0.6558549641 0.2279751501 0.0000000000 0.5479764406 0.2748825041 338.8490773191 0.0535079672 -0.0155494515
-0.6654360236 0.1984382776 0.0000000000 0.5283156255 0.2437033753 358.8078866044 0.0533845883 -0.0155638903
-0.6737886781 0.1685341807 0.0000000000 0.5109643140 0.2109993439 376.4214626234 0.0532615215 -0.0155799344
-0.6808975882 0.1383140958 0.0000000000 0.4960458826 0.1769675644 391.5707410293 0.0531400458 -0.0155974106
-0.6867496031 0.1078298744 0.0000000000 0.4836650506 0.1418149018 404.1563865233 0.0530213745 -0.0156160680
-0.6913337867 0.0771338839 0.0000000000 0.4739073393 0.1057560251 414.0994117358 0.0529066481 -0.0156355893
-0.6946414365 0.0462789043 0.0000000000 0.4668386654 0.0690114507 421.3415997434 0.0527969333 -0.0156556045
-0.6966660938 0.0153180217 0.0000000000 0.4625050072 0.0318055706 425.8457193903 0.0526932251 -0.0156757087
-0.6974035470 -0.0156954813 0.0000000000 0.4609321379 -0.0056352811 427.5955275930 0.0525964530 -0.0156954810
-0.6968518313 -0.0467082384 0.0000000000 0.4621254982 -0.0430846830 426.5955854801 0.0525074875 -0.0157145074
-0.6950112230 -0.0776669127 0.0000000000 0.4660702581 -0.0803178865 422.8709146749 0.0524271467 -0.0157324033
-0.6918842315 -0.1085183099 0.0000000000 0.4727315868 -0.1171134716 416.4665172470 0.0523562032 -0.0157488361
-0.6874755841 -0.1392094889 0.0000000000 0.4820551871 -0.1532549107 407.4467939483 0.0522953934 -0.0157635459