 TITLE = "Tecplot data"
 VARIABLES = "X", "Y", "Z" "U", "V", "p", "dispX", "dispY"
 ZONE SOLUTIONTIME=49.900000, NODES=26114 , ELEMENTS=25916, DATAPACKING=POINT, ZONETYPE=FEQUADRILATERAL
0.4610620286 -0.1189553799 0.0000000000 0.0000000000 0.0000000000 -121.4482587100 0.1075086380 -0.4725087705
0.4610620289 -0.8260621609 0.0000000000 0.0000000000 0.0000000000 -1040.1731390057 0.1075086380 -0.4725087705
-0.2460447527 -0.1189553800 0.0000000000 0.0000000000 0.0000000000 202.8412287558 0.1075086380 -0.4725087705
-0.2460447524 -0.8260621613 0.0000000000 0.0000000000 0.0000000000 -700.4091471158 0.1075086380 -0.4725087705
0.6356503639 0.0587111595 0.0000000000 0.1556033124 -0.1138017542 -104.3951503397 0.1053202781 -0.4716189264
0.6370927152 -1.0182690719 0.0000000000 1.2080769912 0.7331504953 -617.6312213133 0.1067626289 -0.4879389863
-0.4270083982 0.0457485230 0.0000000000 0.5730464533 0.3278611705 250.7635055428 0.1033216878 -0.4845815627
-0.4187195001 -1.0106432589 0.0000000000 1.0911964007 -0.6462506147 -284.6768625065 0.1116105855 -0.4803131727
1.1603444933 0.5822699106 0.0000000000 0.5568327990 0.6019465939 -167.7642870063 0.0996843216 -0.4783902613
1.1728121402 -1.5446714082 0.0000000000 0.9645823715 0.1936738513 -111.9948857133 0.1121519676 -0.4840112371
-0.9675197580 0.5462026645 0.0000000000 0.8192721513 0.1459357800 191.7889735760 0.0931404141 -0.5144575069
-0.9413682760 -1.5662043558 0.0000000000 1.0337013291 -0.2029252861 -36.0897205932 0.1192918952 -0.5055441835
4.2554476246 2.8808975093 0.0000000000 0.9811937972 -0.0161561495 71.6175065808 0.0554476246 -0.4191024907
4.3438012009 -3.7176982599 0.0000000000 1.0692412620 0.0051994128 7.6886470792 0.1438012009 -0.4176982599
20.0000000000 4.7000000000 0.0000000000 1.0643162570 0.1496665554 0.9832345390 0.0000000000 0.0000000000
20.0000000000 -4.7000000000 0.0000000000 1.0894969971 -0.0422458424 0.5279267299 0.0000000000 0.0000000000
-10.0000000000 15.0000000000 0.0000000000 1.0000000000 0.0000000000 71.1842088406 0.0000000000 0.0000000000
20.0000000000 15.0000000000 0.0000000000 1.0480752484 0.0000000000 -0.0090187114 0.0000000000 0.0000000000
20.0000000000 -15.0000000000 0.0000000000 1.0378355935 0.0000000000 -0.0060056432 0.0000000000 0.0000000000
-10.0000000000 -15.0000000000 0.0000000000 1.0000000000 0.0000000000 24.3897793313 0.0000000000 0.0000000000
0.4740345742 -0.8125951392 0.0000000000 0.0000000000 0.0000000000 -1009.3595297408 0.1075086380 -0.4725087705
0.4864944998 -0.7986524759 0.0000000000 0.0000000000 0.0000000000 -960.2943127655 0.1075086380 -0.4725087705
0.4984243795 -0.7842536712 0.0000000000 0.0000000000 0.0000000000 -920.9096905412 0.1075086380 -0.4725087705
0.5098075281 -0.7694188630 0.0000000000 0.0000000000 0.0000000000 -877.3811750630 0.1075086380 -0.4725087705
0.5206280254 -0.7541687993 0.0000000000 0.0000000000 0.0000000000 -836.6503864954 0.1075086380 -0.4725087705
0.5308707378 -0.7385248085 0.0000000000 0.0000000000 0.0000000000 -795.5313266176 0.1075086380 -0.4725087705
0.5405213401 -0.7225087703 0.0000000000 0.0000000000 0.0000000000 -755.7569169483 0.1075086380 -0.4725087705
0.5495663349 -0.7061430844 0.0000000000 0.0000000000 0.0000000000 -716.6620107082 0.1075086380 -0.4725087705
0.5579930721 -0.6894506398 0.0000000000 0.0000000000 0.0000000000 -678.7298240910 0.1075086380 -0.4725087705
0.5657897661 -0.6724547824 0.0000000000 0.0000000000 0.0000000000 -641.8731819835 0.1075086380 -0.4725087705
0.5729455124 -0.6551792824 0.0000000000 0.0000000000 0.0000000000 -606.2564632019 0.1075086380 -0.4725087705
0.5794503033 -0.6376483012 0.0000000000 0.0000000000 0.0000000000 -571.9417611494 0.1075086380 -0.4725087705
0.5852950410 -0.6198863575 0.0000000000 0.0000000000 0.0000000000 -538.9217172022 0.1075086380 -0.4725087705
0.5904715512 -0.6019182928 0.0000000000 0.0000000000 0.0000000000 -507.5254217206 0.1075086380 -0.4725087705
0.5949725942 -0.5837692373 0.0000000000 0.0000000000 0.0000000000 -477.3317207010 0.1075086380 -0.4725087705
0.5987918747 -0.5654645739 0.0000000000 0.0000000000 0.0000000000 -448.2903217996 0.1075086380 -0.4725087705
0.6019240512 -0.5470299034 0.0000000000 0.0000000000 0.0000000000 -420.6919412748 0.1075086380 -0.4725087705
0.6043647430 -0.5284910084 0.0000000000 0.0000000000 0.0000000000 -395.1103449641 0.1075086380 -0.4725087705
0.6061105366 -0.5098738171 0.0000000000 0.0000000000 0.0000000000 -370.9741497354 0.1075086380 -0.4725087705
0.6071589904 -0.4912043675 0.0000000000 0.0000000000 0.0000000000 -348.2080441999 0.1075086380 -0.4725087705
0.6075086380 -0.4725087703 0.0000000000 0.0000000000 0.0000000000 -326.8711760486 0.1075086380 -0.4725087705
0.6071589904 -0.4538131732 0.0000000000 0.0000000000 0.0000000000 -306.9662565023 0.1075086380 -0.4725087705
0.6061105366 -0.4351437235 0.0000000000 0.0000000000 0.0000000000 -288.3775373928 0.1075086380 -0.4725087705
0.6043647429 -0.4165265323 0.0000000000 0.0000000000 0.0000000000 -271.1128764167 0.1075086380 -0.4725087705
0.6019240511 -0.3979876373 0.0000000000 0.0000000000 0.0000000000 -255.0915173811 0.1075086380 -0.4725087705
0.5987918746 -0.3795529668 0.0000000000 0.0000000000 0.0000000000 -240.2675112796 0.1075086380 -0.4725087705
0.5949725941 -0.3612483034 0.0000000000 0.0000000000 0.0000000000 -226.5424907370 0.1075086380 -0.4725087705
0.5904715511 -0.3430992478 0.0000000000 0.0000000000 0.0000000000 -214.1023104088 0.1075086380 -0.4725087705
0.5852950409 -0.3251311832 0.0000000000 0.0000000000 0.0000000000 -202.0061840578 0.1075086380 -0.4725087705
0.5794503031 -0.3073692394 0.0000000000 0.0000000000 0.0000000000 -193.4487555714 0.1075086380 -0.4725087705
0.5729455123 -0.2898382582 0.0000000000 0.0000000000 0.0000000000 -177.5584563523 0.1075086380 -0.4725087705
0.5657897659 -0.2725627583 0.0000000000 0.0000000000 0.0000000000 -175.3969202048 0.1075086380 -0.4725087705
0.5579930719 -0.2555669009 0.0000000000 0.0000000000 0.0000000000 -164.3071056694 0.1075086380 -0.4725087705
0.5495663347 -0.2388744563 0.0000000000 0.0000000000 0.0000000000 -158.3161296720 0.1075086380 -0.4725087705
0.5405213399 -0.2225087704 0.0000000000 0.0000000000 0.0000000000 -151.6236916601 0.1075086380 -0.4725087705
0.5308707376 -0.2064927322 0.0000000000 0.0000000000 0.0000000000 -145.9230014687 0.1075086380 -0.4725087705
0.5206280251 -0.1908487414 0.0000000000 0.0000000000 0.0000000000 -140.7645561344 0.1075086380 -0.4725087705
0.5098075279 -0.1755986777 0.0000000000 0.0000000000 0.0000000000 -136.0157470864 0.1075086380 -0.4725087705
0.4984243792 -0.1607638695 0.0000000000 0.0000000000 0.0000000000 -131.9565695865 0.1075086380 -0.4725087705
0.4864944996 -0.1463650648 0.0000000000 0.0000000000 0.0000000000 -127.9642877337 0.1075086380 -0.4725087705
0.4740345739 -0.1324224016 0.0000000000 0.0000000000 0.0000000000 -124.8958149192 0.1075086380 -0.4725087705
0.4461494238 -0.1046468152 0.0000000000 0.0000000000 0.0000000000 -118.8205179572 0.1075086380 -0.4725087705
0.4306582569 -0.0909667364 0.0000000000 0.0000000000 0.0000000000 -116.0344256861 0.1075086380 -0.4725087705
0.4146149943 -0.0779385158 0.0000000000 0.0000000000 0.0000000000 -113.8575467356 0.1075086380 -0.4725087705
0.3980470457 -0.0655844119 0.0000000000 0.0000000000 0.0000000000 -111.7597311231 0.1075086380 -0.4725087705
0.3809827170 -0.0539255314 0.0000000000 0.0000000000 0.0000000000 -109.9465568384 0.1075086380 -0.4725087705
0.3634511625 -0.0429817933 0.0000000000 0.0000000000 0.0000000000 -108.1852906559 0.1075086380 -0.4725087705
0.3454823345 -0.0327718949 0.0000000000 0.0000000000 0.0000000000 -106.5049782136 0.1075086380 -0.4725087705
0.3271069324 -0.0233132795 0.0000000000 0.0000000000 0.0000000000 -104.7907175850 0.1075086380 -0.4725087705
0.3083563503 -0.0146221072 0.0000000000 0.0000000000 0.0000000000 -103.0287729853 0.1075086380 -0.4725087705
0.2892626232 -0.0067132265 0.0000000000 0.0000000000 0.0000000000 -101.1622215864 0.1075086380 -0.4725087705
0.2698583725 0.0003998504 0.0000000000 0.0000000000 0.0000000000 -99.1744053751 0.1075086380 -0.4725087705
0.2501767501 0.0067049707 0.0000000000 0.0000000000 0.0000000000 -97.0353009799 0.1075086380 -0.4725087705
0.2302513815 0.0121913625 0.0000000000 0.0000000000 0.0000000000 -94.7283356598 0.1075086380 -0.4725087705
0.2101163090 0.0168496522 0.0000000000 0.0000000000 0.0000000000 -92.2298176018 0.1075086380 -0.4725087705
0.1898059331 0.0206718812 0.0000000000 0.0000000000 0.0000000000 -89.5170547259 0.1075086380 -0.4725087705
0.1693549536 0.0236515194 0.0000000000 0.0000000000 0.0000000000 -86.5602738111 0.1075086380 -0.4725087705
0.1487983107 0.0257834760 0.0000000000 0.0000000000 0.0000000000 -83.3245845074 0.1075086380 -0.4725087705
0.1281711250 0.0270641087 0.0000000000 0.0000000000 0.0000000000 -79.7663060221 0.1075086380 -0.4725087705
0.1075086379 0.0274912295 0.0000000000 0.0000000000 0.0000000000 -75.8326658313 0.1075086380 -0.4725087705
0.0868461508 0.0270641087 0.0000000000 0.0000000000 0.0000000000 -71.4595824443 0.1075086380 -0.4725087705
0.0662189652 0.0257834760 0.0000000000 0.0000000000 0.0000000000 -66.5706959415 0.1075086380 -0.4725087705
0.0456623223 0.0236515193 0.0000000000 0.0000000000 0.0000000000 -61.0760164105 0.1075086380 -0.4725087705
0.0252113428 0.0206718812 0.0000000000 0.0000000000 0.0000000000 -54.8713959167 0.1075086380 -0.4725087705
0.0049009668 0.0168496521 0.0000000000 0.0000000000 0.0000000000 -47.8384874224 0.1075086380 -0.4725087705
-0.0152341057 0.0121913624 0.0000000000 0.0000000000 0.0000000000 -39.8458061395 0.1075086380 -0.4725087705
-0.0351594742 0.0067049707 0.0000000000 0.0000000000 0.0000000000 -30.7510267546 0.1075086380 -0.4725087705
-0.0548410967 0.0003998503 0.0000000000 0.0000000000 0.0000000000 -20.4049026732 0.1075086380 -0.4725087705
-0.0742453474 -0.0067132265 0.0000000000 0.0000000000 0.0000000000 -8.6569341522 0.1075086380 -0.4725087705
-0.0933390744 -0.0146221072 0.0000000000 0.0000000000 0.0000000000 4.6371888081 0.1075086380 -0.4725087705
-0.1120896565 -0.0233132796 0.0000000000 0.0000000000 0.0000000000 19.6066394293 0.1075086380 -0.4725087705
-0.1304650586 -0.0327718950 0.0000000000 0.0000000000 0.0000000000 36.3555276136 0.1075086380 -0.4725087705
-0.1484338866 -0.0429817934 0.0000000000 0.0000000000 0.0000000000 54.9527764879 0.1075086380 -0.4725087705
-0.1659654412 -0.0539255315 0.0000000000 0.0000000000 0.0000000000 75.4227249241 0.1075086380 -0.4725087705
-0.1830297698 -0.0655844120 0.0000000000 0.0000000000 0.0000000000 97.7373888592 0.1075086380 -0.4725087705
-0.1995977184 -0.0779385159 0.0000000000 0.0000000000 0.0000000000 121.8111669704 0.1075086380 -0.4725087705
-0.2156409810 -0.0909667365 0.0000000000 0.0000000000 0.0000000000 147.4985378045 0.1075086380 -0.4725087705
-0.2311321479 -0.1046468153 0.0000000000 0.0000000000 0.0000000000 174.5949924247 0.1075086380 -0.4725087705
-0.2603533174 -0.1338679848 0.0000000000 0.0000000000 0.0000000000 231.9303163389 0.1075086380 -0.4725087705
-0.2740333962 -0.1493591517 0.0000000000 0.0000000000 0.0000000000 261.5175680677 0.1075086380 -0.4725087705
-0.2870616168 -0.1654024143 0.0000000000 0.0000000000 0.0000000000 291.2310657254 0.1075086380 -0.4725087705
-0.2994157207 -0.1819703630 0.0000000000 0.0000000000 0.0000000000 320.6764748184 0.1075086380 -0.4725087705
-0.3110746012 -0.1990346916 0.0000000000 0.0000000000 0.0000000000 349.4094327425 0.1075086380 -0.4725087705
-0.3220183393 -0.2165662461 0.0000000000 0.0000000000 0.0000000000 376.8436848282 0.1075086380 -0.4725087705
-0.3322282377 -0.2345350742 0.0000000000 0.0000000000 0.0000000000 402.2832076233 0.1075086380 -0.4725087705
-0.3416868530 -0.2529104763 0.0000000000 0.0000000000 0.0000000000 425.2740723377 0.1075086380 -0.4725087705
-0.3503780254 -0.2716610584 0.0000000000 0.0000000000 0.0000000000 445.5802884554 0.1075086380 -0.4725087705
-0.3582869061 -0.2907547854 0.0000000000 0.0000000000 0.0000000000 462.9464193474 0.1075086380 -0.4725087705
-0.3653999829 -0.3101590361 0.0000000000 0.0000000000 0.0000000000 477.0301817393 0.1075086380 -0.4725087705
-0.3717051033 -0.3298406586 0.0000000000 0.0000000000 0.0000000000 487.4744740656 0.1075086380 -0.4725087705
-0.3771914950 -0.3497660271 0.0000000000 0.0000000000 0.0000000000 493.9506365932 0.1075086380 -0.4725087705
-0.3818497847 -0.3699010996 0.0000000000 0.0000000000 0.0000000000 496.1711307608 0.1075086380 -0.4725087705
-0.3856720137 -0.3902114756 0.0000000000 0.0000000000 0.0000000000 493.8918298849 0.1075086380 -0.4725087705
-0.3886516519 -0.4106624551 0.0000000000 0.0000000000 0.0000000000 486.9153098512 0.1075086380 -0.4725087705
-0.3907836085 -0.4312190980 0.0000000000 0.0000000000 0.0000000000 475.0868118652 0.1075086380 -0.4725087705
-0.3920642412 -0.4518462836 0.0000000000 0.0000000000 0.0000000000 458.3029854392 0.1075086380 -0.4725087705
-0.3924913620 -0.4725087707 0.0000000000 0.0000000000 0.0000000000 436.4960281614 0.1075086380 -0.4725087705
-0.3920642412 -0.4931712579 0.0000000000 0.0000000000 0.0000000000 409.6631704312 0.1075086380 -0.4725087705
-0.3907836085 -0.5137984435 0.0000000000 0.0000000000 0.0000000000 377.8113512309 0.1075086380 -0.4725087705
-0.3886516518 -0.5343550864 0.0000000000 0.0000000000 0.0000000000 341.0579400602 0.1075086380 -0.4725087705
-0.3856720136 -0.5548060659 0.0000000000 0.0000000000 0.0000000000 299.4434360083 0.1075086380 -0.4725087705
-0.3818497846 -0.5751164418 0.0000000000 0.0000000000 0.0000000000 253.2723992807 0.1075086380 -0.4725087705
-0.3771914949 -0.5952515143 0.0000000000 0.0000000000 0.0000000000 202.4869347279 0.1075086380 -0.4725087705
-0.3717051031 -0.6151768829 0.0000000000 0.0000000000 0.0000000000 147.8048153577 0.1075086380 -0.4725087705
-0.3653999828 -0.6348585053 0.0000000000 0.0000000000 0.0000000000 88.6584270135 0.1075086380 -0.4725087705
-0.3582869059 -0.6542627560 0.0000000000 0.0000000000 0.0000000000 26.8733916716 0.1075086380 -0.4725087705
-0.3503780252 -0.6733564831 0.0000000000 0.0000000000 0.0000000000 -39.7057218661 0.1075086380 -0.4725087705
-0.3416868528 -0.6921070652 0.0000000000 0.0000000000 0.0000000000 -106.7770200354 0.1075086380 -0.4725087705
-0.3322282375 -0.7104824673 0.0000000000 0.0000000000 0.0000000000 -178.0264448928 0.1075086380 -0.4725087705
-0.3220183390 -0.7284512953 0.0000000000 0.0000000000 0.0000000000 -251.0518850499 0.1075086380 -0.4725087705
-0.3110746010 -0.7459828498 0.0000000000 0.0000000000 0.0000000000 -345.6791857959 0.1075086380 -0.4725087705
-0.2994157205 -0.7630471784 0.0000000000 0.0000000000 0.0000000000 -351.6091221126 0.1075086380 -0.4725087705
-0.2870616165 -0.7796151271 0.0000000000 0.0000000000 0.0000000000 -591.7074326570 0.1075086380 -0.4725087705
-0.2740333959 -0.7956583896 0.0000000000 0.0000000000 0.0000000000 -424.3813939247 0.1075086380 -0.4725087705
-0.2603533171 -0.8111495565 0.0000000000 0.0000000000 0.0000000000 -846.4003518360 0.1075086380 -0.4725087705
-0.2311321476 -0.8403707260 0.0000000000 0.0000000000 0.0000000000 -548.1642347113 0.1075086380 -0.4725087705
-0.2156409807 -0.8540508048 0.0000000000 0.0000000000 0.0000000000 -1136.4968402318 0.1075086380 -0.4725087705
-0.1995977181 -0.8670790254 0.0000000000 0.0000000000 0.0000000000 -880.5845521422 0.1075086380 -0.4725087705
-0.1830297695 -0.8794331293 0.0000000000 0.0000000000 0.0000000000 -1083.4896416023 0.1075086380 -0.4725087705
-0.1659654408 -0.8910920098 0.0000000000 0.0000000000 0.0000000000 -1058.0756431899 0.1075086380 -0.4725087705
-0.1484338863 -0.9020357478 0.0000000000 0.0000000000 0.0000000000 -1171.9922265584 0.1075086380 -0.4725087705
-0.1304650583 -0.9122456463 0.0000000000 0.0000000000 0.0000000000 -1200.9256614341 0.1075086380 -0.4725087705
-0.1120896562 -0.9217042616 0.0000000000 0.0000000000 0.0000000000 -1277.7032416533 0.1075086380 -0.4725087705
-0.0933390740 -0.9303954340 0.0000000000 0.0000000000 0.0000000000 -1319.3138863462 0.1075086380 -0.4725087705
-0.0742453470 -0.9383043147 0.0000000000 0.0000000000 0.0000000000 -1376.9328085482 0.1075086380 -0.4725087705
-0.0548410963 -0.9454173915 0.0000000000 0.0000000000 0.0000000000 -1417.6922011416 0.1075086380 -0.4725087705
-0.0351594738 -0.9517225118 0.0000000000 0.0000000000 0.0000000000 -1461.9366626387 0.1075086380 -0.4725087705
-0.0152341053 -0.9572089036 0.0000000000 0.0000000000 0.0000000000 -1496.4073536249 0.1075086380 -0.4725087705
0.0049009672 -0.9618671932 0.0000000000 0.0000000000 0.0000000000 -1529.2223342681 0.1075086380 -0.4725087705
0.0252113432 -0.9656894223 0.0000000000 0.0000000000 0.0000000000 -1555.0450103789 0.1075086380 -0.4725087705
0.0456623227 -0.9686690604 0.0000000000 0.0000000000 0.0000000000 -1577.1095590108 0.1075086380 -0.4725087705
0.0662189656 -0.9708010171 0.0000000000 0.0000000000 0.0000000000 -1593.3211244149 0.1075086380 -0.4725087705
0.0868461512 -0.9720816497 0.0000000000 0.0000000000 0.0000000000 -1604.9922808286 0.1075086380 -0.4725087705
0.1075086383 -0.9725087705 0.0000000000 0.0000000000 0.0000000000 -1611.3703341468 0.1075086380 -0.4725087705
0.1281711255 -0.9720816497 0.0000000000 0.0000000000 0.0000000000 -1613.0426175220 0.1075086380 -0.4725087705
0.1487983111 -0.9708010170 0.0000000000 0.0000000000 0.0000000000 -1609.8249271929 0.1075086380 -0.4725087705
0.1693549540 -0.9686690604 0.0000000000 0.0000000000 0.0000000000 -1602.0557596577 0.1075086380 -0.4725087705
0.1898059335 -0.9656894222 0.0000000000 0.0000000000 0.0000000000 -1589.8031322403 0.1075086380 -0.4725087705
0.2101163094 -0.9618671931 0.0000000000 0.0000000000 0.0000000000 -1573.3391380446 0.1075086380 -0.4725087705
0.2302513819 -0.9572089034 0.0000000000 0.0000000000 0.0000000000 -1552.8527739964 0.1075086380 -0.4725087705
0.2501767505 -0.9517225117 0.0000000000 0.0000000000 0.0000000000 -1528.6121698305 0.1075086380 -0.4725087705
0.2698583729 -0.9454173913 0.0000000000 0.0000000000 0.0000000000 -1500.8716108821 0.1075086380 -0.4725087705
0.2892626236 -0.9383043144 0.0000000000 0.0000000000 0.0000000000 -1469.9058762775 0.1075086380 -0.4725087705
0.3083563507 -0.9303954337 0.0000000000 0.0000000000 0.0000000000 -1436.0175414702 0.1075086380 -0.4725087705
0.3271069327 -0.9217042613 0.0000000000 0.0000000000 0.0000000000 -1399.4586550400 0.1075086380 -0.4725087705
0.3454823348 -0.9122456460 0.0000000000 0.0000000000 0.0000000000 -1360.6244278660 0.1075086380 -0.4725087705
0.3634511629 -0.9020357475 0.0000000000 0.0000000000 0.0000000000 -1319.5948781338 0.1075086380 -0.4725087705
0.3809827174 -0.8910920095 0.0000000000 0.0000000000 0.0000000000 -1277.1695225581 0.1075086380 -0.4725087705
0.3980470460 -0.8794331290 0.0000000000 0.0000000000 0.0000000000 -1232.5117002275 0.1075086380 -0.4725087705
0.4146149946 -0.8670790250 0.0000000000 0.0000000000 0.0000000000 -1188.5234962888 0.1075086380 -0.4725087705
0.4306582572 -0.8540508044 0.0000000000 0.0000000000 0.0000000000 -1139.6251877145 0.1075086380 -0.4725087705
0.4461494241 -0.8403707256 0.0000000000 0.0000000000 0.0000000000 -1099.2131285120 0.1075086380 -0.4725087705
0.6561764443 -0.9977481770 0.0000000000 1.1639887044 0.7548846573 -597.4383134844 0.1063875401 -0.4876186241
0.6747801794 -0.9770623362 0.0000000000 1.1188180039 0.7733429915 -576.0418751211 0.1063013867 -0.4878467782
0.6926311119 -0.9558229892 0.0000000000 1.0726849803 0.7892254699 -554.5078954154 0.1062574998 -0.4882056382
0.7096704324 -0.9339585502 0.0000000000 1.0257372763 0.8026142831 -533.0603633651 0.1062220973 -0.4885934114
0.7258619849 -0.9114609317 0.0000000000 0.9781304983 0.8135184255 -511.8481950773 0.1061829039 -0.4889708885
0.7411760239 -0.8883446218 0.0000000000 0.9300311676 0.8219211500 -490.9772913162 0.1061328742 -0.4893205648
0.7555870133 -0.8646342772 0.0000000000 0.8816176735 0.8278000919 -470.5349564924 0.1060679602 -0.4896342776
0.7690730790 -0.8403598113 0.0000000000 0.8330796515 0.8311348559 -450.5932143881 0.1059865336 -0.4899083405
0.7816155195 -0.8155540688 0.0000000000 0.7846178868 0.8319119784 -431.2114903425 0.1058888683 -0.4901412648
0.7931982872 -0.7902516070 0.0000000000 0.7364437254 0.8301283177 -412.4378928844 0.1057765952 -0.4903325892
0.8038075332 -0.7644880245 0.0000000000 0.6887777792 0.8257933710 -394.3099473787 0.1056522216 -0.4904822566
0.8134312669 -0.7382995735 0.0000000000 0.6418479240 0.8189305735 -376.8549115990 0.1055187690 -0.4905902774
0.8220591271 -0.7117229201 0.0000000000 0.5958867109 0.8095776355 -360.0898974249 0.1053795226 -0.4906565397
0.8296822294 -0.6847949810 0.0000000000 0.5511282762 0.7977860061 -344.0219871097 0.1052378596 -0.4906806976
0.8362930567 -0.6575528045 0.0000000000 0.5078047542 0.7836196107 -328.6484893882 0.1050971225 -0.4906621044
0.8418853717 -0.6300334820 0.0000000000 0.4661420652 0.7671530473 -313.9574201731 0.1049605167 -0.4905997769
0.8464541397 -0.6022740853 0.0000000000 0.4263548495 0.7484694056 -299.9282271156 0.1048310199 -0.4904923861
0.8499954615 -0.5743116308 0.0000000000 0.3886403155 0.7276577335 -286.5327122447 0.1047113041 -0.4903382740
0.8525065166 -0.5461830677 0.0000000000 0.3531710323 0.7048099367 -273.7360539250 0.1046036687 -0.4901354978
0.8539855185 -0.5179252947 0.0000000000 0.3200873459 0.6800166523 -261.4978084719 0.1045099899 -0.4898818993
0.8544316858 -0.4895752004 0.0000000000 0.2894911276 0.6533616376 -249.7728169310 0.1044316858 -0.4895752007
0.8538452267 -0.4611697280 0.0000000000 0.2614436390 0.6249147143 -238.5120884700 0.1043696982 -0.4892131240
0.8522273362 -0.4327459586 0.0000000000 0.2359706354 0.5947244101 -227.6639952975 0.1043244883 -0.4887935291
0.8495802048 -0.4043412079 0.0000000000 0.2130763622 0.5628127590 -217.1764546930 0.1042960474 -0.4883145652
0.8459070372 -0.3759931283 0.0000000000 0.1927641701 0.5291753749 -207.0010281713 0.1042839176 -0.4877748282
0.8412120805 -0.3477398075 0.0000000000 0.1750558976 0.4937889433 -197.0997308337 0.1042872256 -0.4871735131
0.8355006655 -0.3196198535 0.0000000000 0.1599980305 0.4566257440 -187.4544636733 0.1043047315 -0.4865105542
0.8287792631 -0.2916724559 0.0000000000 0.1476444012 0.4176725661 -178.0772624489 0.1043348935 -0.4857867400
0.8210555605 -0.2639374144 0.0000000000 0.1380155010 0.3769521346 -169.0175665003 0.1043759563 -0.4850037954
0.8123385617 -0.2364551232 0.0000000000 0.1310500421 0.3345495030 -160.3617609936 0.1044260640 -0.4841644198
0.8026387126 -0.2092665050 0.0000000000 0.1265749763 0.2906492096 -152.2217335755 0.1044834012 -0.4832722734
0.7919680506 -0.1824128824 0.0000000000 0.1243142847 0.2455835955 -144.7133354945 0.1045463588 -0.4823319008
0.7803403662 -0.1559357799 0.0000000000 0.1239334159 0.1998764466 -137.9305891071 0.1046137154 -0.4813485844
0.7677713503 -0.1298766476 0.0000000000 0.1250912783 0.1542509417 -131.9240990760 0.1046848052 -0.4803281190
0.7542786700 -0.1042765119 0.0000000000 0.1274680898 0.1095766473 -126.6904462761 0.1047596173 -0.4792765121
0.7398818837 -0.0791755839 0.0000000000 0.1307610139 0.0667627489 -122.1745500969 0.1048387343 -0.4781996414
0.7246020898 -0.0546129222 0.0000000000 0.1346688430 0.0266415916 -118.2823369804 0.1049230092 -0.4771029659
0.7084612629 -0.0306263461 0.0000000000 0.1388950653 -0.0101039569 -114.8987578158 0.1050129281 -0.4759914854
0.6914813421 -0.0072529566 0.0000000000 0.1431823967 -0.0429420752 -111.9061990401 0.1051077303 -0.4748703081
0.6736830095 0.0154688180 0.0000000000 0.1473696717 -0.0714366375 -109.1999892237 0.1052042172 -0.4737467405
0.6550839717 0.0374933848 0.0000000000 0.1514516081 -0.0951770411 -106.6989984423 0.1052950679 -0.4726361686
0.6132046993 0.0813988094 0.0000000000 0.1607577386 -0.1279872640 -101.9181141766 0.1052435206 -0.4703941237
0.5898525573 0.1029229059 0.0000000000 0.1670982821 -0.1350054823 -99.6276220882 0.1051281289 -0.4693901453
0.5656870476 0.1233625693 0.0000000000 0.1752636565 -0.1350994326 -97.4932527013 0.1050275132 -0.4684928128
0.5407490379 0.1427037236 0.0000000000 0.1856818357 -0.1290907386 -95.4883749259 0.1049414264 -0.4676828144
0.5150787353 0.1609234041 0.0000000000 0.1984852262 -0.1182769508 -93.5538061925 0.1048676168 -0.4669514546
0.4887157926 0.1779950898 0.0000000000 0.2135620311 -0.1041236631 -91.6068334359 0.1048020059 -0.4662953760
0.4617005533 0.1938904790 0.0000000000 0.2306963930 -0.0879122288 -89.5635964862 0.1047400086 -0.4657148345
0.4340747699 0.2085804830 0.0000000000 0.2497140298 -0.0704965725 -87.3556202697 0.1046773283 -0.4652127535
0.4058819611 0.2220363114 0.0000000000 0.2705744244 -0.0522286411 -84.9326589428 0.1046103928 -0.4647936836
0.3771674501 0.2342304661 0.0000000000 0.2933973745 -0.0330178828 -82.2558396750 0.1045364723 -0.4644628500
0.3479782271 0.2451374950 0.0000000000 0.3184379441 -0.0124572278 -79.2879875822 0.1044536253 -0.4642254363
0.3183627682 0.2547345169 0.0000000000 0.3460256150 0.0100360932 -75.9855516642 0.1043606001 -0.4640860950
0.2883708801 0.2630015887 0.0000000000 0.3764752083 0.0350854334 -72.2937607741 0.1042567648 -0.4640486108
0.2580535926 0.2699219703 0.0000000000 0.4099734523 0.0632238341 -68.1452496476 0.1041420861 -0.4641156637
0.2274630861 0.2754823011 0.0000000000 0.4464517442 0.0947619700 -63.4620399216 0.1040171435 -0.4642886765
0.1966526306 0.2796726839 0.0000000000 0.4854695157 0.1296611476 -58.1605634728 0.1038831573 -0.4645677509
0.1656765098 0.2824866758 0.0000000000 0.5261446691 0.1674350742 -52.1588617188 0.1037420008 -0.4649516940
0.1345899073 0.2839212005 0.0000000000 0.5671677151 0.2071154785 -45.3842849188 0.1035961767 -0.4654381183
0.1034487467 0.2839764175 0.0000000000 0.6069186650 0.2473119104 -37.7795755149 0.1034487468 -0.4660235825
0.0723094832 0.2826555838 0.0000000000 0.6436734931 0.2863723623 -29.3057938789 0.1033032140 -0.4667037350
0.0412288595 0.2799649441 0.0000000000 0.6758530757 0.3226166010 -19.9420267512 0.1031633688 -0.4674734257
0.0102636399 0.2759136649 0.0000000000 0.7022489693 0.3545848292 -9.6831343779 0.1030331135 -0.4683267699
-0.0205296608 0.2705138132 0.0000000000 0.7221676291 0.3812364986 1.4630619917 0.1029162821 -0.4692571643
-0.0510950412 0.2637803646 0.0000000000 0.7354640485 0.4020521992 13.4785390418 0.1028164656 -0.4702572694
-0.0813772628 0.2557312234 0.0000000000 0.7424723264 0.4170255657 26.3378137423 0.1027368528 -0.4713189760
-0.1113220829 0.2463872371 0.0000000000 0.7438682215 0.4265653916 40.0106627520 0.1026800854 -0.4724333747
-0.1408764703 0.2357721967 0.0000000000 0.7405088525 0.4313478732 54.4644285069 0.1026481318 -0.4735907345
-0.1699888032 0.2239128241 0.0000000000 0.7332885095 0.4321615510 69.6653385821 0.1026421749 -0.4747804919
-0.1986090507 0.2108387546 0.0000000000 0.7230341096 0.4297772729 85.5784266402 0.1026625179 -0.4759912403
-0.2266889321 0.1965825350 0.0000000000 0.7104471212 0.4248597743 102.1659678120 0.1027085097 -0.4772107013
-0.2541820555 0.1811796726 0.0000000000 0.6960862615 0.4179228886 119.3846318307 0.1027784894 -0.4784256407
-0.2810440369 0.1646688137 0.0000000000 0.6803789306 0.4093206905 137.1817310181 0.1028697501 -0.4796216520
-0.3072326122 0.1470922297 0.0000000000 0.6636484664 0.3992627885 155.4910241792 0.1029785066 -0.4807826288
-0.3327077845 0.1284970754 0.0000000000 0.6461469692 0.3878422730 174.2283343367 0.1030998272 -0.4818894624
-0.3574321506 0.1089387570 0.0000000000 0.6280875928 0.3750672362 193.2875452243 0.1032273841 -0.4829166249
-0.3813723205 0.0884911155 0.0000000000 0.6096774146 0.3608906873 212.5323264944 0.1033521080 -0.4838219356
-0.4045071538 0.0672821672 0.0000000000 0.5911593137 0.3452253141 231.7991674844 0.1034540251 -0.4845107656
-0.4480453586 0.0214848800 0.0000000000 0.5534907712 0.3093395187 270.0578134026 0.1037475745 -0.4864762986
-0.4683903046 -0.0030973177 0.0000000000 0.5346413748 0.2888466329 288.8340593698 0.1039227467 -0.4878217460
-0.4877983415 -0.0283092618 0.0000000000 0.5164029361 0.2665267747 306.9169956687 0.1040570407 -0.4889687961
-0.5062192138 -0.0541784254 0.0000000000 0.4989548768 0.2423826357 324.1089165790 0.1041673243 -0.4899860367
-0.5236172999 -0.0806875321 0.0000000000 0.4825065980 0.2164350233 340.1943397844 0.1042575589 -0.4908986505
-0.5399606480 -0.1078046377 0.0000000000 0.4672764754 0.1887326402 354.9583277134 0.1043298179 -0.4917184243
-0.5552191481 -0.1354916266 0.0000000000 0.4534795774 0.1593539257 368.1931801196 0.1043861654 -0.4924521711
-0.5693642117 -0.1637070407 0.0000000000 0.4413211390 0.1284056801 379.7035065477 0.1044290249 -0.4931044821
-0.5823687333 -0.1924071567 0.0000000000 0.4309916967 0.0960206311 389.3101360856 0.1044612618 -0.4936787249
-0.5942071496 -0.2215464319 0.0000000000 0.4226634322 0.0623542442 396.8531351220 0.1044861666 -0.4941774095
-0.6048555428 -0.2510777091 0.0000000000 0.4164874571 0.0275810986 402.1940108421 0.1045073886 -0.4946023108
-0.6142917697 -0.2809523357 0.0000000000 0.4125919596 -0.0081089671 405.2171460383 0.1045288422 -0.4949545036
-0.6224956070 -0.3111202640 0.0000000000 0.4110811419 -0.0445147689 405.8305143442 0.1045545926 -0.4952343791
-0.6294489075 -0.3415301653 0.0000000000 0.4120348889 -0.0814276087 403.9657340209 0.1045887266 -0.4954416717
-0.6351357633 -0.3721295716 0.0000000000 0.4155090913 -0.1186349003 399.5775295265 0.1046352143 -0.4955755140
-0.6395426697 -0.4028650503 0.0000000000 0.4215365457 -0.1559234830 392.6426822260 0.1046977651 -0.4956345235
-0.6426586833 -0.4336824143 0.0000000000 0.4301283312 -0.1930825341 383.1585612996 0.1047796865 -0.4956169231
-0.6444755642 -0.4645269635 0.0000000000 0.4412755720 -0.2299060221 371.1413418330 0.1048837546 -0.4955206938
-0.6449878898 -0.4953437565 0.0000000000 0.4549514600 -0.2661946645 356.6240089798 0.1050121102 -0.4953437562
-0.6441931286 -0.5260779082 0.0000000000 0.4711134282 -0.3017573780 339.6542502059 0.1051661901 -0.4950841772
-0.6420916628 -0.5566749073 0.0000000000 0.4897053969 -0.3364122432 320.2923307448 0.1053467069 -0.4947403979
-0.6386867522 -0.5870809500 0.0000000000 0.5106600038 -0.3699870320 298.6090195948 0.1055536826 -0.4943114762
-0.6339844376 -0.6172432814 0.0000000000 0.5339007509 -0.4023193432 274.6836175945 0.1057865399 -0.4937973383