 TITLE = "Tecplot data"
 VARIABLES = "X", "Y", "Z" "U", "V", "p", "dispX", "dispY"
 ZONE SOLUTIONTIME=68.900000, NODES=26114 , ELEMENTS=25916, DATAPACKING=POINT, ZONETYPE=FEQUADRILATERAL
0.5372875015 1.3457087045 0.0000000000 0.0000000000 0.0000000000 -798.1717855580 0.1837341110 0.9921553138
0.5372875018 0.6386019235 0.0000000000 0.0000000000 0.0000000000 -54.6350518533 0.1837341110 0.9921553138
-0.1698192797 1.3457087043 0.0000000000 0.0000000000 0.0000000000 -908.5672881941 0.1837341110 0.9921553138
-0.1698192794 0.6386019231 0.0000000000 0.0000000000 0.0000000000 493.1581779044 0.1837341110 0.9921553138
0.7116770073 1.5221156681 0.0000000000 1.1011077203 -0.7050022597 -556.2889287578 0.1813469215 0.9917855822
0.7261561981 0.4978696639 0.0000000000 0.1467625149 0.1515866061 -37.6474124947 0.1958261119 1.0281997494
-0.3264686845 1.5519683842 0.0000000000 1.1615164136 0.7923234823 -452.9350620683 0.2038614016 1.0216382984
-0.3555430033 0.4785787682 0.0000000000 0.4021501845 -0.1431605940 277.2886281364 0.1747870823 1.0089088544
1.2604924239 2.0661810589 0.0000000000 1.0722047772 -0.1273511729 -136.0006704607 0.1998322522 1.0055208870
1.2375754682 -0.0391831745 0.0000000000 0.1918031348 -0.0079307518 -47.5932053391 0.1769152957 1.0214769965
-0.8237805893 2.1504732739 0.0000000000 1.0750342696 0.2777875147 -81.8900628664 0.2368795828 1.0898131024
-0.9060283960 0.0052497457 0.0000000000 0.6795048881 -0.0856682822 200.5851685506 0.1546317753 1.0659099180
4.4713071121 4.1828911170 0.0000000000 1.0775675338 -0.0254032961 -25.8732595494 0.2713071121 0.8828911170
4.2724572775 -2.4195164892 0.0000000000 1.1097055078 0.1299687700 -41.6277003270 0.0724572775 0.8804835108
20.0000000000 4.7000000000 0.0000000000 1.0409602384 0.0386305673 0.2425422545 0.0000000000 0.0000000000
20.0000000000 -4.7000000000 0.0000000000 1.0768263737 -0.0331448668 0.1977003712 0.0000000000 0.0000000000
-10.0000000000 15.0000000000 0.0000000000 1.0000000000 0.0000000000 6.0145700505 0.0000000000 0.0000000000
20.0000000000 15.0000000000 0.0000000000 1.0423407833 0.0000000000 0.0146476939 0.0000000000 0.0000000000
20.0000000000 -15.0000000000 0.0000000000 1.0455276816 0.0000000000 0.0213769311 0.0000000000 0.0000000000
-10.0000000000 -15.0000000000 0.0000000000 1.0000000000 0.0000000000 53.3678180055 0.0000000000 0.0000000000
0.5502600471 0.6520689452 0.0000000000 0.0000000000 0.0000000000 -52.5297032695 0.1837341110 0.9921553138
0.5627199728 0.6660116085 0.0000000000 0.0000000000 0.0000000000 -50.9794018544 0.1837341110 0.9921553138
0.5746498524 0.6804104132 0.0000000000 0.0000000000 0.0000000000 -46.6614380963 0.1837341110 0.9921553138
0.5860330010 0.6952452213 0.0000000000 0.0000000000 0.0000000000 -43.9072996785 0.1837341110 0.9921553138
0.5968534983 0.7104952851 0.0000000000 0.0000000000 0.0000000000 -44.0874451615 0.1837341110 0.9921553138
0.6070962107 0.7261392758 0.0000000000 0.0000000000 0.0000000000 -41.6035469836 0.1837341110 0.9921553138
0.6167468130 0.7421553141 0.0000000000 0.0000000000 0.0000000000 -41.0023118170 0.1837341110 0.9921553138
0.6257918079 0.7585210000 0.0000000000 0.0000000000 0.0000000000 -40.6289835067 0.1837341110 0.9921553138
0.6342185450 0.7752134445 0.0000000000 0.0000000000 0.0000000000 -40.8128023726 0.1837341110 0.9921553138
0.6420152390 0.7922093019 0.0000000000 0.0000000000 0.0000000000 -41.7295779305 0.1837341110 0.9921553138
0.6491709854 0.8094848019 0.0000000000 0.0000000000 0.0000000000 -43.1752927651 0.1837341110 0.9921553138
0.6556757762 0.8270157831 0.0000000000 0.0000000000 0.0000000000 -45.3103806128 0.1837341110 0.9921553138
0.6615205139 0.8447777269 0.0000000000 0.0000000000 0.0000000000 -48.1248940732 0.1837341110 0.9921553138
0.6666970242 0.8627457915 0.0000000000 0.0000000000 0.0000000000 -51.6886326166 0.1837341110 0.9921553138
0.6711980671 0.8808948471 0.0000000000 0.0000000000 0.0000000000 -56.1112360223 0.1837341110 0.9921553138
0.6750173476 0.8991995105 0.0000000000 0.0000000000 0.0000000000 -61.4961183986 0.1837341110 0.9921553138
0.6781495241 0.9176341810 0.0000000000 0.0000000000 0.0000000000 -67.9971144885 0.1837341110 0.9921553138
0.6805902159 0.9361730760 0.0000000000 0.0000000000 0.0000000000 -75.7291533754 0.1837341110 0.9921553138
0.6823360096 0.9547902673 0.0000000000 0.0000000000 0.0000000000 -84.9369513318 0.1837341110 0.9921553138
0.6833844634 0.9734597169 0.0000000000 0.0000000000 0.0000000000 -95.6529973133 0.1837341110 0.9921553138
0.6837341110 0.9921553140 0.0000000000 0.0000000000 0.0000000000 -108.2003127132 0.1837341110 0.9921553138
0.6833844634 1.0108509112 0.0000000000 0.0000000000 0.0000000000 -122.5813992815 0.1837341110 0.9921553138
0.6823360095 1.0295203608 0.0000000000 0.0000000000 0.0000000000 -139.0326910438 0.1837341110 0.9921553138
0.6805902159 1.0481375521 0.0000000000 0.0000000000 0.0000000000 -157.6210622166 0.1837341110 0.9921553138
0.6781495241 1.0666764471 0.0000000000 0.0000000000 0.0000000000 -178.4316876742 0.1837341110 0.9921553138
0.6750173476 1.0851111176 0.0000000000 0.0000000000 0.0000000000 -201.5141800730 0.1837341110 0.9921553138
0.6711980670 1.1034157810 0.0000000000 0.0000000000 0.0000000000 -226.8968431843 0.1837341110 0.9921553138
0.6666970241 1.1215648365 0.0000000000 0.0000000000 0.0000000000 -254.4727917411 0.1837341110 0.9921553138
0.6615205138 1.1395329012 0.0000000000 0.0000000000 0.0000000000 -284.3129203200 0.1837341110 0.9921553138
0.6556757761 1.1572948449 0.0000000000 0.0000000000 0.0000000000 -316.2158153812 0.1837341110 0.9921553138
0.6491709852 1.1748258261 0.0000000000 0.0000000000 0.0000000000 -350.0294519915 0.1837341110 0.9921553138
0.6420152389 1.1921013261 0.0000000000 0.0000000000 0.0000000000 -385.7861191906 0.1837341110 0.9921553138
0.6342185449 1.2090971835 0.0000000000 0.0000000000 0.0000000000 -423.0756687993 0.1837341110 0.9921553138
0.6257918077 1.2257896281 0.0000000000 0.0000000000 0.0000000000 -461.8929523282 0.1837341110 0.9921553138
0.6167468128 1.2421553139 0.0000000000 0.0000000000 0.0000000000 -501.9699360326 0.1837341110 0.9921553138
0.6070962105 1.2581713522 0.0000000000 0.0000000000 0.0000000000 -543.1492811236 0.1837341110 0.9921553138
0.5968534981 1.2738153429 0.0000000000 0.0000000000 0.0000000000 -585.3004084153 0.1837341110 0.9921553138
0.5860330008 1.2890654067 0.0000000000 0.0000000000 0.0000000000 -627.7098405861 0.1837341110 0.9921553138
0.5746498522 1.3039002148 0.0000000000 0.0000000000 0.0000000000 -671.9555979897 0.1837341110 0.9921553138
0.5627199725 1.3182990195 0.0000000000 0.0000000000 0.0000000000 -713.2569150007 0.1837341110 0.9921553138
0.5502600468 1.3322416828 0.0000000000 0.0000000000 0.0000000000 -761.6639404043 0.1837341110 0.9921553138
0.5223748967 1.3600172692 0.0000000000 0.0000000000 0.0000000000 -852.1349682745 0.1837341110 0.9921553138
0.5068837299 1.3736973480 0.0000000000 0.0000000000 0.0000000000 -896.5942670237 0.1837341110 0.9921553138
0.4908404673 1.3867255686 0.0000000000 0.0000000000 0.0000000000 -944.4140934733 0.1837341110 0.9921553138
0.4742725186 1.3990796725 0.0000000000 0.0000000000 0.0000000000 -990.3005654452 0.1837341110 0.9921553138
0.4572081900 1.4107385530 0.0000000000 0.0000000000 0.0000000000 -1034.8883009965 0.1837341110 0.9921553138
0.4396766355 1.4216822911 0.0000000000 0.0000000000 0.0000000000 -1078.6778455074 0.1837341110 0.9921553138
0.4217078074 1.4318921895 0.0000000000 0.0000000000 0.0000000000 -1120.4520903927 0.1837341110 0.9921553138
0.4033324053 1.4413508048 0.0000000000 0.0000000000 0.0000000000 -1161.0744345453 0.1837341110 0.9921553138
0.3845818232 1.4500419772 0.0000000000 0.0000000000 0.0000000000 -1199.5198188169 0.1837341110 0.9921553138
0.3654880962 1.4579508579 0.0000000000 0.0000000000 0.0000000000 -1235.8875372131 0.1837341110 0.9921553138
0.3460838455 1.4650639347 0.0000000000 0.0000000000 0.0000000000 -1270.1979049595 0.1837341110 0.9921553138
0.3264022230 1.4713690551 0.0000000000 0.0000000000 0.0000000000 -1301.9270150583 0.1837341110 0.9921553138
0.3064768545 1.4768554468 0.0000000000 0.0000000000 0.0000000000 -1331.1532200780 0.1837341110 0.9921553138
0.2863417820 1.4815137365 0.0000000000 0.0000000000 0.0000000000 -1357.5763774527 0.1837341110 0.9921553138
0.2660314060 1.4853359655 0.0000000000 0.0000000000 0.0000000000 -1381.0934009582 0.1837341110 0.9921553138
0.2455804265 1.4883156037 0.0000000000 0.0000000000 0.0000000000 -1401.5239167333 0.1837341110 0.9921553138
0.2250237836 1.4904475603 0.0000000000 0.0000000000 0.0000000000 -1418.7275989415 0.1837341110 0.9921553138
0.2043965980 1.4917281930 0.0000000000 0.0000000000 0.0000000000 -1432.5736664904 0.1837341110 0.9921553138
0.1837341109 1.4921553138 0.0000000000 0.0000000000 0.0000000000 -1442.9038774685 0.1837341110 0.9921553138
0.1630716237 1.4917281930 0.0000000000 0.0000000000 0.0000000000 -1449.6465464137 0.1837341110 0.9921553138
0.1424444381 1.4904475603 0.0000000000 0.0000000000 0.0000000000 -1452.6607253711 0.1837341110 0.9921553138
0.1218877952 1.4883156037 0.0000000000 0.0000000000 0.0000000000 -1451.8550811511 0.1837341110 0.9921553138
0.1014368157 1.4853359655 0.0000000000 0.0000000000 0.0000000000 -1447.1864884373 0.1837341110 0.9921553138
0.0811264398 1.4815137365 0.0000000000 0.0000000000 0.0000000000 -1438.5257027358 0.1837341110 0.9921553138
0.0609913673 1.4768554468 0.0000000000 0.0000000000 0.0000000000 -1425.8150954414 0.1837341110 0.9921553138
0.0410659987 1.4713690550 0.0000000000 0.0000000000 0.0000000000 -1409.2021012255 0.1837341110 0.9921553138
0.0213843762 1.4650639346 0.0000000000 0.0000000000 0.0000000000 -1388.2830221457 0.1837341110 0.9921553138
0.0019801256 1.4579508578 0.0000000000 0.0000000000 0.0000000000 -1363.4773434491 0.1837341110 0.9921553138
-0.0171136015 1.4500419771 0.0000000000 0.0000000000 0.0000000000 -1334.4374689009 0.1837341110 0.9921553138
-0.0358641836 1.4413508047 0.0000000000 0.0000000000 0.0000000000 -1301.5365851638 0.1837341110 0.9921553138
-0.0542395857 1.4318921894 0.0000000000 0.0000000000 0.0000000000 -1264.4806999277 0.1837341110 0.9921553138
-0.0722084137 1.4216822909 0.0000000000 0.0000000000 0.0000000000 -1223.4657459456 0.1837341110 0.9921553138
-0.0897399682 1.4107385529 0.0000000000 0.0000000000 0.0000000000 -1178.9819432847 0.1837341110 0.9921553138
-0.1068042969 1.3990796724 0.0000000000 0.0000000000 0.0000000000 -1130.2793264829 0.1837341110 0.9921553138
-0.1233722455 1.3867255684 0.0000000000 0.0000000000 0.0000000000 -1078.2518201762 0.1837341110 0.9921553138
-0.1394155081 1.3736973478 0.0000000000 0.0000000000 0.0000000000 -1023.5186127963 0.1837341110 0.9921553138
-0.1549066750 1.3600172691 0.0000000000 0.0000000000 0.0000000000 -962.7773316742 0.1837341110 0.9921553138
-0.1841278445 1.3307960995 0.0000000000 0.0000000000 0.0000000000 -826.2634364490 0.1837341110 0.9921553138
-0.1978079232 1.3153049326 0.0000000000 0.0000000000 0.0000000000 -771.6132950432 0.1837341110 0.9921553138
-0.2108361438 1.2992616700 0.0000000000 0.0000000000 0.0000000000 -705.1785946305 0.1837341110 0.9921553138
-0.2231902478 1.2826937214 0.0000000000 0.0000000000 0.0000000000 -637.1303789997 0.1837341110 0.9921553138
-0.2348491283 1.2656293928 0.0000000000 0.0000000000 0.0000000000 -568.6035961184 0.1837341110 0.9921553138
-0.2457928663 1.2480978382 0.0000000000 0.0000000000 0.0000000000 -499.9202693668 0.1837341110 0.9921553138
-0.2560027647 1.2301290102 0.0000000000 0.0000000000 0.0000000000 -431.3551021606 0.1837341110 0.9921553138
-0.2654613801 1.2117536081 0.0000000000 0.0000000000 0.0000000000 -363.2393577466 0.1837341110 0.9921553138
-0.2741525524 1.1930030260 0.0000000000 0.0000000000 0.0000000000 -295.8990308602 0.1837341110 0.9921553138
-0.2820614331 1.1739092989 0.0000000000 0.0000000000 0.0000000000 -229.6591798386 0.1837341110 0.9921553138
-0.2891745099 1.1545050483 0.0000000000 0.0000000000 0.0000000000 -164.8473928268 0.1837341110 0.9921553138
-0.2954796303 1.1348234258 0.0000000000 0.0000000000 0.0000000000 -101.7873089367 0.1837341110 0.9921553138
-0.3009660220 1.1148980572 0.0000000000 0.0000000000 0.0000000000 -40.7980008726 0.1837341110 0.9921553138
-0.3056243117 1.0947629847 0.0000000000 0.0000000000 0.0000000000 17.8082058871 0.1837341110 0.9921553138
-0.3094465408 1.0744526088 0.0000000000 0.0000000000 0.0000000000 73.7304913396 0.1837341110 0.9921553138
-0.3124261789 1.0540016293 0.0000000000 0.0000000000 0.0000000000 126.6771825192 0.1837341110 0.9921553138
-0.3145581356 1.0334449864 0.0000000000 0.0000000000 0.0000000000 176.3775476219 0.1837341110 0.9921553138
-0.3158387682 1.0128178008 0.0000000000 0.0000000000 0.0000000000 222.5676665610 0.1837341110 0.9921553138
-0.3162658890 0.9921553136 0.0000000000 0.0000000000 0.0000000000 265.0234629097 0.1837341110 0.9921553138
-0.3158387682 0.9714928265 0.0000000000 0.0000000000 0.0000000000 303.5096516071 0.1837341110 0.9921553138
-0.3145581355 0.9508656409 0.0000000000 0.0000000000 0.0000000000 337.8796115866 0.1837341110 0.9921553138
-0.3124261789 0.9303089980 0.0000000000 0.0000000000 0.0000000000 367.9077117482 0.1837341110 0.9921553138
-0.3094465407 0.9098580185 0.0000000000 0.0000000000 0.0000000000 393.5943188743 0.1837341110 0.9921553138
-0.3056243117 0.8895476425 0.0000000000 0.0000000000 0.0000000000 414.6406113767 0.1837341110 0.9921553138
-0.3009660219 0.8694125700 0.0000000000 0.0000000000 0.0000000000 431.3700235806 0.1837341110 0.9921553138
-0.2954796302 0.8494872015 0.0000000000 0.0000000000 0.0000000000 443.1431728681 0.1837341110 0.9921553138
-0.2891745098 0.8298055790 0.0000000000 0.0000000000 0.0000000000 451.0878628945 0.1837341110 0.9921553138
-0.2820614330 0.8104013283 0.0000000000 0.0000000000 0.0000000000 453.4396494331 0.1837341110 0.9921553138
-0.2741525523 0.7913076013 0.0000000000 0.0000000000 0.0000000000 453.4844250332 0.1837341110 0.9921553138
-0.2654613799 0.7725570192 0.0000000000 0.0000000000 0.0000000000 446.0689935590 0.1837341110 0.9921553138
-0.2560027645 0.7541816171 0.0000000000 0.0000000000 0.0000000000 440.5108876754 0.1837341110 0.9921553138
-0.2457928661 0.7362127891 0.0000000000 0.0000000000 0.0000000000 421.7097328515 0.1837341110 0.9921553138
-0.2348491280 0.7186812346 0.0000000000 0.0000000000 0.0000000000 416.0191727479 0.1837341110 0.9921553138
-0.2231902475 0.7016169059 0.0000000000 0.0000000000 0.0000000000 380.7821924166 0.1837341110 0.9921553138
-0.2108361436 0.6850489573 0.0000000000 0.0000000000 0.0000000000 386.2639289386 0.1837341110 0.9921553138
-0.1978079230 0.6690056947 0.0000000000 0.0000000000 0.0000000000 325.2388783416 0.1837341110 0.9921553138
-0.1841278442 0.6535145278 0.0000000000 0.0000000000 0.0000000000 280.7184944939 0.1837341110 0.9921553138
-0.1549066747 0.6242933583 0.0000000000 0.0000000000 0.0000000000 243.7858392418 0.1837341110 0.9921553138
-0.1394155078 0.6106132796 0.0000000000 0.0000000000 0.0000000000 279.7404425285 0.1837341110 0.9921553138
-0.1233722452 0.5975850590 0.0000000000 0.0000000000 0.0000000000 150.3653885703 0.1837341110 0.9921553138
-0.1068042965 0.5852309550 0.0000000000 0.0000000000 0.0000000000 232.1520930557 0.1837341110 0.9921553138
-0.0897399679 0.5735720746 0.0000000000 0.0000000000 0.0000000000 158.7484349348 0.1837341110 0.9921553138
-0.0722084133 0.5626283365 0.0000000000 0.0000000000 0.0000000000 170.8342236473 0.1837341110 0.9921553138
-0.0542395853 0.5524184381 0.0000000000 0.0000000000 0.0000000000 130.2517834798 0.1837341110 0.9921553138
-0.0358641832 0.5429598228 0.0000000000 0.0000000000 0.0000000000 121.0823989237 0.1837341110 0.9921553138
-0.0171136011 0.5342686504 0.0000000000 0.0000000000 0.0000000000 97.0484375082 0.1837341110 0.9921553138
0.0019801259 0.5263597697 0.0000000000 0.0000000000 0.0000000000 82.8470665746 0.1837341110 0.9921553138
0.0213843766 0.5192466929 0.0000000000 0.0000000000 0.0000000000 65.7974908594 0.1837341110 0.9921553138
0.0410659991 0.5129415725 0.0000000000 0.0000000000 0.0000000000 52.1151122125 0.1837341110 0.9921553138
0.0609913677 0.5074551808 0.0000000000 0.0000000000 0.0000000000 38.5781081636 0.1837341110 0.9921553138
0.0811264402 0.5027968911 0.0000000000 0.0000000000 0.0000000000 26.6461246152 0.1837341110 0.9921553138
0.1014368161 0.4989746621 0.0000000000 0.0000000000 0.0000000000 15.4595277053 0.1837341110 0.9921553138
0.1218877956 0.4959950239 0.0000000000 0.0000000000 0.0000000000 5.3274753078 0.1837341110 0.9921553138
0.1424444385 0.4938630673 0.0000000000 0.0000000000 0.0000000000 -4.0224075822 0.1837341110 0.9921553138
0.1630716241 0.4925824346 0.0000000000 0.0000000000 0.0000000000 -12.5308845823 0.1837341110 0.9921553138
0.1837341113 0.4921553138 0.0000000000 0.0000000000 0.0000000000 -20.3516211248 0.1837341110 0.9921553138
0.2043965984 0.4925824347 0.0000000000 0.0000000000 0.0000000000 -27.3523549182 0.1837341110 0.9921553138
0.2250237840 0.4938630674 0.0000000000 0.0000000000 0.0000000000 -33.9651101372 0.1837341110 0.9921553138
0.2455804269 0.4959950240 0.0000000000 0.0000000000 0.0000000000 -39.5925350888 0.1837341110 0.9921553138
0.2660314064 0.4989746622 0.0000000000 0.0000000000 0.0000000000 -44.8514008338 0.1837341110 0.9921553138
0.2863417824 0.5027968912 0.0000000000 0.0000000000 0.0000000000 -49.3792976670 0.1837341110 0.9921553138
0.3064768548 0.5074551809 0.0000000000 0.0000000000 0.0000000000 -53.4263249458 0.1837341110 0.9921553138
0.3264022234 0.5129415727 0.0000000000 0.0000000000 0.0000000000 -56.9285231658 0.1837341110 0.9921553138
0.3460838459 0.5192466931 0.0000000000 0.0000000000 0.0000000000 -59.9380067263 0.1837341110 0.9921553138
0.3654880966 0.5263597699 0.0000000000 0.0000000000 0.0000000000 -62.3081683895 0.1837341110 0.9921553138
0.3845818236 0.5342686506 0.0000000000 0.0000000000 0.0000000000 -63.9368079227 0.1837341110 0.9921553138
0.4033324057 0.5429598230 0.0000000000 0.0000000000 0.0000000000 -65.7295141855 0.1837341110 0.9921553138
0.4217078078 0.5524184384 0.0000000000 0.0000000000 0.0000000000 -65.9684001185 0.1837341110 0.9921553138
0.4396766358 0.5626283368 0.0000000000 0.0000000000 0.0000000000 -66.4568631593 0.1837341110 0.9921553138
0.4572081903 0.5735720749 0.0000000000 0.0000000000 0.0000000000 -65.9960258764 0.1837341110 0.9921553138
0.4742725190 0.5852309554 0.0000000000 0.0000000000 0.0000000000 -64.6076795538 0.1837341110 0.9921553138
0.4908404676 0.5975850593 0.0000000000 0.0000000000 0.0000000000 -63.6731771091 0.1837341110 0.9921553138
0.5068837302 0.6106132800 0.0000000000 0.0000000000 0.0000000000 -60.7193875455 0.1837341110 0.9921553138
0.5223748970 0.6242933587 0.0000000000 0.0000000000 0.0000000000 -57.3130062391 0.1837341110 0.9921553138
0.7455900287 0.5176277043 0.0000000000 0.1398844043 0.1580662395 -35.3312079120 0.1958011244 1.0277572572
0.7639144786 0.5391711988 0.0000000000 0.1337041975 0.1609460086 -32.7049252061 0.1954356859 1.0283867569
0.7813869144 0.5616823736 0.0000000000 0.1288769646 0.1599259714 -29.8148405825 0.1950133023 1.0292997246
0.7979969089 0.5849105080 0.0000000000 0.1256168305 0.1548094588 -26.7657580370 0.1945485737 1.0302756468
0.8137281763 0.6087341500 0.0000000000 0.1239578192 0.1456156370 -23.6664739496 0.1940490953 1.0312241932
0.8285681493 0.6330786483 0.0000000000 0.1238026340 0.1325571838 -20.6249429280 0.1935249996 1.0321027052
0.8425051062 0.6578897854 0.0000000000 0.1249576463 0.1159927718 -17.7460181678 0.1929860531 1.0328897850
0.8555264139 0.6831231828 0.0000000000 0.1271728697 0.0963733239 -15.1306336066 0.1924398685 1.0335746536
0.8676182115 0.7087392831 0.0000000000 0.1301906771 0.0741879073 -12.8755447803 0.1918915603 1.0341520871
0.8787658344 0.7347007343 0.0000000000 0.1337990754 0.0499138188 -11.0729404241 0.1913441423 1.0346197522
0.8889544502 0.7609709765 0.0000000000 0.1378791170 0.0239758402 -9.8097557294 0.1907991385 1.0349767444
0.8981696214 0.7875134763 0.0000000000 0.1424328271 -0.0032804856 -9.1669941782 0.1902571235 1.0352227724
0.9063977107 0.8142913109 0.0000000000 0.1475811861 -0.0315989137 -9.2196669822 0.1897181063 1.0353576913
0.9136261499 0.8412669410 0.0000000000 0.1535315748 -0.0608071546 -10.0379173056 0.1891817801 1.0353812244
0.9198436272 0.8684020905 0.0000000000 0.1605264652 -0.0908009477 -11.6895158327 0.1886476930 1.0352927906
0.9250402394 0.8956576963 0.0000000000 0.1687932255 -0.1215234973 -14.2433408523 0.1881153844 1.0350914013
0.9292076314 0.9229939128 0.0000000000 0.1785137326 -0.1529446072 -17.7729277762 0.1875845117 1.0347756121
0.9323391298 0.9503701666 0.0000000000 0.1898223856 -0.1850411558 -22.3589341231 0.1870549723 1.0343435234
0.9344298631 0.9777452625 0.0000000000 0.2028274877 -0.2177789150 -28.0895588440 0.1865270152 1.0337928323
0.9354768624 1.0050775402 0.0000000000 0.2176409493 -0.2510960639 -35.0585299716 0.1860013338 1.0331209355
0.9354791341 1.0323250842 0.0000000000 0.2343995994 -0.2848901874 -43.3609975149 0.1854791341 1.0323250839
0.9344377058 1.0594459829 0.0000000000 0.2532680308 -0.3190113479 -53.0882416203 0.1849621773 1.0314025869
0.9323556508 1.0863986308 0.0000000000 0.2744233802 -0.3532628624 -64.3223220850 0.1844528029 1.0303510604
0.9292380965 1.1131420628 0.0000000000 0.2980307428 -0.3874091101 -77.1316231906 0.1839539391 1.0291687055
0.9250922245 1.1396363039 0.0000000000 0.3242201370 -0.4211875295 -91.5678179059 0.1834691049 1.0278546040
0.9199272595 1.1658427156 0.0000000000 0.3530723437 -0.4543212624 -107.6642976279 0.1830024046 1.0264090100
0.9137544405 1.1917243186 0.0000000000 0.3846151028 -0.4865298353 -125.4357740574 0.1825585064 1.0248336179
0.9065869598 1.2172460717 0.0000000000 0.4188268367 -0.5175369207 -144.8786413950 0.1821425902 1.0231317876
0.8984398509 1.2423750902 0.0000000000 0.4556438460 -0.5470755195 -165.9717522281 0.1817602466 1.0213087092
0.8893298046 1.2670807894 0.0000000000 0.4949679402 -0.5748913828 -188.6774055786 0.1814173069 1.0193714928
0.8792748949 1.2913349381 0.0000000000 0.5366730707 -0.6007453645 -212.9424788774 0.1811195834 1.0173291696
0.8682941955 1.3151116091 0.0000000000 0.5806106485 -0.6244150786 -238.6997196629 0.1808725036 1.0151925907
0.8564072797 1.3383870069 0.0000000000 0.6266136852 -0.6456960171 -265.8692488463 0.1806806289 1.0129742024
0.8436336209 1.3611391438 0.0000000000 0.6744999588 -0.6644022043 -294.3603159947 0.1805470759 1.0106876725
0.8299919755 1.3833473432 0.0000000000 0.7240743996 -0.6803664838 -324.0732647087 0.1804729228 1.0083473430
0.8154999425 1.4049915834 0.0000000000 0.7751310058 -0.6934405459 -354.9014749492 0.1804567931 1.0059675259
0.8001739913 1.4260518275 0.0000000000 0.8274548671 -0.7034947671 -386.7327808791 0.1804949106 1.0035617839
0.7840301880 1.4465077314 0.0000000000 0.8808252954 -0.7104178349 -419.4497093917 0.1805818532 1.0011425921
0.7670854328 1.4663395503 0.0000000000 0.9350216059 -0.7141162205 -452.9282128535 0.1807118210 0.9987221988
0.7493584329 1.4855322156 0.0000000000 0.9898382536 -0.7145119721 -487.0344902132 0.1808796406 0.9963166571
0.7308674326 1.5040879452 0.0000000000 1.0451019523 -0.7115508175 -521.6061050062 0.1810785288 0.9939583918
0.6899880284 1.5408969425 0.0000000000 1.1615309043 -0.6938513841 -594.4364477417 0.1820268497 0.9891040094
0.6675236440 1.5591901454 0.0000000000 1.2223462709 -0.6782459846 -632.0984443486 0.1827992157 0.9868770942
0.6442666385 1.5767546938 0.0000000000 1.2826623184 -0.6582173553 -669.1892108202 0.1836071041 0.9848993117
0.6202571063 1.5935173201 0.0000000000 1.3419593151 -0.6338473364 -705.4615613097 0.1844494948 0.9831307821
0.5955336155 1.6094275062 0.0000000000 1.3997939034 -0.6051972798 -740.6600687985 0.1853224970 0.9815526474
0.5701380598 1.6244458488 0.0000000000 1.4557385844 -0.5723697378 -774.5195182109 0.1862242731 0.9801553829
0.5441148150 1.6385415748 0.0000000000 1.5093778782 -0.5354973589 -806.7713627090 0.1871542703 0.9789362613
0.5175095264 1.6516914253 0.0000000000 1.5603040452 -0.4947467518 -837.1454271769 0.1881120849 0.9778981889
0.4903681679 1.6638779249 0.0000000000 1.6081150427 -0.4503208700 -865.3731766323 0.1890965995 0.9770479299
0.4627366595 1.6750874683 0.0000000000 1.6524138729 -0.4024631130 -891.1922550601 0.1901056817 0.9763941522
0.4346608826 1.6853087303 0.0000000000 1.6928108641 -0.3514613529 -914.3520604072 0.1911362808 0.9759457990
0.4061868318 1.6945315294 0.0000000000 1.7289293652 -0.2976510040 -934.6201236688 0.1921846638 0.9757109175
0.3773607190 1.7027460526 0.0000000000 1.7604148057 -0.2414161736 -951.7890775826 0.1932466038 0.9756958532
0.3482289555 1.7099423414 0.0000000000 1.7869466223 -0.1831880558 -965.6837429763 0.1943174490 0.9759047073
0.3188380166 1.7161099979 0.0000000000 1.8082521039 -0.1234399079 -976.1675655394 0.1953920740 0.9763390203
0.2892342336 1.7212381133 0.0000000000 1.8241207086 -0.0626783258 -983.1475042116 0.1964647603 0.9769976784
0.2594635759 1.7253154069 0.0000000000 1.8344170496 -0.0014310939 -986.5766317633 0.1975290670 0.9778770371
0.2295714760 1.7283305316 0.0000000000 1.8390907038 0.0597675179 -986.4541157828 0.1985777455 0.9789712128
0.1996027347 1.7302724626 0.0000000000 1.8381813626 0.1203926838 -982.8227378671 0.1996027349 0.9802724626
0.1696015167 1.7311308694 0.0000000000 1.8318184970 0.1799446478 -975.7644970508 0.2005952475 0.9817715507
0.1396114234 1.7308963902 0.0000000000 1.8202154989 0.2379626103 -965.3950255655 0.2015459326 0.9834580205
0.1096756200 1.7295607606 0.0000000000 1.8036589676 0.2940357657 -951.8575110867 0.2024450936 0.9853203258
0.0798369869 1.7271167964 0.0000000000 1.7824943000 0.3478108028 -935.3166257662 0.2032829298 0.9873458188
0.0501382755 1.7235582638 0.0000000000 1.7571089797 0.3989955706 -915.9527348130 0.2040497823 0.9895206298
0.0206222557 1.7188796854 0.0000000000 1.7279150681 0.4473589734 -893.9565330705 0.2047363712 0.9918294860
-0.0086681453 1.7130761285 0.0000000000 1.6953324068 0.4927275368 -869.5242433231 0.2053340231 0.9942555168
-0.0376897120 1.7061430046 0.0000000000 1.6597738828 0.5349794340 -842.8535088425 0.2058348901 0.9967800734
-0.0663988168 1.6980758872 0.0000000000 1.6216337454 0.5740369928 -814.1400809863 0.2062321613 0.9993825713
-0.0947513097 1.6888703349 0.0000000000 1.5812794603 0.6098587757 -783.5753392196 0.2065202589 1.0020403399
-0.1227024411 1.6785216798 0.0000000000 1.5390470064 0.6424322100 -751.3445512354 0.2066950007 1.0047284435
-0.1502068509 1.6670247035 0.0000000000 1.4952390009 0.6717674827 -717.6257382067 0.2067536940 1.0074193902
-0.1772186888 1.6543730291 0.0000000000 1.4501245311 0.6978930851 -682.5886037174 0.2066950982 1.0100825635
-0.2036919923 1.6405578349 0.0000000000 1.4039395498 0.7208534469 -646.3943908754 0.2065191265 1.0126829763
-0.2295816306 1.6255648701 0.0000000000 1.3568844799 0.7407087151 -609.1911258638 0.2062259811 1.0151783322
-0.2548456250 1.6093668626 0.0000000000 1.3091198961 0.7575424460 -571.1260370131 0.2058139097 1.0175114807
-0.2794507097 1.5919016450 0.0000000000 1.2607264249 0.7714718708 -532.2771872348 0.2052737188 1.0195885940
-0.3033840641 1.5730001488 0.0000000000 1.2116857663 0.7827700134 -492.9316905515 0.2045771147 1.0212072160
-0.3486572818 1.5337429538 0.0000000000 1.1150646657 0.7937192825 -411.6813826357 0.2031356514 1.0257817753
-0.3698640170 1.5135920284 0.0000000000 1.0683845380 0.7938802052 -371.1295166987 0.2024490343 1.0288676002
-0.3902023917 1.4921756326 0.0000000000 1.0219341207 0.7917578820 -330.6587025047 0.2016529905 1.0315160983
-0.4096045308 1.4696778360 0.0000000000 0.9759592115 0.7872010546 -290.3411140560 0.2007820073 1.0338702247
-0.4280168548 1.4461923822 0.0000000000 0.9306281888 0.7801940945 -250.2623848779 0.1998580040 1.0359812638
-0.4453959016 1.4217852724 0.0000000000 0.8860774416 0.7707625954 -210.5110922802 0.1988945643 1.0378714858
-0.4617043269 1.3965131539 0.0000000000 0.8424321872 0.7589475767 -171.1783038524 0.1979009867 1.0395526093
-0.4769090833 1.3704294741 0.0000000000 0.7998138887 0.7447983246 -132.3587270571 0.1968841532 1.0410320327
-0.4909806796 1.3435867009 0.0000000000 0.7583436155 0.7283704718 -94.1516158794 0.1958493155 1.0423151327
-0.5038928502 1.3160370923 0.0000000000 0.7181434562 0.7097260925 -56.6614764253 0.1948004660 1.0434061146
-0.5156223762 1.2878328921 0.0000000000 0.6793370140 0.6889345656 -19.9985449581 0.1937405552 1.0443082905
-0.5261489515 1.2590263043 0.0000000000 0.6420493361 0.6660737638 15.7209537393 0.1926716604 1.0450241363
-0.5354550453 1.2296694012 0.0000000000 0.6064064338 0.6412313975 50.3747609093 0.1915951542 1.0455552861
-0.5435257327 1.1998140440 0.0000000000 0.5725344255 0.6145064468 83.8347610771 0.1905119014 1.0459025377
-0.5503484782 1.1695118479 0.0000000000 0.5405582735 0.5860106389 115.9674260120 0.1894224994 1.0460659055
-0.5559128694 1.1388142043 0.0000000000 0.5106000539 0.5558698954 146.6346058262 0.1883275654 1.0460447311
-0.5602103111 1.1077723616 0.0000000000 0.4827767185 0.5242256182 175.6947687804 0.1872280587 1.0458378528
-0.5632337102 1.0764375568 0.0000000000 0.4571973574 0.4912356368 203.0047814156 0.1861256086 1.0454438264
-0.5649771906 1.0448611928 0.0000000000 0.4339600445 0.4570746221 228.4222751787 0.1850228094 1.0448611931
-0.5654358821 1.0130950562 0.0000000000 0.4131484099 0.4219338062 251.8085768256 0.1839234367 1.0440887872
-0.5646058182 0.9811915770 0.0000000000 0.3948281205 0.3860199148 273.0321126649 0.1828325515 1.0431260864
-0.5624839574 0.9492041270 0.0000000000 0.3790434458 0.3495532941 291.9721563287 0.1817564774 1.0419736007
-0.5590683197 0.9171873570 0.0000000000 0.3658140603 0.3127652572 308.5227831861 0.1807026578 1.0406333000
-0.5543582079 0.8851975608 0.0000000000 0.3551322078 0.2758946773 322.5969057924 0.1796794260 1.0391090678
-0.5483544717 0.8532930458 0.0000000000 0.3469603636 0.2391838210 334.1302616928 0.1786957277 1.0374071615
-0.5410597782 0.8215344801 0.0000000000 0.3412295791 0.2028734004 343.0851855752 0.1777608335 1.0355366486
-0.5324788615 0.7899851779 0.0000000000 0.3378387847 0.1671968452 349.4539185769 0.1768840697 1.0335097801
-0.5226187311 0.7587112789 0.0000000000 0.3366553889 0.1323738964 353.2611131799 0.1760745848 1.0313422572