 TITLE = "Tecplot data"
 VARIABLES = "X", "Y", "Z" "U", "V", "p", "dispX", "dispY"
 ZONE SOLUTIONTIME=84.900000, NODES=26114 , ELEMENTS=25916, DATAPACKING=POINT, ZONETYPE=FEQUADRILATERAL
0.6471013388 1.6691595072 0.0000000000 0.0000000000 0.0000000000 -535.3062716466 0.2935479482 1.3156061165
0.6471013391 0.9620527262 0.0000000000 0.0000000000 0.0000000000 -757.9264181662 0.2935479482 1.3156061165
-0.0600054425 1.6691595070 0.0000000000 0.0000000000 0.0000000000 41.1736510592 0.2935479482 1.3156061165
-0.0600054422 0.9620527257 0.0000000000 0.0000000000 0.0000000000 1413.0596536691 0.2935479482 1.3156061165
0.8198614714 1.8456286295 0.0000000000 -0.1911142765 0.1770053206 -553.0781687085 0.2895313856 1.3152985436
0.8411951883 0.8335155337 0.0000000000 0.3097787832 0.2052774646 -611.9358887890 0.3108651021 1.3638456192
-0.2087113683 1.8855346948 0.0000000000 0.4745406233 0.8096451910 20.4178414504 0.3216187177 1.3552046091
-0.2486866759 0.8075359983 0.0000000000 0.5421157777 -0.1907687289 648.2845572493 0.2816434097 1.3378660845
1.3755140329 2.3941129802 0.0000000000 0.8349343856 -0.4221648386 -207.6549547983 0.3148538612 1.3334528083
1.3455236110 0.2944568682 0.0000000000 0.3952016243 0.3468099453 -271.8232214938 0.2848634385 1.3551170392
-0.6938401702 2.5069285670 0.0000000000 0.9583023607 0.4615086314 149.0607460971 0.3668200019 1.4462683955
-0.8062336804 0.3532800696 0.0000000000 0.6604361057 -0.0625816301 339.1581692262 0.2544264908 1.4139402419
4.6070200477 4.4710715000 0.0000000000 1.2044058270 0.0042971380 -93.4076877795 0.4070200477 1.1710715000
4.3417187946 -2.1320550650 0.0000000000 0.7762279438 -0.0708477842 -111.5783660562 0.1417187946 1.1679449350
20.0000000000 4.7000000000 0.0000000000 1.0471686434 0.0962124959 0.8236322452 0.0000000000 0.0000000000
20.0000000000 -4.7000000000 0.0000000000 1.0633625879 -0.0555645599 0.6888232803 0.0000000000 0.0000000000
-10.0000000000 15.0000000000 0.0000000000 1.0000000000 0.0000000000 78.8515639180 0.0000000000 0.0000000000
20.0000000000 15.0000000000 0.0000000000 1.0471845593 0.0000000000 0.0468708431 0.0000000000 0.0000000000
20.0000000000 -15.0000000000 0.0000000000 1.0563748162 0.0000000000 0.0281165689 0.0000000000 0.0000000000
-10.0000000000 -15.0000000000 0.0000000000 1.0000000000 0.0000000000 68.2632579111 0.0000000000 0.0000000000
0.6600738844 0.9755197479 0.0000000000 0.0000000000 0.0000000000 -1007.5139230939 0.2935479482 1.3156061165
0.6725338100 0.9894624111 0.0000000000 0.0000000000 0.0000000000 -909.1853768182 0.2935479482 1.3156061165
0.6844636897 1.0038612159 0.0000000000 0.0000000000 0.0000000000 -888.5125405505 0.2935479482 1.3156061165
0.6958468383 1.0186960240 0.0000000000 0.0000000000 0.0000000000 -875.0920204349 0.2935479482 1.3156061165
0.7066673355 1.0339460878 0.0000000000 0.0000000000 0.0000000000 -853.1366185935 0.2935479482 1.3156061165
0.7169100480 1.0495900785 0.0000000000 0.0000000000 0.0000000000 -825.7873073578 0.2935479482 1.3156061165
0.7265606503 1.0656061168 0.0000000000 0.0000000000 0.0000000000 -804.8601242263 0.2935479482 1.3156061165
0.7356056451 1.0819718026 0.0000000000 0.0000000000 0.0000000000 -777.4346174483 0.2935479482 1.3156061165
0.7440323823 1.0986642472 0.0000000000 0.0000000000 0.0000000000 -757.6247472166 0.2935479482 1.3156061165
0.7518290763 1.1156601046 0.0000000000 0.0000000000 0.0000000000 -732.7702176242 0.2935479482 1.3156061165
0.7589848226 1.1329356046 0.0000000000 0.0000000000 0.0000000000 -711.3555199704 0.2935479482 1.3156061165
0.7654896134 1.1504665858 0.0000000000 0.0000000000 0.0000000000 -689.4335523706 0.2935479482 1.3156061165
0.7713343512 1.1682285296 0.0000000000 0.0000000000 0.0000000000 -668.1243463134 0.2935479482 1.3156061165
0.7765108614 1.1861965942 0.0000000000 0.0000000000 0.0000000000 -647.5566554542 0.2935479482 1.3156061165
0.7810119044 1.2043456498 0.0000000000 0.0000000000 0.0000000000 -627.4582169899 0.2935479482 1.3156061165
0.7848311849 1.2226503132 0.0000000000 0.0000000000 0.0000000000 -608.1130152342 0.2935479482 1.3156061165
0.7879633614 1.2410849837 0.0000000000 0.0000000000 0.0000000000 -589.4970501115 0.2935479482 1.3156061165
0.7904040532 1.2596238787 0.0000000000 0.0000000000 0.0000000000 -571.7521884286 0.2935479482 1.3156061165
0.7921498468 1.2782410699 0.0000000000 0.0000000000 0.0000000000 -555.0002635058 0.2935479482 1.3156061165
0.7931983006 1.2969105196 0.0000000000 0.0000000000 0.0000000000 -539.3855179830 0.2935479482 1.3156061165
0.7935479482 1.3156061167 0.0000000000 0.0000000000 0.0000000000 -525.0601245797 0.2935479482 1.3156061165
0.7931983006 1.3343017139 0.0000000000 0.0000000000 0.0000000000 -512.1715585583 0.2935479482 1.3156061165
0.7921498468 1.3529711635 0.0000000000 0.0000000000 0.0000000000 -500.8358522883 0.2935479482 1.3156061165
0.7904040531 1.3715883548 0.0000000000 0.0000000000 0.0000000000 -491.1349220100 0.2935479482 1.3156061165
0.7879633613 1.3901272498 0.0000000000 0.0000000000 0.0000000000 -483.1100896644 0.2935479482 1.3156061165
0.7848311848 1.4085619203 0.0000000000 0.0000000000 0.0000000000 -476.7600556839 0.2935479482 1.3156061165
0.7810119043 1.4268665837 0.0000000000 0.0000000000 0.0000000000 -472.0502729665 0.2935479482 1.3156061165
0.7765108613 1.4450156392 0.0000000000 0.0000000000 0.0000000000 -468.9120260137 0.2935479482 1.3156061165
0.7713343511 1.4629837039 0.0000000000 0.0000000000 0.0000000000 -467.2614021667 0.2935479482 1.3156061165
0.7654896133 1.4807456476 0.0000000000 0.0000000000 0.0000000000 -467.0096092239 0.2935479482 1.3156061165
0.7589848225 1.4982766288 0.0000000000 0.0000000000 0.0000000000 -468.0564437871 0.2935479482 1.3156061165
0.7518290761 1.5155521288 0.0000000000 0.0000000000 0.0000000000 -470.3133867509 0.2935479482 1.3156061165
0.7440323821 1.5325479862 0.0000000000 0.0000000000 0.0000000000 -473.6828838631 0.2935479482 1.3156061165
0.7356056449 1.5492404308 0.0000000000 0.0000000000 0.0000000000 -478.0773201780 0.2935479482 1.3156061165
0.7265606500 1.5656061166 0.0000000000 0.0000000000 0.0000000000 -483.3860690594 0.2935479482 1.3156061165
0.7169100478 1.5816221549 0.0000000000 0.0000000000 0.0000000000 -489.4934075947 0.2935479482 1.3156061165
0.7066673353 1.5972661456 0.0000000000 0.0000000000 0.0000000000 -496.3472165835 0.2935479482 1.3156061165
0.6958468380 1.6125162094 0.0000000000 0.0000000000 0.0000000000 -503.6400696535 0.2935479482 1.3156061165
0.6844636894 1.6273510175 0.0000000000 0.0000000000 0.0000000000 -511.5876791197 0.2935479482 1.3156061165
0.6725338097 1.6417498222 0.0000000000 0.0000000000 0.0000000000 -519.3990515385 0.2935479482 1.3156061165
0.6600738841 1.6556924854 0.0000000000 0.0000000000 0.0000000000 -528.2800724639 0.2935479482 1.3156061165
0.6321887340 1.6834680719 0.0000000000 0.0000000000 0.0000000000 -545.0269545469 0.2935479482 1.3156061165
0.6166975671 1.6971481507 0.0000000000 0.0000000000 0.0000000000 -553.0009207203 0.2935479482 1.3156061165
0.6006543045 1.7101763713 0.0000000000 0.0000000000 0.0000000000 -560.8030178027 0.2935479482 1.3156061165
0.5840863559 1.7225304752 0.0000000000 0.0000000000 0.0000000000 -567.6791750815 0.2935479482 1.3156061165
0.5670220272 1.7341893557 0.0000000000 0.0000000000 0.0000000000 -573.5488726163 0.2935479482 1.3156061165
0.5494904727 1.7451330937 0.0000000000 0.0000000000 0.0000000000 -578.3031741410 0.2935479482 1.3156061165
0.5315216447 1.7553429922 0.0000000000 0.0000000000 0.0000000000 -581.7565448002 0.2935479482 1.3156061165
0.5131462426 1.7648016075 0.0000000000 0.0000000000 0.0000000000 -583.8513059293 0.2935479482 1.3156061165
0.4943956605 1.7734927799 0.0000000000 0.0000000000 0.0000000000 -584.4582950439 0.2935479482 1.3156061165
0.4753019334 1.7814016606 0.0000000000 0.0000000000 0.0000000000 -583.5320071454 0.2935479482 1.3156061165
0.4558976827 1.7885147374 0.0000000000 0.0000000000 0.0000000000 -580.9974382592 0.2935479482 1.3156061165
0.4362160603 1.7948198578 0.0000000000 0.0000000000 0.0000000000 -576.8233353550 0.2935479482 1.3156061165
0.4162906917 1.8003062495 0.0000000000 0.0000000000 0.0000000000 -570.9760411070 0.2935479482 1.3156061165
0.3961556192 1.8049645392 0.0000000000 0.0000000000 0.0000000000 -563.4430405325 0.2935479482 1.3156061165
0.3758452433 1.8087867682 0.0000000000 0.0000000000 0.0000000000 -554.2183219305 0.2935479482 1.3156061165
0.3553942637 1.8117664064 0.0000000000 0.0000000000 0.0000000000 -543.3091423103 0.2935479482 1.3156061165
0.3348376208 1.8138983630 0.0000000000 0.0000000000 0.0000000000 -530.7296942903 0.2935479482 1.3156061165
0.3142104352 1.8151789957 0.0000000000 0.0000000000 0.0000000000 -516.5052993297 0.2935479482 1.3156061165
0.2935479481 1.8156061165 0.0000000000 0.0000000000 0.0000000000 -500.6640222985 0.2935479482 1.3156061165
0.2728854610 1.8151789957 0.0000000000 0.0000000000 0.0000000000 -483.2495627362 0.2935479482 1.3156061165
0.2522582754 1.8138983630 0.0000000000 0.0000000000 0.0000000000 -464.2777517264 0.2935479482 1.3156061165
0.2317016325 1.8117664064 0.0000000000 0.0000000000 0.0000000000 -443.8222793256 0.2935479482 1.3156061165
0.2112506530 1.8087867682 0.0000000000 0.0000000000 0.0000000000 -421.9420875150 0.2935479482 1.3156061165
0.1909402770 1.8049645392 0.0000000000 0.0000000000 0.0000000000 -398.6909695681 0.2935479482 1.3156061165
0.1708052045 1.8003062495 0.0000000000 0.0000000000 0.0000000000 -374.0818021136 0.2935479482 1.3156061165
0.1508798360 1.7948198577 0.0000000000 0.0000000000 0.0000000000 -348.2192846751 0.2935479482 1.3156061165
0.1311982135 1.7885147373 0.0000000000 0.0000000000 0.0000000000 -321.1809819218 0.2935479482 1.3156061165
0.1117939628 1.7814016605 0.0000000000 0.0000000000 0.0000000000 -292.9528058215 0.2935479482 1.3156061165
0.0927002358 1.7734927798 0.0000000000 0.0000000000 0.0000000000 -263.6447258115 0.2935479482 1.3156061165
0.0739496537 1.7648016074 0.0000000000 0.0000000000 0.0000000000 -233.3365100071 0.2935479482 1.3156061165
0.0555742516 1.7553429921 0.0000000000 0.0000000000 0.0000000000 -201.9528557475 0.2935479482 1.3156061165
0.0376054235 1.7451330936 0.0000000000 0.0000000000 0.0000000000 -169.7128823192 0.2935479482 1.3156061165
0.0200738690 1.7341893556 0.0000000000 0.0000000000 0.0000000000 -136.4809265805 0.2935479482 1.3156061165
0.0030095404 1.7225304751 0.0000000000 0.0000000000 0.0000000000 -102.4445507246 0.2935479482 1.3156061165
-0.0135584083 1.7101763711 0.0000000000 0.0000000000 0.0000000000 -67.5628334782 0.2935479482 1.3156061165
-0.0296016708 1.6971481505 0.0000000000 0.0000000000 0.0000000000 -31.9491541638 0.2935479482 1.3156061165
-0.0450928377 1.6834680718 0.0000000000 0.0000000000 0.0000000000 4.4772363967 0.2935479482 1.3156061165
-0.0743140072 1.6542469022 0.0000000000 0.0000000000 0.0000000000 79.0142873442 0.2935479482 1.3156061165
-0.0879940860 1.6387557353 0.0000000000 0.0000000000 0.0000000000 115.6582519846 0.2935479482 1.3156061165
-0.1010223066 1.6227124727 0.0000000000 0.0000000000 0.0000000000 154.6774676288 0.2935479482 1.3156061165
-0.1133764105 1.6061445241 0.0000000000 0.0000000000 0.0000000000 191.8441653304 0.2935479482 1.3156061165
-0.1250352910 1.5890801954 0.0000000000 0.0000000000 0.0000000000 229.5550690308 0.2935479482 1.3156061165
-0.1359790291 1.5715486409 0.0000000000 0.0000000000 0.0000000000 266.9531128263 0.2935479482 1.3156061165
-0.1461889275 1.5535798129 0.0000000000 0.0000000000 0.0000000000 304.3041160101 0.2935479482 1.3156061165
-0.1556475428 1.5352044108 0.0000000000 0.0000000000 0.0000000000 341.6597808315 0.2935479482 1.3156061165
-0.1643387152 1.5164538287 0.0000000000 0.0000000000 0.0000000000 379.2755065826 0.2935479482 1.3156061165
-0.1722475959 1.4973601016 0.0000000000 0.0000000000 0.0000000000 417.5040063959 0.2935479482 1.3156061165
-0.1793606727 1.4779558510 0.0000000000 0.0000000000 0.0000000000 456.8063226358 0.2935479482 1.3156061165
-0.1856657931 1.4582742285 0.0000000000 0.0000000000 0.0000000000 497.6878929987 0.2935479482 1.3156061165
-0.1911521848 1.4383488599 0.0000000000 0.0000000000 0.0000000000 540.6400647615 0.2935479482 1.3156061165
-0.1958104745 1.4182137874 0.0000000000 0.0000000000 0.0000000000 586.0422846390 0.2935479482 1.3156061165
-0.1996327035 1.3979034115 0.0000000000 0.0000000000 0.0000000000 634.1270232636 0.2935479482 1.3156061165
-0.2026123417 1.3774524320 0.0000000000 0.0000000000 0.0000000000 684.8754017706 0.2935479482 1.3156061165
-0.2047442983 1.3568957891 0.0000000000 0.0000000000 0.0000000000 738.1033947872 0.2935479482 1.3156061165
-0.2060249310 1.3362686034 0.0000000000 0.0000000000 0.0000000000 793.2926356276 0.2935479482 1.3156061165
-0.2064520518 1.3156061163 0.0000000000 0.0000000000 0.0000000000 849.9348234226 0.2935479482 1.3156061165
-0.2060249310 1.2949436292 0.0000000000 0.0000000000 0.0000000000 907.0331990929 0.2935479482 1.3156061165
-0.2047442983 1.2743164436 0.0000000000 0.0000000000 0.0000000000 964.0798995988 0.2935479482 1.3156061165
-0.2026123416 1.2537598007 0.0000000000 0.0000000000 0.0000000000 1019.5169329153 0.2935479482 1.3156061165
-0.1996327035 1.2333088212 0.0000000000 0.0000000000 0.0000000000 1073.4432262092 0.2935479482 1.3156061165
-0.1958104744 1.2129984452 0.0000000000 0.0000000000 0.0000000000 1123.1950147300 0.2935479482 1.3156061165
-0.1911521847 1.1928633727 0.0000000000 0.0000000000 0.0000000000 1170.7089238446 0.2935479482 1.3156061165
-0.1856657930 1.1729380042 0.0000000000 0.0000000000 0.0000000000 1210.5398820111 0.2935479482 1.3156061165
-0.1793606726 1.1532563817 0.0000000000 0.0000000000 0.0000000000 1249.3144979627 0.2935479482 1.3156061165
-0.1722475957 1.1338521310 0.0000000000 0.0000000000 0.0000000000 1274.3722891090 0.2935479482 1.3156061165
-0.1643387150 1.1147584040 0.0000000000 0.0000000000 0.0000000000 1304.2728908315 0.2935479482 1.3156061165
-0.1556475426 1.0960078219 0.0000000000 0.0000000000 0.0000000000 1307.1131030261 0.2935479482 1.3156061165
-0.1461889273 1.0776324198 0.0000000000 0.0000000000 0.0000000000 1333.9924872000 0.2935479482 1.3156061165
-0.1359790289 1.0596635918 0.0000000000 0.0000000000 0.0000000000 1297.1122480069 0.2935479482 1.3156061165
-0.1250352908 1.0421320373 0.0000000000 0.0000000000 0.0000000000 1347.2855358062 0.2935479482 1.3156061165
-0.1133764103 1.0250677086 0.0000000000 0.0000000000 0.0000000000 1214.9576103549 0.2935479482 1.3156061165
-0.1010223063 1.0084997600 0.0000000000 0.0000000000 0.0000000000 1380.4290072782 0.2935479482 1.3156061165
-0.0879940857 0.9924564974 0.0000000000 0.0000000000 0.0000000000 930.0708305233 0.2935479482 1.3156061165
-0.0743140070 0.9769653305 0.0000000000 0.0000000000 0.0000000000 1589.6952473988 0.2935479482 1.3156061165
-0.0450928374 0.9477441610 0.0000000000 0.0000000000 0.0000000000 1329.5134393597 0.2935479482 1.3156061165
-0.0296016705 0.9340640823 0.0000000000 0.0000000000 0.0000000000 1426.4749326510 0.2935479482 1.3156061165
-0.0135584079 0.9210358617 0.0000000000 0.0000000000 0.0000000000 536.0824383082 0.2935479482 1.3156061165
0.0030095407 0.9086817577 0.0000000000 0.0000000000 0.0000000000 1104.5289513097 0.2935479482 1.3156061165
0.0200738694 0.8970228772 0.0000000000 0.0000000000 0.0000000000 544.0747623211 0.2935479482 1.3156061165
0.0376054239 0.8860791392 0.0000000000 0.0000000000 0.0000000000 676.2803300673 0.2935479482 1.3156061165
0.0555742519 0.8758692408 0.0000000000 0.0000000000 0.0000000000 403.9457926960 0.2935479482 1.3156061165
0.0739496540 0.8664106255 0.0000000000 0.0000000000 0.0000000000 360.2031330365 0.2935479482 1.3156061165
0.0927002361 0.8577194531 0.0000000000 0.0000000000 0.0000000000 190.1946802478 0.2935479482 1.3156061165
0.1117939632 0.8498105724 0.0000000000 0.0000000000 0.0000000000 87.0250505180 0.2935479482 1.3156061165
0.1311982139 0.8426974956 0.0000000000 0.0000000000 0.0000000000 -48.4338080668 0.2935479482 1.3156061165
0.1508798364 0.8363923752 0.0000000000 0.0000000000 0.0000000000 -161.9783272934 0.2935479482 1.3156061165
0.1708052049 0.8309059835 0.0000000000 0.0000000000 0.0000000000 -279.5909333613 0.2935479482 1.3156061165
0.1909402774 0.8262476938 0.0000000000 0.0000000000 0.0000000000 -385.4964346247 0.2935479482 1.3156061165
0.2112506534 0.8224254648 0.0000000000 0.0000000000 0.0000000000 -486.3621646335 0.2935479482 1.3156061165
0.2317016329 0.8194458266 0.0000000000 0.0000000000 0.0000000000 -577.2991806105 0.2935479482 1.3156061165
0.2522582758 0.8173138700 0.0000000000 0.0000000000 0.0000000000 -660.1520711456 0.2935479482 1.3156061165
0.2728854614 0.8160332373 0.0000000000 0.0000000000 0.0000000000 -733.4603275495 0.2935479482 1.3156061165
0.2935479485 0.8156061165 0.0000000000 0.0000000000 0.0000000000 -798.1425927886 0.2935479482 1.3156061165
0.3142104356 0.8160332373 0.0000000000 0.0000000000 0.0000000000 -853.7175368519 0.2935479482 1.3156061165
0.3348376213 0.8173138700 0.0000000000 0.0000000000 0.0000000000 -901.8260151210 0.2935479482 1.3156061165
0.3553942642 0.8194458267 0.0000000000 0.0000000000 0.0000000000 -940.4558622686 0.2935479482 1.3156061165
0.3758452437 0.8224254649 0.0000000000 0.0000000000 0.0000000000 -975.7481959719 0.2935479482 1.3156061165
0.3961556196 0.8262476939 0.0000000000 0.0000000000 0.0000000000 -1000.2406421503 0.2935479482 1.3156061165
0.4162906921 0.8309059836 0.0000000000 0.0000000000 0.0000000000 -1021.1131126469 0.2935479482 1.3156061165
0.4362160606 0.8363923754 0.0000000000 0.0000000000 0.0000000000 -1036.6991335845 0.2935479482 1.3156061165
0.4558976831 0.8426974958 0.0000000000 0.0000000000 0.0000000000 -1047.9870986328 0.2935479482 1.3156061165
0.4753019338 0.8498105726 0.0000000000 0.0000000000 0.0000000000 -1056.1600604980 0.2935479482 1.3156061165
0.4943956608 0.8577194533 0.0000000000 0.0000000000 0.0000000000 -1058.1092537912 0.2935479482 1.3156061165
0.5131462429 0.8664106257 0.0000000000 0.0000000000 0.0000000000 -1059.2718912306 0.2935479482 1.3156061165
0.5315216450 0.8758692411 0.0000000000 0.0000000000 0.0000000000 -1058.1991903927 0.2935479482 1.3156061165
0.5494904730 0.8860791395 0.0000000000 0.0000000000 0.0000000000 -1050.4376602948 0.2935479482 1.3156061165
0.5670220276 0.8970228776 0.0000000000 0.0000000000 0.0000000000 -1050.3755727787 0.2935479482 1.3156061165
0.5840863562 0.9086817581 0.0000000000 0.0000000000 0.0000000000 -1020.7637587882 0.2935479482 1.3156061165
0.6006543048 0.9210358620 0.0000000000 0.0000000000 0.0000000000 -1053.6067223003 0.2935479482 1.3156061165
0.6166975674 0.9340640826 0.0000000000 0.0000000000 0.0000000000 -962.9961927662 0.2935479482 1.3156061165
0.6321887343 0.9477441614 0.0000000000 0.0000000000 0.0000000000 -993.2908483507 0.2935479482 1.3156061165
0.8605218191 0.8531573784 0.0000000000 0.2935630471 0.2163193831 -605.3387720016 0.3107329149 1.3632869313
0.8786605345 0.8749244324 0.0000000000 0.2769047951 0.2267872343 -598.7357760647 0.3101817418 1.3641399905
0.8959325481 0.8977526787 0.0000000000 0.2604973760 0.2361333933 -591.0668012793 0.3095589359 1.3653700297
0.9123253254 0.9213186819 0.0000000000 0.2446802675 0.2439856957 -582.3776095650 0.3088769903 1.3666838207
0.9278228407 0.9454705662 0.0000000000 0.2296497126 0.2500492531 -572.7497849125 0.3081437597 1.3679606094
0.9424152615 0.9701190538 0.0000000000 0.2155354942 0.2541242137 -562.3256042874 0.3073721118 1.3691431108
0.9560942047 0.9952024322 0.0000000000 0.2024120463 0.2561025048 -551.2631772981 0.3065751516 1.3702024318
0.9688500301 1.0206724385 0.0000000000 0.1903052052 0.2559649715 -539.7292905481 0.3057634847 1.3711239093
0.9806712377 1.0464875565 0.0000000000 0.1791972541 0.2537712699 -527.8902725450 0.3049445866 1.3719003604
0.9915449305 1.0726095071 0.0000000000 0.1690334047 0.2496451392 -515.9059084949 0.3041232384 1.3725285250
1.0014576001 1.0990013400 0.0000000000 0.1597293360 0.2437571337 -503.9250235960 0.3033022885 1.3730071079
1.0103958401 1.1256263887 0.0000000000 0.1511790183 0.2363072035 -492.0828456117 0.3024833422 1.3733356848
1.0183468579 1.1524476941 0.0000000000 0.1432619646 0.2275089574 -480.4998584347 0.3016672535 1.3735140745
1.0252988124 1.1794276814 0.0000000000 0.1358492936 0.2175767149 -469.2818015180 0.3008544426 1.3735419648
1.0312410448 1.2065279798 0.0000000000 0.1288082800 0.2067157559 -458.5204708399 0.3000451106 1.3734186799
1.0361642662 1.2337093351 0.0000000000 0.1220053308 0.1951156655 -448.2950428793 0.2992394112 1.3731430401
1.0400607303 1.2609315949 0.0000000000 0.1153075267 0.1829463943 -438.6737284912 0.2984376106 1.3727132942
1.0429244014 1.2881537593 0.0000000000 0.1085830018 0.1703565713 -429.7156404513 0.2976402439 1.3721271161
1.0447511083 1.3153340989 0.0000000000 0.1017005405 0.1574736616 -421.4728179434 0.2968482604 1.3713816688
1.0455386728 1.3424303398 0.0000000000 0.0945288502 0.1444057045 -413.9923913528 0.2960631442 1.3704737352
1.0452870045 1.3693999183 0.0000000000 0.0869360458 0.1312445492 -407.3188944401 0.2952870045 1.3693999180
1.0439981609 1.3962003005 0.0000000000 0.0787899350 0.1180706924 -401.4967384927 0.2945226323 1.3681569045
1.0416763811 1.4227893610 0.0000000000 0.0699597085 0.1049599770 -396.5728503055 0.2937735333 1.3667417905
1.0383281021 1.4491258026 0.0000000000 0.0603195787 0.0919924851 -392.5994330762 0.2930439447 1.3651524452
1.0339619644 1.4751695984 0.0000000000 0.0497547359 0.0792638755 -389.6367251485 0.2923388447 1.3633878985
1.0285888074 1.5008824298 0.0000000000 0.0381696931 0.0668991183 -387.7555012899 0.2916639525 1.3614487242
1.0222216438 1.5262280933 0.0000000000 0.0254986712 0.0550680088 -387.0388966686 0.2910257097 1.3593373926
1.0148755913 1.5511728507 0.0000000000 0.0117172165 0.0440010777 -387.5829713335 0.2904312216 1.3570585666
1.0065677381 1.5756857007 0.0000000000 -0.0031461971 0.0340036946 -389.4953283637 0.2898881338 1.3546193197
0.9973169120 1.5997385520 0.0000000000 -0.0190001563 0.0254655232 -392.8911088027 0.2894044143 1.3520292553
0.9871433256 1.6233062819 0.0000000000 -0.0356836984 0.0188621671 -397.8858437520 0.2889880142 1.3493005134
0.9760680719 1.6463666602 0.0000000000 -0.0529650708 0.0147457395 -404.5849461884 0.2886463800 1.3464476418
0.9641124545 1.6689001142 0.0000000000 -0.0705478862 0.0137208828 -413.0700459872 0.2883858037 1.3434873097
0.9512971724 1.6908892948 0.0000000000 -0.0880863824 0.0164021934 -423.3828796934 0.2882106274 1.3404378234
0.9376414622 1.7123184115 0.0000000000 -0.1052103646 0.0233484079 -435.5080132711 0.2881224094 1.3373184114
0.9231624553 1.7331723488 0.0000000000 -0.1215581001 0.0349693167 -449.3562779010 0.2881193059 1.3341482913
0.9078751482 1.7534357472 0.0000000000 -0.1368120424 0.0514054448 -464.7515157731 0.2881960676 1.3309457036
0.8917933028 1.7730925708 0.0000000000 -0.1507297133 0.0723900727 -481.4241355889 0.2883449680 1.3277274315
0.8749310267 1.7921272530 0.0000000000 -0.1631577665 0.0971220903 -499.0167221553 0.2885574150 1.3245099016
0.8573038914 1.8105300457 0.0000000000 -0.1740353231 0.1241884723 -517.1060660007 0.2888250991 1.3213144872
0.8389252287 1.8283137517 0.0000000000 -0.1833103688 0.1516663176 -535.2506055780 0.2891363249 1.3181841983
0.7984573908 1.8635223069 0.0000000000 -0.1976176623 0.1996446275 -571.2489977571 0.2904962122 1.3117293739
0.7763094195 1.8810750353 0.0000000000 -0.2022755622 0.2152652611 -588.4475883573 0.2915849912 1.3087619841
0.7533885200 1.8979834006 0.0000000000 -0.2049429346 0.2227237121 -604.1099013468 0.2927289855 1.3061280185
0.7297342663 1.9141612159 0.0000000000 -0.2054867648 0.2222674661 -617.9653589474 0.2939266549 1.3037746779
0.7053829078 1.9295517419 0.0000000000 -0.2039024302 0.2152322343 -629.8743357057 0.2951717892 1.3016768832
0.6803744708 1.9441121687 0.0000000000 -0.2003168818 0.2035271072 -639.7688959850 0.2964606841 1.2998217029
0.6547519102 1.9578104360 0.0000000000 -0.1949537233 0.1890695945 -647.6187832793 0.2977913655 1.2982051225
0.6285595906 1.9706238384 0.0000000000 -0.1880708154 0.1734161647 -653.4099238989 0.2991621490 1.2968306019
0.6018420711 1.9825367655 0.0000000000 -0.1799124275 0.1576463439 -657.1380170808 0.3005705027 1.2957067704
0.5746436178 1.9935381568 0.0000000000 -0.1706902356 0.1424196005 -658.8066002210 0.3020126399 1.2948448408
0.5470082487 2.0036193663 0.0000000000 -0.1605830466 0.1281000456 -658.4246258162 0.3034836469 1.2942564350
0.5189799661 2.0127726259 0.0000000000 -0.1497413726 0.1148788590 -656.0046311400 0.3049777980 1.2939520141
0.4906029268 2.0209899962 0.0000000000 -0.1382900227 0.1028604257 -651.5628266305 0.3064888116 1.2939397967
0.4619214501 2.0282626695 0.0000000000 -0.1263271202 0.0921073040 -645.1202822588 0.3080099435 1.2942250354
0.4329798637 2.0345805738 0.0000000000 -0.1139200796 0.0826598333 -636.7040296866 0.3095339212 1.2948095962
0.4038222502 2.0399322755 0.0000000000 -0.1011002429 0.0745485047 -626.3477556411 0.3110527769 1.2956918407
0.3744921734 2.0443051666 0.0000000000 -0.0878577553 0.0678065522 -614.0920756765 0.3125576644 1.2968667968
0.3450324596 2.0476858761 0.0000000000 -0.0741369534 0.0624832495 -599.9842870740 0.3140387290 1.2983265573
0.3154850829 2.0500607917 0.0000000000 -0.0598316668 0.0586582832 -584.0776110150 0.3154850831 1.3000607917
0.2858911684 2.0514165600 0.0000000000 -0.0447797382 0.0564582500 -566.4300648102 0.3168848993 1.3020572412
0.2562910996 2.0517404538 0.0000000000 -0.0287561561 0.0560771901 -547.1030894991 0.3182256089 1.3043020840
0.2267246973 2.0510205433 0.0000000000 -0.0114644638 0.0578039216 -526.1600210903 0.3194941709 1.3067801085
0.1972314335 2.0492456695 0.0000000000 0.0074736430 0.0620598378 -503.6642563387 0.3206773763 1.3094746920
0.1678506523 2.0464052649 0.0000000000 0.0285308212 0.0694534278 -479.6766994098 0.3217621591 1.3123676310
0.1386217833 2.0424890869 0.0000000000 0.0522896927 0.0808655030 -454.2519275315 0.3227358988 1.3154388875
0.1095845451 2.0374869268 0.0000000000 0.0794601511 0.0975902610 -427.4332731521 0.3235867134 1.3186663150
0.0807791417 2.0313883338 0.0000000000 0.1108774046 0.1215413541 -399.2490889026 0.3243037438 1.3220254026
0.0522464531 2.0241823653 0.0000000000 0.1474111156 0.1554208564 -369.7148759361 0.3248774312 1.3254890493
0.0240282083 2.0158573452 0.0000000000 0.1896740022 0.2025393614 -338.8425726102 0.3252997770 1.3290273503
-0.0038328828 2.0064005795 0.0000000000 0.2374823113 0.2658767462 -306.6405170742 0.3255645590 1.3326073432
-0.0312930914 1.9957979235 0.0000000000 0.2892453292 0.3463187676 -273.0662557191 0.3256674535 1.3361926101
-0.0583078158 1.9840329742 0.0000000000 0.3416992223 0.4407915411 -237.9204083952 0.3256059712 1.3397425086
-0.0848321011 1.9710853617 0.0000000000 0.3903677613 0.5415842045 -200.7782072129 0.3253790177 1.3432105031
-0.1108219883 1.9569267812 0.0000000000 0.4307312864 0.6377432012 -161.1318162662 0.3249856234 1.3465402434
-0.1362379032 1.9415108967 0.0000000000 0.4595766847 0.7181565719 -118.7097688502 0.3244216314 1.3496555148
-0.1610530193 1.9247443111 0.0000000000 0.4758491996 0.7748693218 -73.8223260212 0.3236714092 1.3524312601
-0.1852723014 1.9063914955 0.0000000000 0.4804158103 0.8049685686 -26.8693376157 0.3226888775 1.3545985627
-0.2311160249 1.8686801837 0.0000000000 0.4706421667 0.8011773552 64.0897613976 0.3206769083 1.3607190051
-0.2525854641 1.8495670426 0.0000000000 0.4616129079 0.7785967729 106.6862065948 0.3197275872 1.3648426144
-0.2732460192 1.8290433310 0.0000000000 0.4506652495 0.7491404833 147.6304803872 0.3186093630 1.3683837967
-0.2930100503 1.8073395932 0.0000000000 0.4391684700 0.7168880700 186.6974676198 0.3173764878 1.3715319818
-0.3118131462 1.7845660976 0.0000000000 0.4277178166 0.6839164105 223.9674110087 0.3160617127 1.3743549793
-0.3296052296 1.7607958038 0.0000000000 0.4165603638 0.6510803085 259.6728262573 0.3146852363 1.3768820172
-0.3463442634 1.7360888638 0.0000000000 0.4058048058 0.6186323776 294.0615876575 0.3132610501 1.3791283193
-0.3619934972 1.7105008639 0.0000000000 0.3955078013 0.5866040332 327.3438325374 0.3117997393 1.3811034225
-0.3765203540 1.6840858181 0.0000000000 0.3857056119 0.5549691795 359.6861405754 0.3103096411 1.3828142498
-0.3898959378 1.6568972254 0.0000000000 0.3764259442 0.5236879932 391.2212575651 0.3087973783 1.3842662478
-0.4020947741 1.6289883593 0.0000000000 0.3676947633 0.4927103372 422.0573893886 0.3072681573 1.3854637576
-0.4130946245 1.6004122571 0.0000000000 0.3595414996 0.4619754010 452.2824614268 0.3057259874 1.3864100891
-0.4228763027 1.5712216232 0.0000000000 0.3520028410 0.4314154802 481.9641608254 0.3041738968 1.3871075081
-0.4314234505 1.5414687442 0.0000000000 0.3451251991 0.4009618571 511.1476268358 0.3026141835 1.3875572378
-0.4387222487 1.5112054635 0.0000000000 0.3389661527 0.3705503989 539.8520386839 0.3010487289 1.3877595211
-0.4447610589 1.4804832317 0.0000000000 0.3335950984 0.3401261743 568.0666906147 0.2994793760 1.3877137585
-0.4495300096 1.4493532315 0.0000000000 0.3290931642 0.3096473352 595.7468781795 0.2979083602 1.3874187227
-0.4530205673 1.4178665701 0.0000000000 0.3255523425 0.2790886191 622.8099263275 0.2963387515 1.3868728397
-0.4552251462 1.3860745290 0.0000000000 0.3230737811 0.2484446261 649.1317697059 0.2947748538 1.3860745293
-0.4561368171 1.3540288677 0.0000000000 0.3217652036 0.2177328291 674.5445371039 0.2932225017 1.3850225987
-0.4557491641 1.3217821810 0.0000000000 0.3217374694 0.1869961696 698.8355726497 0.2916892056 1.3837166904
-0.4540563078 1.2893883104 0.0000000000 0.3231003145 0.1563050663 721.7482656469 0.2901841270 1.3821577841
-0.4510530820 1.2569028079 0.0000000000 0.3259573531 0.1257586865 742.9849892144 0.2887178955 1.3803487510
-0.4467353204 1.2243834396 0.0000000000 0.3304004790 0.0954853704 762.2123799646 0.2873023135 1.3782949465
-0.4411001944 1.1918907016 0.0000000000 0.3365039274 0.0656421418 779.0691114732 0.2859500050 1.3760048172
-0.4341465473 1.1594883102 0.0000000000 0.3443184146 0.0364132397 793.1761984257 0.2846740645 1.3734904787
-0.4258751858 1.1272436142 0.0000000000 0.3538659208 0.0080075197 804.1496644598 0.2834877454 1.3707682165
-0.4162890977 1.0952278768 0.0000000000 0.3651356628 -0.0193456611 811.6151308120 0.2824042182 1.3678588550