 TITLE = "Tecplot data"
 VARIABLES = "X", "Y", "Z" "U", "V", "p", "dispX", "dispY"
 ZONE SOLUTIONTIME=103.900000, NODES=26114 , ELEMENTS=25916, DATAPACKING=POINT, ZONETYPE=FEQUADRILATERAL
0.7823618754 2.4178686881 0.0000000000 0.0000000000 0.0000000000 -5899.1448420076 0.4288084848 2.0643152975
0.7823618757 1.7107619072 0.0000000000 0.0000000000 0.0000000000 -667.2549093133 0.4288084848 2.0643152975
0.0752550941 2.4178686880 0.0000000000 0.0000000000 0.0000000000 3986.8052302311 0.4288084848 2.0643152975
0.0752550944 1.7107619067 0.0000000000 0.0000000000 0.0000000000 1704.5071915727 0.4288084848 2.0643152975
0.9533783799 2.5940463905 0.0000000000 0.9545912845 -0.4097156702 -3051.5701603238 0.4230482940 2.0637163045
0.9854935457 1.6093947127 0.0000000000 0.1517641773 0.0267006249 -777.0821393013 0.4551634594 2.1397247982
-0.0583560563 2.6564583690 0.0000000000 1.3272879397 0.8153430072 2007.1802531234 0.4719740297 2.1261282833
-0.1201750618 1.5688848551 0.0000000000 0.1600073761 0.1495561459 1736.8739341767 0.4101550239 2.0992149412
1.5229254351 3.1528997990 0.0000000000 0.8062657843 0.1642140663 -1011.1784834508 0.4622652634 2.0922396271
1.4756142020 1.0652502390 0.0000000000 0.3587513052 0.1200332183 -426.6568559171 0.4149540294 2.1259104100
-0.5186647621 3.3292538611 0.0000000000 1.0898291229 0.4140925148 948.4658486425 0.5419954100 2.2685936896
-0.6928985062 1.1576102796 0.0000000000 0.4662563806 0.2040051968 1358.5475572829 0.3677616651 2.2182704519
4.8085457453 5.1373029328 0.0000000000 1.2890341697 -0.0237980013 -424.5099362558 0.6085457453 1.8373029328
4.3932970013 -1.4676449608 0.0000000000 0.2564529821 -0.0629109236 -216.4955319345 0.1932970013 1.8323550392
20.0000000000 4.7000000000 0.0000000000 0.8932639901 -0.0600268633 0.4196973595 0.0000000000 0.0000000000
20.0000000000 -4.7000000000 0.0000000000 1.2477090165 0.1495126188 -1.0824766219 0.0000000000 0.0000000000
-10.0000000000 15.0000000000 0.0000000000 1.0000000000 0.0000000000 368.8200141800 0.0000000000 0.0000000000
20.0000000000 15.0000000000 0.0000000000 1.0495984486 0.0000000000 0.0564580615 0.0000000000 0.0000000000
20.0000000000 -15.0000000000 0.0000000000 1.0815478518 0.0000000000 -0.1323561663 0.0000000000 0.0000000000
-10.0000000000 -15.0000000000 0.0000000000 1.0000000000 0.0000000000 378.8170640067 0.0000000000 0.0000000000
0.7953344210 1.7242289289 0.0000000000 0.0000000000 0.0000000000 -743.4256909185 0.4288084848 2.0643152975
0.8077943466 1.7381715921 0.0000000000 0.0000000000 0.0000000000 -796.3985759110 0.4288084848 2.0643152975
0.8197242263 1.7525703968 0.0000000000 0.0000000000 0.0000000000 -866.8834541126 0.4288084848 2.0643152975
0.8311073749 1.7674052050 0.0000000000 0.0000000000 0.0000000000 -931.7803610790 0.4288084848 2.0643152975
0.8419278722 1.7826552687 0.0000000000 0.0000000000 0.0000000000 -1000.2439988262 0.4288084848 2.0643152975
0.8521705846 1.7982992595 0.0000000000 0.0000000000 0.0000000000 -1069.7165175183 0.4288084848 2.0643152975
0.8618211869 1.8143152978 0.0000000000 0.0000000000 0.0000000000 -1141.7133246066 0.4288084848 2.0643152975
0.8708661817 1.8306809836 0.0000000000 0.0000000000 0.0000000000 -1216.5216240341 0.4288084848 2.0643152975
0.8792929189 1.8473734282 0.0000000000 0.0000000000 0.0000000000 -1294.7142713416 0.4288084848 2.0643152975
0.8870896129 1.8643692856 0.0000000000 0.0000000000 0.0000000000 -1376.8640548719 0.4288084848 2.0643152975
0.8942453593 1.8816447856 0.0000000000 0.0000000000 0.0000000000 -1464.4162766540 0.4288084848 2.0643152975
0.9007501501 1.8991757668 0.0000000000 0.0000000000 0.0000000000 -1557.5415316008 0.4288084848 2.0643152975
0.9065948878 1.9169377106 0.0000000000 0.0000000000 0.0000000000 -1658.4503992944 0.4288084848 2.0643152975
0.9117713980 1.9349057752 0.0000000000 0.0000000000 0.0000000000 -1768.0118026893 0.4288084848 2.0643152975
0.9162724410 1.9530548308 0.0000000000 0.0000000000 0.0000000000 -1887.3707914940 0.4288084848 2.0643152975
0.9200917215 1.9713594942 0.0000000000 0.0000000000 0.0000000000 -2017.8636539002 0.4288084848 2.0643152975
0.9232238980 1.9897941647 0.0000000000 0.0000000000 0.0000000000 -2158.9579077417 0.4288084848 2.0643152975
0.9256645898 2.0083330597 0.0000000000 0.0000000000 0.0000000000 -2312.1411101511 0.4288084848 2.0643152975
0.9274103834 2.0269502509 0.0000000000 0.0000000000 0.0000000000 -2474.5575997698 0.4288084848 2.0643152975
0.9284588372 2.0456197006 0.0000000000 0.0000000000 0.0000000000 -2646.1574894622 0.4288084848 2.0643152975
0.9288084848 2.0643152977 0.0000000000 0.0000000000 0.0000000000 -2824.7519001111 0.4288084848 2.0643152975
0.9284588372 2.0830108948 0.0000000000 0.0000000000 0.0000000000 -3009.5442553781 0.4288084848 2.0643152975
0.9274103834 2.1016803445 0.0000000000 0.0000000000 0.0000000000 -3197.8719800618 0.4288084848 2.0643152975
0.9256645898 2.1202975357 0.0000000000 0.0000000000 0.0000000000 -3385.9688210277 0.4288084848 2.0643152975
0.9232238979 2.1388364308 0.0000000000 0.0000000000 0.0000000000 -3575.6758406798 0.4288084848 2.0643152975
0.9200917214 2.1572711013 0.0000000000 0.0000000000 0.0000000000 -3765.0228240643 0.4288084848 2.0643152975
0.9162724409 2.1755757646 0.0000000000 0.0000000000 0.0000000000 -3947.7621465416 0.4288084848 2.0643152975
0.9117713979 2.1937248202 0.0000000000 0.0000000000 0.0000000000 -4128.8567532471 0.4288084848 2.0643152975
0.9065948877 2.2116928849 0.0000000000 0.0000000000 0.0000000000 -4303.3978726647 0.4288084848 2.0643152975
0.9007501499 2.2294548286 0.0000000000 0.0000000000 0.0000000000 -4472.7746455201 0.4288084848 2.0643152975
0.8942453591 2.2469858098 0.0000000000 0.0000000000 0.0000000000 -4635.0945573690 0.4288084848 2.0643152975
0.8870896127 2.2642613098 0.0000000000 0.0000000000 0.0000000000 -4794.7401491340 0.4288084848 2.0643152975
0.8792929187 2.2812571672 0.0000000000 0.0000000000 0.0000000000 -4941.2972346199 0.4288084848 2.0643152975
0.8708661815 2.2979496117 0.0000000000 0.0000000000 0.0000000000 -5092.3852330275 0.4288084848 2.0643152975
0.8618211867 2.3143152976 0.0000000000 0.0000000000 0.0000000000 -5224.6133775204 0.4288084848 2.0643152975
0.8521705844 2.3303313358 0.0000000000 0.0000000000 0.0000000000 -5361.3635407959 0.4288084848 2.0643152975
0.8419278719 2.3459753266 0.0000000000 0.0000000000 0.0000000000 -5476.1230305953 0.4288084848 2.0643152975
0.8311073747 2.3612253904 0.0000000000 0.0000000000 0.0000000000 -5591.2219582217 0.4288084848 2.0643152975
0.8197242260 2.3760601985 0.0000000000 0.0000000000 0.0000000000 -5691.6128975471 0.4288084848 2.0643152975
0.8077943464 2.3904590032 0.0000000000 0.0000000000 0.0000000000 -5783.2709017614 0.4288084848 2.0643152975
0.7953344207 2.4044016664 0.0000000000 0.0000000000 0.0000000000 -5839.6284347163 0.4288084848 2.0643152975
0.7674492706 2.4321772529 0.0000000000 0.0000000000 0.0000000000 -5943.7829332365 0.4288084848 2.0643152975
0.7519581037 2.4458573316 0.0000000000 0.0000000000 0.0000000000 -5968.3060656833 0.4288084848 2.0643152975
0.7359148411 2.4588855522 0.0000000000 0.0000000000 0.0000000000 -5967.3899267165 0.4288084848 2.0643152975
0.7193468925 2.4712396562 0.0000000000 0.0000000000 0.0000000000 -5945.4135072715 0.4288084848 2.0643152975
0.7022825638 2.4828985367 0.0000000000 0.0000000000 0.0000000000 -5894.9024459113 0.4288084848 2.0643152975
0.6847510093 2.4938422747 0.0000000000 0.0000000000 0.0000000000 -5827.8915685368 0.4288084848 2.0643152975
0.6667821813 2.5040521731 0.0000000000 0.0000000000 0.0000000000 -5730.7699396371 0.4288084848 2.0643152975
0.6484067792 2.5135107885 0.0000000000 0.0000000000 0.0000000000 -5613.8554033316 0.4288084848 2.0643152975
0.6296561971 2.5222019609 0.0000000000 0.0000000000 0.0000000000 -5469.9143610043 0.4288084848 2.0643152975
0.6105624700 2.5301108416 0.0000000000 0.0000000000 0.0000000000 -5303.1108047742 0.4288084848 2.0643152975
0.5911582194 2.5372239184 0.0000000000 0.0000000000 0.0000000000 -5109.7502600027 0.4288084848 2.0643152975
0.5714765969 2.5435290388 0.0000000000 0.0000000000 0.0000000000 -4895.4451091126 0.4288084848 2.0643152975
0.5515512283 2.5490154305 0.0000000000 0.0000000000 0.0000000000 -4657.7604836312 0.4288084848 2.0643152975
0.5314161558 2.5536737202 0.0000000000 0.0000000000 0.0000000000 -4400.9439018324 0.4288084848 2.0643152975
0.5111057799 2.5574959492 0.0000000000 0.0000000000 0.0000000000 -4119.4363108849 0.4288084848 2.0643152975
0.4906548004 2.5604755874 0.0000000000 0.0000000000 0.0000000000 -3828.4037247367 0.4288084848 2.0643152975
0.4700981575 2.5626075440 0.0000000000 0.0000000000 0.0000000000 -3504.6978892196 0.4288084848 2.0643152975
0.4494709719 2.5638881767 0.0000000000 0.0000000000 0.0000000000 -3179.4609162500 0.4288084848 2.0643152975
0.4288084847 2.5643152975 0.0000000000 0.0000000000 0.0000000000 -2831.5422962213 0.4288084848 2.0643152975
0.4081459976 2.5638881767 0.0000000000 0.0000000000 0.0000000000 -2475.2439394104 0.4288084848 2.0643152975
0.3875188120 2.5626075440 0.0000000000 0.0000000000 0.0000000000 -2106.6076364829 0.4288084848 2.0643152975
0.3669621691 2.5604755874 0.0000000000 0.0000000000 0.0000000000 -1730.3996268139 0.4288084848 2.0643152975
0.3465111896 2.5574959492 0.0000000000 0.0000000000 0.0000000000 -1346.3529526250 0.4288084848 2.0643152975
0.3262008136 2.5536737202 0.0000000000 0.0000000000 0.0000000000 -958.4148589718 0.4288084848 2.0643152975
0.3060657411 2.5490154305 0.0000000000 0.0000000000 0.0000000000 -567.3231757062 0.4288084848 2.0643152975
0.2861403726 2.5435290387 0.0000000000 0.0000000000 0.0000000000 -175.8738866521 0.4288084848 2.0643152975
0.2664587501 2.5372239183 0.0000000000 0.0000000000 0.0000000000 214.8055745795 0.4288084848 2.0643152975
0.2470544994 2.5301108415 0.0000000000 0.0000000000 0.0000000000 601.3832990263 0.4288084848 2.0643152975
0.2279607724 2.5222019608 0.0000000000 0.0000000000 0.0000000000 985.7803065543 0.4288084848 2.0643152975
0.2092101903 2.5135107884 0.0000000000 0.0000000000 0.0000000000 1359.8284966253 0.4288084848 2.0643152975
0.1908347882 2.5040521731 0.0000000000 0.0000000000 0.0000000000 1734.8548675484 0.4288084848 2.0643152975
0.1728659602 2.4938422746 0.0000000000 0.0000000000 0.0000000000 2095.8477977099 0.4288084848 2.0643152975
0.1553344057 2.4828985366 0.0000000000 0.0000000000 0.0000000000 2451.2361691232 0.4288084848 2.0643152975
0.1382700770 2.4712396561 0.0000000000 0.0000000000 0.0000000000 2800.7121782362 0.4288084848 2.0643152975
0.1217021284 2.4588855521 0.0000000000 0.0000000000 0.0000000000 3137.3040012125 0.4288084848 2.0643152975
0.1056588658 2.4458573315 0.0000000000 0.0000000000 0.0000000000 3444.1956933680 0.4288084848 2.0643152975
0.0901676989 2.4321772527 0.0000000000 0.0000000000 0.0000000000 3747.4343774173 0.4288084848 2.0643152975
0.0609465294 2.4029560832 0.0000000000 0.0000000000 0.0000000000 4085.4492476858 0.4288084848 2.0643152975
0.0472664506 2.3874649163 0.0000000000 0.0000000000 0.0000000000 3097.5069492765 0.4288084848 2.0643152975
0.0342382300 2.3714216537 0.0000000000 0.0000000000 0.0000000000 4914.6050355111 0.4288084848 2.0643152975
0.0218841261 2.3548537051 0.0000000000 0.0000000000 0.0000000000 4409.7367155286 0.4288084848 2.0643152975
0.0102252456 2.3377893764 0.0000000000 0.0000000000 0.0000000000 4713.9261408378 0.4288084848 2.0643152975
-0.0007184924 2.3202578219 0.0000000000 0.0000000000 0.0000000000 4749.8291770575 0.4288084848 2.0643152975
-0.0109283909 2.3022889939 0.0000000000 0.0000000000 0.0000000000 4831.0298183318 0.4288084848 2.0643152975
-0.0203870062 2.2839135918 0.0000000000 0.0000000000 0.0000000000 4863.4338370857 0.4288084848 2.0643152975
-0.0290781786 2.2651630097 0.0000000000 0.0000000000 0.0000000000 4878.3179716189 0.4288084848 2.0643152975
-0.0369870593 2.2460692826 0.0000000000 0.0000000000 0.0000000000 4864.1005891529 0.4288084848 2.0643152975
-0.0441001361 2.2266650319 0.0000000000 0.0000000000 0.0000000000 4827.0085730278 0.4288084848 2.0643152975
-0.0504052565 2.2069834095 0.0000000000 0.0000000000 0.0000000000 4765.1365195836 0.4288084848 2.0643152975
-0.0558916482 2.1870580409 0.0000000000 0.0000000000 0.0000000000 4681.3885095132 0.4288084848 2.0643152975
-0.0605499379 2.1669229684 0.0000000000 0.0000000000 0.0000000000 4576.4663044291 0.4288084848 2.0643152975
-0.0643721669 2.1466125925 0.0000000000 0.0000000000 0.0000000000 4453.0126374276 0.4288084848 2.0643152975
-0.0673518051 2.1261616130 0.0000000000 0.0000000000 0.0000000000 4313.2715032686 0.4288084848 2.0643152975
-0.0694837617 2.1056049700 0.0000000000 0.0000000000 0.0000000000 4160.5553925498 0.4288084848 2.0643152975
-0.0707643944 2.0849777844 0.0000000000 0.0000000000 0.0000000000 3998.3870003713 0.4288084848 2.0643152975
-0.0711915152 2.0643152973 0.0000000000 0.0000000000 0.0000000000 3830.8906802502 0.4288084848 2.0643152975
-0.0707643944 2.0436528102 0.0000000000 0.0000000000 0.0000000000 3662.2939075956 0.4288084848 2.0643152975
-0.0694837617 2.0230256246 0.0000000000 0.0000000000 0.0000000000 3496.7412487515 0.4288084848 2.0643152975
-0.0673518050 2.0024689817 0.0000000000 0.0000000000 0.0000000000 3337.7889591770 0.4288084848 2.0643152975
-0.0643721668 1.9820180022 0.0000000000 0.0000000000 0.0000000000 3188.0039918580 0.4288084848 2.0643152975
-0.0605499378 1.9617076262 0.0000000000 0.0000000000 0.0000000000 3048.6749005396 0.4288084848 2.0643152975
-0.0558916481 1.9415725537 0.0000000000 0.0000000000 0.0000000000 2919.8046911514 0.4288084848 2.0643152975
-0.0504052563 1.9216471852 0.0000000000 0.0000000000 0.0000000000 2800.3382784018 0.4288084848 2.0643152975
-0.0441001359 1.9019655627 0.0000000000 0.0000000000 0.0000000000 2688.8604515776 0.4288084848 2.0643152975
-0.0369870591 1.8825613120 0.0000000000 0.0000000000 0.0000000000 2583.4650685692 0.4288084848 2.0643152975
-0.0290781784 1.8634675850 0.0000000000 0.0000000000 0.0000000000 2483.4984413039 0.4288084848 2.0643152975
-0.0203870060 1.8447170029 0.0000000000 0.0000000000 0.0000000000 2386.4597482905 0.4288084848 2.0643152975
-0.0109283907 1.8263416008 0.0000000000 0.0000000000 0.0000000000 2294.7109230352 0.4288084848 2.0643152975
-0.0007184922 1.8083727728 0.0000000000 0.0000000000 0.0000000000 2201.6642593243 0.4288084848 2.0643152975
0.0102252458 1.7908412182 0.0000000000 0.0000000000 0.0000000000 2118.2755190172 0.4288084848 2.0643152975
0.0218841263 1.7737768896 0.0000000000 0.0000000000 0.0000000000 2024.2567953051 0.4288084848 2.0643152975
0.0342382303 1.7572089410 0.0000000000 0.0000000000 0.0000000000 1950.7328157535 0.4288084848 2.0643152975
0.0472664509 1.7411656784 0.0000000000 0.0000000000 0.0000000000 1846.6104044305 0.4288084848 2.0643152975
0.0609465297 1.7256745115 0.0000000000 0.0000000000 0.0000000000 1777.6484775625 0.4288084848 2.0643152975
0.0901676992 1.6964533420 0.0000000000 0.0000000000 0.0000000000 1628.6415547958 0.4288084848 2.0643152975
0.1056588661 1.6827732632 0.0000000000 0.0000000000 0.0000000000 1590.1913385640 0.4288084848 2.0643152975
0.1217021287 1.6697450427 0.0000000000 0.0000000000 0.0000000000 1467.1797522344 0.4288084848 2.0643152975
0.1382700773 1.6573909387 0.0000000000 0.0000000000 0.0000000000 1430.1609541722 0.4288084848 2.0643152975
0.1553344060 1.6457320582 0.0000000000 0.0000000000 0.0000000000 1333.5029961073 0.4288084848 2.0643152975
0.1728659605 1.6347883202 0.0000000000 0.0000000000 0.0000000000 1282.0141522647 0.4288084848 2.0643152975
0.1908347886 1.6245784218 0.0000000000 0.0000000000 0.0000000000 1203.5131498059 0.4288084848 2.0643152975
0.2092101907 1.6151198064 0.0000000000 0.0000000000 0.0000000000 1144.4436024338 0.4288084848 2.0643152975
0.2279607728 1.6064286341 0.0000000000 0.0000000000 0.0000000000 1074.2055533579 0.4288084848 2.0643152975
0.2470544998 1.5985197534 0.0000000000 0.0000000000 0.0000000000 1012.6164125226 0.4288084848 2.0643152975
0.2664587505 1.5914066766 0.0000000000 0.0000000000 0.0000000000 946.8429530057 0.4288084848 2.0643152975
0.2861403730 1.5851015562 0.0000000000 0.0000000000 0.0000000000 884.8494693452 0.4288084848 2.0643152975
0.3060657415 1.5796151645 0.0000000000 0.0000000000 0.0000000000 821.7486453767 0.4288084848 2.0643152975
0.3262008140 1.5749568748 0.0000000000 0.0000000000 0.0000000000 760.3100812941 0.4288084848 2.0643152975
0.3465111900 1.5711346458 0.0000000000 0.0000000000 0.0000000000 698.8813358002 0.4288084848 2.0643152975
0.3669621695 1.5681550076 0.0000000000 0.0000000000 0.0000000000 638.3081957923 0.4288084848 2.0643152975
0.3875188124 1.5660230510 0.0000000000 0.0000000000 0.0000000000 578.0481745314 0.4288084848 2.0643152975
0.4081459980 1.5647424183 0.0000000000 0.0000000000 0.0000000000 518.3193786081 0.4288084848 2.0643152975
0.4288084851 1.5643152975 0.0000000000 0.0000000000 0.0000000000 458.9259011564 0.4288084848 2.0643152975
0.4494709723 1.5647424183 0.0000000000 0.0000000000 0.0000000000 399.8936942335 0.4288084848 2.0643152975
0.4700981579 1.5660230510 0.0000000000 0.0000000000 0.0000000000 341.1259132340 0.4288084848 2.0643152975
0.4906548008 1.5681550077 0.0000000000 0.0000000000 0.0000000000 282.5766320236 0.4288084848 2.0643152975
0.5111057803 1.5711346459 0.0000000000 0.0000000000 0.0000000000 224.2099237231 0.4288084848 2.0643152975
0.5314161562 1.5749568749 0.0000000000 0.0000000000 0.0000000000 165.9875931885 0.4288084848 2.0643152975
0.5515512287 1.5796151646 0.0000000000 0.0000000000 0.0000000000 107.7830985065 0.4288084848 2.0643152975
0.5714765973 1.5851015564 0.0000000000 0.0000000000 0.0000000000 49.6703310553 0.4288084848 2.0643152975
0.5911582197 1.5914066768 0.0000000000 0.0000000000 0.0000000000 -8.6469794267 0.4288084848 2.0643152975
0.6105624704 1.5985197536 0.0000000000 0.0000000000 0.0000000000 -66.7895211630 0.4288084848 2.0643152975
0.6296561975 1.6064286343 0.0000000000 0.0000000000 0.0000000000 -125.5809769232 0.4288084848 2.0643152975
0.6484067796 1.6151198067 0.0000000000 0.0000000000 0.0000000000 -183.9231229796 0.4288084848 2.0643152975
0.6667821816 1.6245784221 0.0000000000 0.0000000000 0.0000000000 -243.5218894131 0.4288084848 2.0643152975
0.6847510097 1.6347883205 0.0000000000 0.0000000000 0.0000000000 -301.8701799440 0.4288084848 2.0643152975
0.7022825642 1.6457320586 0.0000000000 0.0000000000 0.0000000000 -363.5261210167 0.4288084848 2.0643152975
0.7193468928 1.6573909391 0.0000000000 0.0000000000 0.0000000000 -420.6807139798 0.4288084848 2.0643152975
0.7359148415 1.6697450430 0.0000000000 0.0000000000 0.0000000000 -487.3697484600 0.4288084848 2.0643152975
0.7519581040 1.6827732636 0.0000000000 0.0000000000 0.0000000000 -539.9060391228 0.4288084848 2.0643152975
0.7674492709 1.6964533424 0.0000000000 0.0000000000 0.0000000000 -616.8633280943 0.4288084848 2.0643152975
1.0048080486 1.6287007339 0.0000000000 0.1569584666 -0.0044197165 -834.0158609106 0.4550191444 2.1388302868
1.0226755174 1.6509415810 0.0000000000 0.1604749759 -0.0216404828 -896.2677512613 0.4541967247 2.1401571391
1.0396330484 1.6744574589 0.0000000000 0.1638654850 -0.0333774114 -961.4026485039 0.4532594362 2.1420748099
1.0556795917 1.6987585826 0.0000000000 0.1675234724 -0.0445610212 -1028.5451070507 0.4522312566 2.1441237214
1.0708050033 1.7236249763 0.0000000000 0.1717795499 -0.0570179460 -1097.1501367527 0.4511259223 2.1461150194
1.0850071357 1.7489352199 0.0000000000 0.1767403303 -0.0705843934 -1166.8731176588 0.4499639860 2.1479592769
1.0982849655 1.7746114887 0.0000000000 0.1824220092 -0.0846764432 -1237.5352258595 0.4487659124 2.1496114883
1.1106345624 1.8005974108 0.0000000000 0.1888512821 -0.0989880906 -1309.0327846920 0.4475480170 2.1510488816
1.1220482390 1.8268475453 0.0000000000 0.1960851129 -0.1134709801 -1381.2511583981 0.4463215878 2.1522603493
1.1325153190 1.8533218637 0.0000000000 0.2041886971 -0.1281373338 -1454.0303014442 0.4450936269 2.1532408816
1.1420233881 1.8799827395 0.0000000000 0.2132177453 -0.1429645156 -1527.1707805678 0.4438680764 2.1539885074
1.1505594161 1.9067932890 0.0000000000 0.2232157756 -0.1578967356 -1600.4483933880 0.4426469182 2.1545025850
1.1581105601 1.9337164430 0.0000000000 0.2342168797 -0.1728673886 -1673.6223899795 0.4414309556 2.1547828235
1.1646646911 1.9607144142 0.0000000000 0.2462467890 -0.1878085110 -1746.4396364939 0.4402203213 2.1548286977
1.1702107552 1.9877483869 0.0000000000 0.2593221028 -0.2026510742 -1818.6400147734 0.4390148210 2.1546390870
1.1747390638 2.0147783520 0.0000000000 0.2734496151 -0.2173248603 -1889.9642324204 0.4378142088 2.1542120570
1.1782415632 2.0417630557 0.0000000000 0.2886265426 -0.2317602207 -1960.1624602857 0.4366184435 2.1535447549
1.1807120946 2.0686600517 0.0000000000 0.3048414557 -0.2458905498 -2029.0022223136 0.4354279372 2.1526334085
1.1821466328 2.0954258582 0.0000000000 0.3220755791 -0.2596544291 -2096.2748408840 0.4342437849 2.1514734280
1.1825434844 2.1220162206 0.0000000000 0.3403042936 -0.2729971777 -2161.8002738032 0.4330679558 2.1500596159
1.1819034344 2.1483864836 0.0000000000 0.3594987658 -0.2858718519 -2225.4303153847 0.4319034344 2.1483864833
1.1802298384 2.1744920661 0.0000000000 0.3796276464 -0.2982397263 -2287.0501326924 0.4307543098 2.1464486701
1.1775286737 2.2002890258 0.0000000000 0.4006587729 -0.3100702580 -2346.5780987285 0.4296258259 2.1442414553
1.1738085628 2.2257346907 0.0000000000 0.4225608116 -0.3213405369 -2403.9638940329 0.4285244054 2.1417613334
1.1690807805 2.2507883244 0.0000000000 0.4453047694 -0.3320342548 -2459.1848924875 0.4274576609 2.1390066245
1.1633592449 2.2754117838 0.0000000000 0.4688652979 -0.3421402553 -2512.2409410965 0.4264343900 2.1359780781
1.1566604740 2.2995701287 0.0000000000 0.4932217142 -0.3516507669 -2563.1477816388 0.4254645399 2.1326794280
1.1490034785 2.3232321425 0.0000000000 0.5183586734 -0.3605594486 -2611.9295157554 0.4245591088 2.1291178585
1.1404095497 2.3463707275 0.0000000000 0.5442664606 -0.3688594025 -2658.6106479592 0.4237299454 2.1253043465
1.1309018997 2.3689631459 0.0000000000 0.5709409126 -0.3765413167 -2703.2083280142 0.4229894021 2.1212538492
1.1205051109 2.3909910790 0.0000000000 0.5983830217 -0.3835918940 -2745.7254554590 0.4223497995 2.1169853106
1.1092443549 2.4124404746 0.0000000000 0.6265983190 -0.3899927183 -2786.1453094530 0.4218226631 2.1125214562
1.0971443610 2.4333011407 0.0000000000 0.6555961570 -0.3957196828 -2824.4283028397 0.4214177101 2.1078883362
1.0842281657 2.4535660301 0.0000000000 0.6853890071 -0.4007430536 -2860.5112152686 0.4211416207 2.1031145588
1.0705158107 2.4732301611 0.0000000000 0.7159918158 -0.4050280998 -2894.3086018426 0.4209967579 2.0982301610
1.0560233899 2.4922892018 0.0000000000 0.7474213165 -0.4085359362 -2925.7147640821 0.4209802405 2.0932651443
1.0407630665 2.5107380102 0.0000000000 0.7796950720 -0.4112238462 -2954.6030149842 0.4210839859 2.0882479666
1.0247445472 2.5285699482 0.0000000000 0.8128302185 -0.4130440083 -2980.8175415134 0.4212962125 2.0832048089
1.0079776242 2.5457786795 0.0000000000 0.8468433953 -0.4139394795 -3004.1556019885 0.4216040124 2.0781613280
0.9904740633 2.5623665642 0.0000000000 0.8817550420 -0.4138322385 -3024.3120510405 0.4219952710 2.0731510056
0.9722422609 2.5783708727 0.0000000000 0.9176305481 -0.4126021607 -3040.8889200610 0.4224533571 2.0682413193
0.9324830974 2.6099173843 0.0000000000 0.9946936411 -0.4054053457 -3058.6569693864 0.4245219188 2.0581244512
0.9109135868 2.6257906016 0.0000000000 1.0360671410 -0.3983236798 -3055.4977956200 0.4261891585 2.0534775504
0.8885974031 2.6412072498 0.0000000000 1.0782612793 -0.3889549718 -3043.5577621005 0.4279378687 2.0493518677
0.8655733636 2.6560510422 0.0000000000 1.1209804889 -0.3772630102 -3022.4343721614 0.4297657521 2.0456645042
0.8418748524 2.6702510135 0.0000000000 1.1639614910 -0.3631885636 -2991.6127111089 0.4316637339 2.0423761548
0.8175405957 2.6837571868 0.0000000000 1.2069348547 -0.3466611249 -2950.5350858500 0.4336268089 2.0394667209
0.7926132153 2.6965354705 0.0000000000 1.2496159822 -0.3276041251 -2898.6336028934 0.4356526707 2.0369301570
0.7671368492 2.7085653794 0.0000000000 1.2917024219 -0.3059382562 -2835.3552918823 0.4377394077 2.0347721429
0.7411552848 2.7198364306 0.0000000000 1.3328730707 -0.2815911953 -2760.2014769546 0.4398837164 2.0330064355
0.7147112440 2.7303441237 0.0000000000 1.3727898669 -0.2545132966 -2672.7757307996 0.4420802662 2.0316508077
0.6878465018 2.7400865775 0.0000000000 1.4111026839 -0.2246956947 -2572.8318964553 0.4443219000 2.0307236462
0.6606022958 2.7490621110 0.0000000000 1.4474570973 -0.1921849044 -2460.3160739932 0.4466001278 2.0302414991
0.6330196395 2.7572675863 0.0000000000 1.4815038935 -0.1570881255 -2335.3983584314 0.4489055243 2.0302173868
0.6051393807 2.7646973034 0.0000000000 1.5129094001 -0.1195679905 -2198.4909112361 0.4512278742 2.0306596694
0.5770020118 2.7713423648 0.0000000000 1.5413666642 -0.0798326960 -2050.2499246632 0.4535560692 2.0315713872
0.5486473260 2.7771905073 0.0000000000 1.5666078073 -0.0381307927 -1891.5604026595 0.4558778527 2.0329500725
0.5201140473 2.7822263821 0.0000000000 1.5884163417 0.0052461506 -1723.5043228848 0.4581795383 2.0347880123
0.4914395488 2.7864321856 0.0000000000 1.6066357761 0.0499617228 -1547.3151366885 0.4604458183 2.0370728668
0.4626597351 2.7897884665 0.0000000000 1.6211705530 0.0956473375 -1364.3248244897 0.4626597352 2.0397884665
0.4338091115 2.7922749028 0.0000000000 1.6319794401 0.1419314174 -1175.9121276421 0.4648028423 2.0429155840
0.4049210168 2.7938708735 0.0000000000 1.6390673558 0.1884673858 -983.4592729611 0.4668555260 2.0464325038
0.3760279668 2.7945557290 0.0000000000 1.6424824844 0.2349385205 -788.3187206201 0.4687974404 2.0503152942
0.3471620523 2.7943087558 0.0000000000 1.6423182112 0.2810406573 -591.7856434923 0.4706079952 2.0545377783
0.3183553460 2.7931089070 0.0000000000 1.6387115772 0.3264698130 -395.0724123893 0.4722668528 2.0590712730
0.2896402960 2.7909344003 0.0000000000 1.6318329699 0.3709354436 -199.2871648321 0.4737544116 2.0638842009
0.2610501016 2.7877622808 0.0000000000 1.6218722169 0.4141878313 -5.4197140227 0.4750522699 2.0689416691
0.2326190753 2.7835680101 0.0000000000 1.6090280875 0.4560359975 185.6669106242 0.4761436773 2.0742050789
0.2043829931 2.7783250984 0.0000000000 1.5935003789 0.4963528398 373.2432595490 0.4770139712 2.0796317824
0.1763794159 2.7720047513 0.0000000000 1.5754889443 0.5350634324 556.7118173097 0.4776509846 2.0851747564
0.1486479435 2.7645754506 0.0000000000 1.5551990547 0.5720936932 735.6153530720 0.4780453853 2.0907822143
0.1212303238 2.7560023029 0.0000000000 1.5328225601 0.6074010639 909.6348133710 0.4781908688 2.0963969896
0.0941702799 2.7462458042 0.0000000000 1.5085248884 0.6410061671 1078.5833444805 0.4780840668 2.1019553386
0.0675127674 2.7352591920 0.0000000000 1.4824519071 0.6729613043 1242.4137670880 0.4777238861 2.1073843334
0.0413019821 2.7229822613 0.0000000000 1.4547229022 0.7033402349 1401.2398616226 0.4771095939 2.1125957235
0.0155763004 2.7093255781 0.0000000000 1.4254157148 0.7322663284 1555.4010376706 0.4762358351 2.1174701962
-0.0096441550 2.6941249837 0.0000000000 1.3945109738 0.7600009447 1705.6902702352 0.4750802736 2.1218119327
-0.0343851187 2.6769922010 0.0000000000 1.3619642894 0.7869561155 1854.0674872021 0.4735760602 2.1251992681
-0.0813097803 2.6427292796 0.0000000000 1.2927375844 0.8305874845 2113.4122643053 0.4704831528 2.1347681011
-0.1032947210 2.6259426328 0.0000000000 1.2578499264 0.8468907304 2223.2468111979 0.4690183303 2.1412182046
-0.1245517373 2.6074155677 0.0000000000 1.2219684546 0.8622077274 2329.6040930324 0.4673036449 2.1467560334
-0.1449677432 2.5874865155 0.0000000000 1.1852314893 0.8761297399 2431.0344600343 0.4654187949 2.1516789042
-0.1644620367 2.5663044586 0.0000000000 1.1476864198 0.8884763806 2526.7399840251 0.4634128222 2.1560933402
-0.1829744385 2.5439591826 0.0000000000 1.1093767378 0.8991629845 2616.2620950111 0.4613160274 2.1600453960
-0.2004560074 2.5205197045 0.0000000000 1.0703496127 0.9081227535 2699.2149168837 0.4591493061 2.1635591599
-0.2168648988 2.4960472118 0.0000000000 1.0306660692 0.9152851884 2775.2361759255 0.4569283377 2.1666497704
-0.2321646660 2.4705997901 0.0000000000 0.9904025506 0.9205703795 2843.9655995852 0.4546653291 2.1693282219
-0.2463234904 2.4442341209 0.0000000000 0.9496510861 0.9238918386 2905.0423404661 0.4523698258 2.1716031432
-0.2593137588 2.4170059801 0.0000000000 0.9085191780 0.9251615603 2958.1080602410 0.4500491726 2.1734813785
-0.2711117505 2.3889702720 0.0000000000 0.8671300552 0.9242950798 3002.8132918522 0.4477088614 2.1749681041
-0.2816973256 2.3601809271 0.0000000000 0.8256232286 0.9212159933 3038.8262897975 0.4453528740 2.1760668121
-0.2910535512 2.3306908230 0.0000000000 0.7841550792 0.9158601893 3065.8446465335 0.4429840828 2.1767793167
-0.2991662316 2.3005517988 0.0000000000 0.7428990848 0.9081801650 3083.6100801597 0.4406047460 2.1771058563
-0.3060233319 2.2698147895 0.0000000000 0.7020452028 0.8981496592 3091.9264752822 0.4382171030 2.1770453163
-0.3116143225 2.2385300799 0.0000000000 0.6617979010 0.8857685909 3090.6805820153 0.4358240473 2.1765955711
-0.3159295019 2.2067476643 0.0000000000 0.6223724219 0.8710680070 3079.8639002758 0.4334298169 2.1757539339
-0.3189593852 2.1745176991 0.0000000000 0.5839890806 0.8541144846 3059.5934239428 0.4310406148 2.1745176994
-0.3206942506 2.1418910405 0.0000000000 0.5468657179 0.8350132826 3030.1283598411 0.4286650682 2.1728847715
-0.3211239169 2.1089198661 0.0000000000 0.5112087898 0.8139095597 2991.8798973243 0.4263144528 2.1708543756
-0.3202377858 2.0756583818 0.0000000000 0.4772038498 0.7909871176 2945.4116331260 0.4240026490 2.1684278556
-0.3180251256 2.0421636085 0.0000000000 0.4450062432 0.7664641980 2891.4290882988 0.4217458519 2.1656095515
-0.3144755325 2.0084962287 0.0000000000 0.4147329477 0.7405862323 2830.7577209120 0.4195621014 2.1624077357
-0.3095794789 1.9747214507 0.0000000000 0.3864573819 0.7136176324 2764.3109866285 0.4174707204 2.1588355664
-0.3033288669 1.9409098272 0.0000000000 0.3602092850 0.6858367851 2693.0539632149 0.4154917449 2.1549119957