 TITLE = "Tecplot data"
 VARIABLES = "X", "Y", "Z" "U", "V", "p", "dispX", "dispY"
 ZONE SOLUTIONTIME=22.900000, NODES=26114 , ELEMENTS=25916, DATAPACKING=POINT, ZONETYPE=FEQUADRILATERAL
0.3945777365 0.3467469828 0.0000000000 0.0000000000 0.0000000000 -198.5518769122 0.0410243459 -0.0068064078
0.3945777368 -0.3603597982 0.0000000000 0.0000000000 0.0000000000 -233.5039669026 0.0410243459 -0.0068064078
-0.3125290448 0.3467469826 0.0000000000 0.0000000000 0.0000000000 -54.3444929851 0.0410243459 -0.0068064078
-0.3125290445 -0.3603597986 0.0000000000 0.0000000000 0.0000000000 -90.0923467889 0.0410243459 -0.0068064078
0.5706497857 0.5236809815 0.0000000000 0.0370619297 0.0345845473 -188.3109148197 0.0403196999 -0.0066491045
0.5723584057 -0.5370073969 0.0000000000 0.0841503151 -0.0368824623 -227.2964297441 0.0420283195 -0.0066773114
-0.4882732312 0.5237482155 0.0000000000 0.7995059652 0.4714660200 108.2007226045 0.0420568548 -0.0065818702
-0.4892788436 -0.5372136149 0.0000000000 0.8158133052 -0.4751257359 88.1190932097 0.0410512420 -0.0068835288
1.1015398947 1.0538669755 0.0000000000 1.2108929579 0.2315113307 -227.0472066823 0.0408797230 -0.0067931964
1.1020339750 -1.0671339263 0.0000000000 1.1862899561 -0.1686616081 -211.3700909629 0.0413738025 -0.0064737553
-1.0176278247 1.0541726265 0.0000000000 0.9095615369 0.1867394076 107.1505136834 0.0430323474 -0.0064875450
-1.0198864471 -1.0675194093 0.0000000000 0.9140325947 -0.1832982115 96.9807781995 0.0407737242 -0.0068592370
4.2381783080 3.2942401820 0.0000000000 1.0835036013 -0.0564167362 -72.4549166718 0.0381783080 -0.0057598180
4.2381660908 -3.3056874406 0.0000000000 1.1082917058 0.0594559179 -83.3235976377 0.0381660908 -0.0056874406
20.0000000000 4.7000000000 0.0000000000 1.0008530114 -0.0042782980 0.0023690430 0.0000000000 0.0000000000
20.0000000000 -4.7000000000 0.0000000000 1.0008130886 0.0042992499 0.0026510059 0.0000000000 0.0000000000
-10.0000000000 15.0000000000 0.0000000000 1.0000000000 0.0000000000 4.8198835167 0.0000000000 0.0000000000
20.0000000000 15.0000000000 0.0000000000 1.0009319347 0.0000000000 -0.0057361727 0.0000000000 0.0000000000
20.0000000000 -15.0000000000 0.0000000000 1.0008895446 0.0000000000 -0.0055988035 0.0000000000 0.0000000000
-10.0000000000 -15.0000000000 0.0000000000 1.0000000000 0.0000000000 3.6944774227 0.0000000000 0.0000000000
0.4075502821 -0.3468927765 0.0000000000 0.0000000000 0.0000000000 -231.7121386747 0.0410243459 -0.0068064078
0.4200102077 -0.3329501132 0.0000000000 0.0000000000 0.0000000000 -230.3879880545 0.0410243459 -0.0068064078
0.4319400874 -0.3185513085 0.0000000000 0.0000000000 0.0000000000 -229.0188977927 0.0410243459 -0.0068064078
0.4433232360 -0.3037165004 0.0000000000 0.0000000000 0.0000000000 -227.7715089591 0.0410243459 -0.0068064078
0.4541437333 -0.2884664366 0.0000000000 0.0000000000 0.0000000000 -226.5145479783 0.0410243459 -0.0068064078
0.4643864457 -0.2728224458 0.0000000000 0.0000000000 0.0000000000 -225.2625500987 0.0410243459 -0.0068064078
0.4740370480 -0.2568064076 0.0000000000 0.0000000000 0.0000000000 -223.9746266014 0.0410243459 -0.0068064078
0.4830820428 -0.2404407217 0.0000000000 0.0000000000 0.0000000000 -222.6466557448 0.0410243459 -0.0068064078
0.4915087800 -0.2237482771 0.0000000000 0.0000000000 0.0000000000 -221.2684311420 0.0410243459 -0.0068064078
0.4993054740 -0.2067524197 0.0000000000 0.0000000000 0.0000000000 -219.8428976697 0.0410243459 -0.0068064078
0.5064612203 -0.1894769198 0.0000000000 0.0000000000 0.0000000000 -218.3763850357 0.0410243459 -0.0068064078
0.5129660112 -0.1719459386 0.0000000000 0.0000000000 0.0000000000 -216.8821785865 0.0410243459 -0.0068064078
0.5188107489 -0.1541839948 0.0000000000 0.0000000000 0.0000000000 -215.3775586576 0.0410243459 -0.0068064078
0.5239872591 -0.1362159302 0.0000000000 0.0000000000 0.0000000000 -213.8836192290 0.0410243459 -0.0068064078
0.5284883021 -0.1180668746 0.0000000000 0.0000000000 0.0000000000 -212.4234340525 0.0410243459 -0.0068064078
0.5323075826 -0.0997622112 0.0000000000 0.0000000000 0.0000000000 -211.0207289205 0.0410243459 -0.0068064078
0.5354397591 -0.0813275407 0.0000000000 0.0000000000 0.0000000000 -209.6981119623 0.0410243459 -0.0068064078
0.5378804509 -0.0627886457 0.0000000000 0.0000000000 0.0000000000 -208.4755019112 0.0410243459 -0.0068064078
0.5396262445 -0.0441714544 0.0000000000 0.0000000000 0.0000000000 -207.3685312769 0.0410243459 -0.0068064078
0.5406746983 -0.0255020048 0.0000000000 0.0000000000 0.0000000000 -206.3876481595 0.0410243459 -0.0068064078
0.5410243459 -0.0068064076 0.0000000000 0.0000000000 0.0000000000 -205.5361830468 0.0410243459 -0.0068064078
0.5406746983 0.0118891895 0.0000000000 0.0000000000 0.0000000000 -204.8146078793 0.0410243459 -0.0068064078
0.5396262445 0.0305586391 0.0000000000 0.0000000000 0.0000000000 -204.2032913799 0.0410243459 -0.0068064078
0.5378804508 0.0491758304 0.0000000000 0.0000000000 0.0000000000 -203.7324658238 0.0410243459 -0.0068064078
0.5354397590 0.0677147254 0.0000000000 0.0000000000 0.0000000000 -203.2363574799 0.0410243459 -0.0068064078
0.5323075825 0.0861493959 0.0000000000 0.0000000000 0.0000000000 -202.2994028129 0.0410243459 -0.0068064078
0.5284883020 0.1044540593 0.0000000000 0.0000000000 0.0000000000 -202.8181418387 0.0410243459 -0.0068064078
0.5239872590 0.1226031149 0.0000000000 0.0000000000 0.0000000000 -202.2164169525 0.0410243459 -0.0068064078
0.5188107488 0.1405711795 0.0000000000 0.0000000000 0.0000000000 -202.0214143133 0.0410243459 -0.0068064078
0.5129660110 0.1583331233 0.0000000000 0.0000000000 0.0000000000 -201.6281197910 0.0410243459 -0.0068064078
0.5064612202 0.1758641045 0.0000000000 0.0000000000 0.0000000000 -201.4346925726 0.0410243459 -0.0068064078
0.4993054738 0.1931396044 0.0000000000 0.0000000000 0.0000000000 -201.0741083527 0.0410243459 -0.0068064078
0.4915087798 0.2101354618 0.0000000000 0.0000000000 0.0000000000 -200.6075283856 0.0410243459 -0.0068064078
0.4830820426 0.2268279064 0.0000000000 0.0000000000 0.0000000000 -200.2341679871 0.0410243459 -0.0068064078
0.4740370478 0.2431935922 0.0000000000 0.0000000000 0.0000000000 -199.7386987107 0.0410243459 -0.0068064078
0.4643864455 0.2592096305 0.0000000000 0.0000000000 0.0000000000 -199.2945462599 0.0410243459 -0.0068064078
0.4541437330 0.2748536213 0.0000000000 0.0000000000 0.0000000000 -198.8558076416 0.0410243459 -0.0068064078
0.4433232357 0.2901036850 0.0000000000 0.0000000000 0.0000000000 -198.4943767824 0.0410243459 -0.0068064078
0.4319400871 0.3049384931 0.0000000000 0.0000000000 0.0000000000 -198.2030253825 0.0410243459 -0.0068064078
0.4200102074 0.3193372978 0.0000000000 0.0000000000 0.0000000000 -198.1052538365 0.0410243459 -0.0068064078
0.4075502818 0.3332799611 0.0000000000 0.0000000000 0.0000000000 -198.1256062957 0.0410243459 -0.0068064078
0.3796651317 0.3610555475 0.0000000000 0.0000000000 0.0000000000 -199.1837771267 0.0410243459 -0.0068064078
0.3641739648 0.3747356263 0.0000000000 0.0000000000 0.0000000000 -200.4312824643 0.0410243459 -0.0068064078
0.3481307022 0.3877638469 0.0000000000 0.0000000000 0.0000000000 -202.0941564754 0.0410243459 -0.0068064078
0.3315627536 0.4001179508 0.0000000000 0.0000000000 0.0000000000 -204.3458647951 0.0410243459 -0.0068064078
0.3144984249 0.4117768313 0.0000000000 0.0000000000 0.0000000000 -207.1254097163 0.0410243459 -0.0068064078
0.2969668704 0.4227205694 0.0000000000 0.0000000000 0.0000000000 -210.4918545458 0.0410243459 -0.0068064078
0.2789980424 0.4329304678 0.0000000000 0.0000000000 0.0000000000 -214.4396259196 0.0410243459 -0.0068064078
0.2606226403 0.4423890831 0.0000000000 0.0000000000 0.0000000000 -219.0192107766 0.0410243459 -0.0068064078
0.2418720582 0.4510802555 0.0000000000 0.0000000000 0.0000000000 -224.2765587798 0.0410243459 -0.0068064078
0.2227783311 0.4589891362 0.0000000000 0.0000000000 0.0000000000 -230.2832658001 0.0410243459 -0.0068064078
0.2033740804 0.4661022130 0.0000000000 0.0000000000 0.0000000000 -237.1043962852 0.0410243459 -0.0068064078
0.1836924580 0.4724073334 0.0000000000 0.0000000000 0.0000000000 -244.7952039798 0.0410243459 -0.0068064078
0.1637670894 0.4778937251 0.0000000000 0.0000000000 0.0000000000 -253.3810327614 0.0410243459 -0.0068064078
0.1436320169 0.4825520148 0.0000000000 0.0000000000 0.0000000000 -262.8492877988 0.0410243459 -0.0068064078
0.1233216410 0.4863742439 0.0000000000 0.0000000000 0.0000000000 -273.1376521947 0.0410243459 -0.0068064078
0.1028706615 0.4893538820 0.0000000000 0.0000000000 0.0000000000 -284.1266795382 0.0410243459 -0.0068064078
0.0823140186 0.4914858387 0.0000000000 0.0000000000 0.0000000000 -295.6324810086 0.0410243459 -0.0068064078
0.0616868329 0.4927664713 0.0000000000 0.0000000000 0.0000000000 -307.4032951976 0.0410243459 -0.0068064078
0.0410243458 0.4931935922 0.0000000000 0.0000000000 0.0000000000 -319.1197443794 0.0410243459 -0.0068064078
0.0203618587 0.4927664713 0.0000000000 0.0000000000 0.0000000000 -330.4003737115 0.0410243459 -0.0068064078
-0.0002653269 0.4914858386 0.0000000000 0.0000000000 0.0000000000 -340.8122262394 0.0410243459 -0.0068064078
-0.0208219698 0.4893538820 0.0000000000 0.0000000000 0.0000000000 -349.8861486958 0.0410243459 -0.0068064078
-0.0412729493 0.4863742438 0.0000000000 0.0000000000 0.0000000000 -357.1355652177 0.0410243459 -0.0068064078
-0.0615833253 0.4825520148 0.0000000000 0.0000000000 0.0000000000 -362.0772088268 0.0410243459 -0.0068064078
-0.0817183978 0.4778937251 0.0000000000 0.0000000000 0.0000000000 -364.2520348802 0.0410243459 -0.0068064078
-0.1016437663 0.4724073333 0.0000000000 0.0000000000 0.0000000000 -363.2446816341 0.0410243459 -0.0068064078
-0.1213253888 0.4661022130 0.0000000000 0.0000000000 0.0000000000 -358.7001313128 0.0410243459 -0.0068064078
-0.1407296395 0.4589891361 0.0000000000 0.0000000000 0.0000000000 -350.3366847582 0.0410243459 -0.0068064078
-0.1598233665 0.4510802554 0.0000000000 0.0000000000 0.0000000000 -337.9548419551 0.0410243459 -0.0068064078
-0.1785739486 0.4423890830 0.0000000000 0.0000000000 0.0000000000 -321.4421215287 0.0410243459 -0.0068064078
-0.1969493507 0.4329304677 0.0000000000 0.0000000000 0.0000000000 -300.7741844505 0.0410243459 -0.0068064078
-0.2149181788 0.4227205693 0.0000000000 0.0000000000 0.0000000000 -276.0128325510 0.0410243459 -0.0068064078
-0.2324497333 0.4117768312 0.0000000000 0.0000000000 0.0000000000 -247.3015324967 0.0410243459 -0.0068064078
-0.2495140619 0.4001179507 0.0000000000 0.0000000000 0.0000000000 -214.8590974032 0.0410243459 -0.0068064078
-0.2660820105 0.3877638468 0.0000000000 0.0000000000 0.0000000000 -178.9720776624 0.0410243459 -0.0068064078
-0.2821252731 0.3747356262 0.0000000000 0.0000000000 0.0000000000 -139.9863097205 0.0410243459 -0.0068064078
-0.2976164400 0.3610555474 0.0000000000 0.0000000000 0.0000000000 -98.2979795902 0.0410243459 -0.0068064078
-0.3268376095 0.3318343778 0.0000000000 0.0000000000 0.0000000000 -8.5954061453 0.0410243459 -0.0068064078
-0.3405176883 0.3163432110 0.0000000000 0.0000000000 0.0000000000 38.4563518815 0.0410243459 -0.0068064078
-0.3535459089 0.3002999484 0.0000000000 0.0000000000 0.0000000000 86.3027715631 0.0410243459 -0.0068064078
-0.3659000128 0.2837319997 0.0000000000 0.0000000000 0.0000000000 134.4284276120 0.0410243459 -0.0068064078
-0.3775588933 0.2666676711 0.0000000000 0.0000000000 0.0000000000 182.3174422388 0.0410243459 -0.0068064078
-0.3885026314 0.2491361166 0.0000000000 0.0000000000 0.0000000000 229.4597481199 0.0410243459 -0.0068064078
-0.3987125298 0.2311672885 0.0000000000 0.0000000000 0.0000000000 275.3567063581 0.0410243459 -0.0068064078
-0.4081711451 0.2127918864 0.0000000000 0.0000000000 0.0000000000 319.5261607269 0.0410243459 -0.0068064078
-0.4168623175 0.1940413043 0.0000000000 0.0000000000 0.0000000000 361.5070184590 0.0410243459 -0.0068064078
-0.4247711982 0.1749475773 0.0000000000 0.0000000000 0.0000000000 400.8634215209 0.0410243459 -0.0068064078
-0.4318842750 0.1555433266 0.0000000000 0.0000000000 0.0000000000 437.1885627737 0.0410243459 -0.0068064078
-0.4381893954 0.1358617041 0.0000000000 0.0000000000 0.0000000000 470.1081542944 0.0410243459 -0.0068064078
-0.4436757871 0.1159363355 0.0000000000 0.0000000000 0.0000000000 499.2835817953 0.0410243459 -0.0068064078
-0.4483340768 0.0958012631 0.0000000000 0.0000000000 0.0000000000 524.4146856663 0.0410243459 -0.0068064078
-0.4521563058 0.0754908871 0.0000000000 0.0000000000 0.0000000000 545.2422628378 0.0410243459 -0.0068064078
-0.4551359440 0.0550399076 0.0000000000 0.0000000000 0.0000000000 561.5500835437 0.0410243459 -0.0068064078
-0.4572679006 0.0344832647 0.0000000000 0.0000000000 0.0000000000 573.1667856618 0.0410243459 -0.0068064078
-0.4585485333 0.0138560791 0.0000000000 0.0000000000 0.0000000000 579.9669459785 0.0410243459 -0.0068064078
-0.4589756541 -0.0068064081 0.0000000000 0.0000000000 0.0000000000 581.8726280291 0.0410243459 -0.0068064078
-0.4585485333 -0.0274688952 0.0000000000 0.0000000000 0.0000000000 578.8529771886 0.0410243459 -0.0068064078
-0.4572679006 -0.0480960808 0.0000000000 0.0000000000 0.0000000000 570.9263810185 0.0410243459 -0.0068064078
-0.4551359439 -0.0686527237 0.0000000000 0.0000000000 0.0000000000 558.1568104181 0.0410243459 -0.0068064078
-0.4521563058 -0.0891037032 0.0000000000 0.0000000000 0.0000000000 540.6598785773 0.0410243459 -0.0068064078
-0.4483340767 -0.1094140792 0.0000000000 0.0000000000 0.0000000000 518.5898600269 0.0410243459 -0.0068064078
-0.4436757870 -0.1295491516 0.0000000000 0.0000000000 0.0000000000 492.1608707587 0.0410243459 -0.0068064078
-0.4381893953 -0.1494745202 0.0000000000 0.0000000000 0.0000000000 461.6037800462 0.0410243459 -0.0068064078
-0.4318842749 -0.1691561427 0.0000000000 0.0000000000 0.0000000000 427.2410900541 0.0410243459 -0.0068064078
-0.4247711980 -0.1885603933 0.0000000000 0.0000000000 0.0000000000 389.3419202309 0.0410243459 -0.0068064078
-0.4168623173 -0.2076541204 0.0000000000 0.0000000000 0.0000000000 348.3848691435 0.0410243459 -0.0068064078
-0.4081711449 -0.2264047025 0.0000000000 0.0000000000 0.0000000000 304.5586391331 0.0410243459 -0.0068064078
-0.3987125296 -0.2447801046 0.0000000000 0.0000000000 0.0000000000 258.6909953149 0.0410243459 -0.0068064078
-0.3885026311 -0.2627489326 0.0000000000 0.0000000000 0.0000000000 210.4810586255 0.0410243459 -0.0068064078
-0.3775588931 -0.2802804871 0.0000000000 0.0000000000 0.0000000000 161.8617239234 0.0410243459 -0.0068064078
-0.3659000126 -0.2973448157 0.0000000000 0.0000000000 0.0000000000 110.5090794702 0.0410243459 -0.0068064078
-0.3535459086 -0.3139127644 0.0000000000 0.0000000000 0.0000000000 62.5031549779 0.0410243459 -0.0068064078
-0.3405176880 -0.3299560270 0.0000000000 0.0000000000 0.0000000000 7.8674829001 0.0410243459 -0.0068064078
-0.3268376093 -0.3454471938 0.0000000000 0.0000000000 0.0000000000 -22.8816788077 0.0410243459 -0.0068064078
-0.2976164397 -0.3746683634 0.0000000000 0.0000000000 0.0000000000 -148.3460588244 0.0410243459 -0.0068064078
-0.2821252728 -0.3883484421 0.0000000000 0.0000000000 0.0000000000 -183.8863346494 0.0410243459 -0.0068064078
-0.2660820102 -0.4013766627 0.0000000000 0.0000000000 0.0000000000 -220.9628557610 0.0410243459 -0.0068064078
-0.2495140616 -0.4137307666 0.0000000000 0.0000000000 0.0000000000 -261.2858405050 0.0410243459 -0.0068064078
-0.2324497329 -0.4253896471 0.0000000000 0.0000000000 0.0000000000 -295.7135523516 0.0410243459 -0.0068064078
-0.2149181784 -0.4363333852 0.0000000000 0.0000000000 0.0000000000 -328.1642489363 0.0410243459 -0.0068064078
-0.1969493504 -0.4465432836 0.0000000000 0.0000000000 0.0000000000 -355.6488736374 0.0410243459 -0.0068064078
-0.1785739483 -0.4560018989 0.0000000000 0.0000000000 0.0000000000 -379.4676618723 0.0410243459 -0.0068064078
-0.1598233662 -0.4646930713 0.0000000000 0.0000000000 0.0000000000 -398.6622887088 0.0410243459 -0.0068064078
-0.1407296391 -0.4726019520 0.0000000000 0.0000000000 0.0000000000 -413.6703300827 0.0410243459 -0.0068064078
-0.1213253884 -0.4797150288 0.0000000000 0.0000000000 0.0000000000 -424.2644079554 0.0410243459 -0.0068064078
-0.1016437659 -0.4860201492 0.0000000000 0.0000000000 0.0000000000 -430.7421343005 0.0410243459 -0.0068064078
-0.0817183974 -0.4915065409 0.0000000000 0.0000000000 0.0000000000 -433.2346393637 0.0410243459 -0.0068064078
-0.0615833249 -0.4961648306 0.0000000000 0.0000000000 0.0000000000 -432.1049505018 0.0410243459 -0.0068064078
-0.0412729489 -0.4999870596 0.0000000000 0.0000000000 0.0000000000 -427.7033589378 0.0410243459 -0.0068064078
-0.0208219694 -0.5029666978 0.0000000000 0.0000000000 0.0000000000 -420.4916502639 0.0410243459 -0.0068064078
-0.0002653265 -0.5050986544 0.0000000000 0.0000000000 0.0000000000 -410.9463378152 0.0410243459 -0.0068064078
0.0203618591 -0.5063792871 0.0000000000 0.0000000000 0.0000000000 -399.5848357897 0.0410243459 -0.0068064078
0.0410243462 -0.5068064078 0.0000000000 0.0000000000 0.0000000000 -386.9175119773 0.0410243459 -0.0068064078
0.0616868333 -0.5063792870 0.0000000000 0.0000000000 0.0000000000 -373.4413180363 0.0410243459 -0.0068064078
0.0823140190 -0.5050986543 0.0000000000 0.0000000000 0.0000000000 -359.6117035617 0.0410243459 -0.0068064078
0.1028706619 -0.5029666977 0.0000000000 0.0000000000 0.0000000000 -345.8313232226 0.0410243459 -0.0068064078
0.1233216414 -0.4999870595 0.0000000000 0.0000000000 0.0000000000 -332.4360415517 0.0410243459 -0.0068064078
0.1436320173 -0.4961648304 0.0000000000 0.0000000000 0.0000000000 -319.6904418837 0.0410243459 -0.0068064078
0.1637670898 -0.4915065407 0.0000000000 0.0000000000 0.0000000000 -307.7863060376 0.0410243459 -0.0068064078
0.1836924583 -0.4860201490 0.0000000000 0.0000000000 0.0000000000 -296.8471699817 0.0410243459 -0.0068064078
0.2033740808 -0.4797150286 0.0000000000 0.0000000000 0.0000000000 -286.9354489012 0.0410243459 -0.0068064078
0.2227783315 -0.4726019518 0.0000000000 0.0000000000 0.0000000000 -278.0631118477 0.0410243459 -0.0068064078
0.2418720585 -0.4646930710 0.0000000000 0.0000000000 0.0000000000 -270.2017637313 0.0410243459 -0.0068064078
0.2606226406 -0.4560018986 0.0000000000 0.0000000000 0.0000000000 -263.2968118722 0.0410243459 -0.0068064078
0.2789980427 -0.4465432833 0.0000000000 0.0000000000 0.0000000000 -257.2739361611 0.0410243459 -0.0068064078
0.2969668708 -0.4363333849 0.0000000000 0.0000000000 0.0000000000 -252.0597062936 0.0410243459 -0.0068064078
0.3144984253 -0.4253896468 0.0000000000 0.0000000000 0.0000000000 -247.5652990748 0.0410243459 -0.0068064078
0.3315627539 -0.4137307663 0.0000000000 0.0000000000 0.0000000000 -243.7376631422 0.0410243459 -0.0068064078
0.3481307025 -0.4013766623 0.0000000000 0.0000000000 0.0000000000 -240.4518144458 0.0410243459 -0.0068064078
0.3641739651 -0.3883484417 0.0000000000 0.0000000000 0.0000000000 -237.7392020042 0.0410243459 -0.0068064078
0.3796651320 -0.3746683629 0.0000000000 0.0000000000 0.0000000000 -235.2820869353 0.0410243459 -0.0068064078
0.5917334832 -0.5167800579 0.0000000000 0.0510848556 -0.0395157125 -227.1592383067 0.0419445790 -0.0066505049
0.6103694606 -0.4958548472 0.0000000000 0.0262773908 -0.0429357786 -227.0214505004 0.0418906679 -0.0066392892
0.6282140439 -0.4742464379 0.0000000000 0.0079325194 -0.0465351958 -226.8876736459 0.0418404317 -0.0066290869
0.6452362882 -0.4519842236 0.0000000000 -0.0056018348 -0.0498307942 -226.7199349448 0.0417879530 -0.0066190848
0.6614103833 -0.4290995325 0.0000000000 -0.0157242583 -0.0524601179 -226.4857261766 0.0417313023 -0.0066094894
0.6767130782 -0.4056246744 0.0000000000 -0.0235446187 -0.0541715282 -226.1595553061 0.0416699286 -0.0066006175
0.6911229489 -0.3815927616 0.0000000000 -0.0298972756 -0.0548041115 -225.7228684598 0.0416038958 -0.0065927620
0.7046201301 -0.3570376337 0.0000000000 -0.0353777850 -0.0542657560 -225.1635986690 0.0415335848 -0.0065861629
0.7171861990 -0.3319938049 0.0000000000 -0.0403856559 -0.0525145279 -224.4756977190 0.0414595479 -0.0065810009
0.7288041215 -0.3064964188 0.0000000000 -0.0451644686 -0.0495451308 -223.6588764717 0.0413824294 -0.0065774009
0.7394582315 -0.2805812057 0.0000000000 -0.0498364858 -0.0453802003 -222.7185056110 0.0413029199 -0.0065754378
0.7491342277 -0.2542844380 0.0000000000 -0.0544317140 -0.0400652919 -221.6655079821 0.0412217298 -0.0065751419
0.7578191770 -0.2276428833 0.0000000000 -0.0589122933 -0.0336662523 -220.5160523068 0.0411395725 -0.0065765028
0.7655015205 -0.2006937558 0.0000000000 -0.0631931331 -0.0262678533 -219.2909005288 0.0410571506 -0.0065794723
0.7721710796 -0.1734746663 0.0000000000 -0.0671594882 -0.0179728661 -218.0143362551 0.0409751454 -0.0065839662
0.7778190624 -0.1460235716 0.0000000000 -0.0706819373 -0.0089010505 -216.7126866805 0.0408942074 -0.0065898666
0.7824380690 -0.1183787237 0.0000000000 -0.0736290584 0.0008122254 -215.4125284637 0.0408149493 -0.0065970244
0.7860220980 -0.0905786203 0.0000000000 -0.0758779956 0.0110178375 -214.1387282469 0.0407379406 -0.0066052635
0.7885665517 -0.0626619544 0.0000000000 -0.0773230450 0.0215552064 -212.9125047259 0.0406637038 -0.0066143845
0.7900682413 -0.0346675658 0.0000000000 -0.0778823586 0.0322549380 -211.7497091717 0.0405927127 -0.0066241704
0.7905253910 -0.0066343921 0.0000000000 -0.0775028461 0.0429416424 -210.6595058683 0.0405253910 -0.0066343924
0.7899376413 0.0213985801 0.0000000000 -0.0761633639 0.0534367373 -209.6435963961 0.0404621127 -0.0066448159
0.7883060512 0.0493923639 0.0000000000 -0.0738763003 0.0635610472 -208.6960776047 0.0404032033 -0.0066552066
0.7856331007 0.0773080206 0.0000000000 -0.0706876966 0.0731370333 -207.8039604632 0.0403489433 -0.0066653368
0.7819226922 0.1051067095 0.0000000000 -0.0666760693 0.0819905628 -206.9483143662 0.0402995726 -0.0066749904
0.7771801524 0.1327497372 0.0000000000 -0.0619501043 0.0899522275 -206.1059464627 0.0402552975 -0.0066839684
0.7714122333 0.1601986074 0.0000000000 -0.0566453756 0.0968583680 -205.2514826770 0.0402162992 -0.0066920933
0.7646271124 0.1874150720 0.0000000000 -0.0509201813 0.1025521216 -204.3596873931 0.0401827428 -0.0066992120
0.7568343909 0.2143611827 0.0000000000 -0.0449504936 0.1068849773 -203.4078408509 0.0401547866 -0.0067051983
0.7480450881 0.2409993446 0.0000000000 -0.0389238637 0.1097194442 -202.3779851423 0.0401325904 -0.0067099520
0.7382716323 0.2672923723 0.0000000000 -0.0330318728 0.1109334804 -201.2588511682 0.0401163209 -0.0067133961
0.7275278442 0.2932035485 0.0000000000 -0.0274602852 0.1104272714 -200.0472942493 0.0401061523 -0.0067154699
0.7158289106 0.3186966855 0.0000000000 -0.0223752638 0.1081328379 -198.7491064035 0.0401022597 -0.0067161190
0.7031913442 0.3437361892 0.0000000000 -0.0179026386 0.1040269303 -197.3791595034 0.0401047991 -0.0067152821
0.6896329248 0.3682871208 0.0000000000 -0.0140952208 0.0981478857 -195.9609936320 0.0401138721 -0.0067128793
0.6751726216 0.3923152522 0.0000000000 -0.0108812317 0.0906174880 -194.5262064104 0.0401294723 -0.0067088054
0.6598305012 0.4157871073 0.0000000000 -0.0079873733 0.0816686110 -193.1142231644 0.0401514206 -0.0067029363
0.6436276344 0.4386699856 0.0000000000 -0.0048370782 0.0716769170 -191.7729226124 0.0401792997 -0.0066951537
0.6265859973 0.4609319671 0.0000000000 -0.0004418356 0.0611885277 -190.5596827462 0.0402123855 -0.0066853843
0.6087282780 0.4825418936 0.0000000000 0.0066714973 0.0509265680 -189.5406342781 0.0402494857 -0.0066736649
0.5900772628 0.5034693477 0.0000000000 0.0184352030 0.0417544661 -188.7813357231 0.0402883590 -0.0066602057
0.5483297837 0.5451508883 0.0000000000 0.0684532548 0.0300474052 -188.2757290708 0.0403686050 -0.0066420448
0.5251424728 0.5656740155 0.0000000000 0.1134190218 0.0298082793 -188.6191852938 0.0404180445 -0.0066390357
0.5011336468 0.5852202489 0.0000000000 0.1733322163 0.0343076224 -189.3052619954 0.0404741124 -0.0066351332
0.4763442683 0.6037565434 0.0000000000 0.2482456011 0.0436508277 -190.2548775266 0.0405366569 -0.0066299946
0.4508159330 0.6212513065 0.0000000000 0.3368030893 0.0577386332 -191.4160633810 0.0406048145 -0.0066235523
0.4245913107 0.6376744693 0.0000000000 0.4362324873 0.0763095564 -192.7817071217 0.0406775239 -0.0066159966
0.3977142822 0.6529976676 0.0000000000 0.5424297016 0.0988589562 -194.3745513827 0.0407537375 -0.0066076458
0.3702299263 0.6671943826 0.0000000000 0.6502794470 0.1245285071 -196.2071161275 0.0408324848 -0.0065988539
0.3421844518 0.6802400398 0.0000000000 0.7543034819 0.1521029177 -198.2386171004 0.0409128834 -0.0065899552
0.3136251137 0.6921120688 0.0000000000 0.8495127248 0.1801664523 -200.3564757575 0.0409941358 -0.0065812472
0.2846001289 0.7027899395 0.0000000000 0.9321768312 0.2073566262 -202.3941297186 0.0410755271 -0.0065729918
0.2551585939 0.7122551901 0.0000000000 1.0002548415 0.2326033277 -204.1698932485 0.0411564258 -0.0065654218
0.2253504028 0.7204914532 0.0000000000 1.0534006576 0.2552694829 -205.5216428071 0.0412362876 -0.0065587463
0.1952261631 0.7274844831 0.0000000000 1.0926286775 0.2751690347 -206.3234255653 0.0413146566 -0.0065531509
0.1648371071 0.7332221819 0.0000000000 1.1198104653 0.2924870769 -206.4846269496 0.0413911645 -0.0065487957
0.1342349978 0.7376946247 0.0000000000 1.1371687108 0.3076491067 -205.9387700111 0.0414655245 -0.0065458101
0.1034720309 0.7408940830 0.0000000000 1.1468785833 0.3211849221 -204.6290664131 0.0415375219 -0.0065442867
0.0726007312 0.7428150436 0.0000000000 1.1508194685 0.3336180945 -202.4958156227 0.0416070006 -0.0065442752
0.0416738472 0.7434542243 0.0000000000 1.1504677001 0.3453941199 -199.4684801756 0.0416738474 -0.0065457757
0.0107442437 0.7428105837 0.0000000000 1.1468928029 0.3568460419 -195.4631881501 0.0417379746 -0.0065487351
-0.0201352067 0.7408853250 0.0000000000 1.1408135604 0.3681883954 -190.3848490203 0.0417993026 -0.0065530447
-0.0509117308 0.7376818931 0.0000000000 1.1326776785 0.3795283020 -184.1322638135 0.0418577428 -0.0065585417
-0.0815327611 0.7332059640 0.0000000000 1.1227413238 0.3908842512 -176.6045334124 0.0419131818 -0.0065650135
-0.1119460399 0.7274654281 0.0000000000 1.1111365018 0.4022062318 -167.7074524353 0.0419654669 -0.0065722059
-0.1420997205 0.7204703666 0.0000000000 1.0979225254 0.4133938429 -157.3591058682 0.0420143951 -0.0065798328
-0.1719424655 0.7122330229 0.0000000000 1.0831224970 0.4243111543 -145.4943430270 0.0420597028 -0.0065875889
-0.2014235416 0.7027677693 0.0000000000 1.0667476759 0.4347983115 -132.0681013257 0.0421010605 -0.0065951619
-0.2304929102 0.6920910701 0.0000000000 1.0488129218 0.4446804309 -117.0576981628 0.0421380679 -0.0066022458
-0.2591013156 0.6802214420 0.0000000000 1.0293459657 0.4537744513 -100.4642511368 0.0421702530 -0.0066085529
-0.2872003702 0.6671794116 0.0000000000 1.0083925847 0.4618945384 -82.3133747947 0.0421970716 -0.0066138247
-0.3147426411 0.6529874713 0.0000000000 0.9860191300 0.4688564864 -62.6552712554 0.0422179038 -0.0066178420
-0.3416817438 0.6376700331 0.0000000000 0.9623133539 0.4744814188 -41.5643002645 0.0422320432 -0.0066204326
-0.3679724582 0.6212533816 0.0000000000 0.9373841332 0.4785989675 -19.1380866116 0.0422386606 -0.0066214770
-0.3935709056 0.6037656285 0.0000000000 0.9113604439 0.4810500040 4.5038072474 0.0422367061 -0.0066209093
-0.4184348959 0.5852366778 0.0000000000 0.8843897750 0.4816888790 29.2216777039 0.0422246388 -0.0066187041
-0.4425248228 0.5656982905 0.0000000000 0.8566360413 0.4803848225 54.8581129217 0.0421996058 -0.0066147605
-0.4658066305 0.5451848551 0.0000000000 0.8282768125 0.4770207198 81.2423050125 0.0421545484 -0.0066080777
-0.5097136983 0.5013679204 0.0000000000 0.7705639624 0.4638249678 135.4191930880 0.0420792349 -0.0065932581
-0.5302620269 0.4781369227 0.0000000000 0.7416112662 0.4538895149 162.8029714930 0.0420510245 -0.0065875055
-0.5498519812 0.4540786399 0.0000000000 0.7128719435 0.4416585339 190.1154180015 0.0420034010 -0.0065808944
-0.5684431914 0.4292330960 0.0000000000 0.6845649771 0.4271355652 217.1310056529 0.0419433467 -0.0065745154
-0.5860010251 0.4036422337 0.0000000000 0.6569086858 0.4103415785 243.6261126529 0.0418738337 -0.0065688847
-0.6024938447 0.3773493754 0.0000000000 0.6301178140 0.3913189227 269.3800190483 0.0417966212 -0.0065644112
-0.6178922605 0.3503991021 0.0000000000 0.6044018720 0.3701311336 294.1766865376 0.0417130530 -0.0065614424
-0.6321689183 0.3228371807 0.0000000000 0.5799630327 0.3468623922 317.8069185462 0.0416243182 -0.0065602607
-0.6452984507 0.2947104905 0.0000000000 0.5569941680 0.3216165723 340.0704986599 0.0415315444 -0.0065610777
-0.6572574862 0.2660669451 0.0000000000 0.5356770052 0.2945160610 360.7782175563 0.0414358299 -0.0065640325
-0.6680246808 0.2369554111 0.0000000000 0.5161804519 0.2657003900 379.7537397442 0.0413382506 -0.0065691905
-0.6775807566 0.2074256217 0.0000000000 0.4986591046 0.2353247190 396.8352867777 0.0412398553 -0.0065765462
-0.6859085416 0.1775280883 0.0000000000 0.4832519525 0.2035581983 411.8771238303 0.0411416579 -0.0065860268
-0.6929930060 0.1473140086 0.0000000000 0.4700812729 0.1705822315 424.7508439101 0.0410446280 -0.0065974977
-0.6988212936 0.1168351728 0.0000000000 0.4592516979 0.1365886510 435.3464468908 0.0409496840 -0.0066107696
-0.7033827452 0.0861438670 0.0000000000 0.4508494113 0.1017778270 443.5732087192 0.0408576896 -0.0066256061
-0.7066689152 0.0552927749 0.0000000000 0.4449414480 0.0663567422 449.3603346198 0.0407694546 -0.0066417340
-0.7086735808 0.0243348759 0.0000000000 0.4415751026 0.0305370761 452.6573972340 0.0406857380 -0.0066588545
-0.7093927460 -0.0066766579 0.0000000000 0.4407774985 -0.0054666654 453.4345743057 0.0406072540 -0.0066766576
-0.7088246405 -0.0376885673 0.0000000000 0.4425553872 -0.0414389606 451.6827152018 0.0405346782 -0.0066948363
-0.7069697166 -0.0686476125 0.0000000000 0.4468952001 -0.0771650279 447.4132528339 0.0404686531 -0.0067131031
-0.7038306418 -0.0995006783 0.0000000000 0.4537633714 -0.1124325325 440.6579754007 0.0404097930 -0.0067312045
-0.6994122872 -0.1301948776 0.0000000000 0.4631069391 -0.1470332697 431.4686697375 0.0403586903 -0.0067489346
-0.6937217087 -0.1606776524 0.0000000000 0.4748543407 -0.1807648460 419.9166188053 0.0403159252 -0.0067661454