 TITLE = "Tecplot data"
 VARIABLES = "X", "Y", "Z" "U", "V", "p", "dispX", "dispY"
 ZONE SOLUTIONTIME=99.900000, NODES=26114 , ELEMENTS=25916, DATAPACKING=POINT, ZONETYPE=FEQUADRILATERAL
0.9480357275 3.4433902300 0.0000000000 0.0000000000 0.0000000000 -884.5326452139 0.5944823370 3.0898368394
0.9480357278 2.7362834491 0.0000000000 0.0000000000 0.0000000000 -139.2362176535 0.5944823370 3.0898368394
0.2409289463 3.4433902299 0.0000000000 0.0000000000 0.0000000000 -1507.0213725585 0.5944823370 3.0898368394
0.2409289466 2.7362834486 0.0000000000 0.0000000000 0.0000000000 346.2162429726 0.5944823370 3.0898368394
1.1169980786 3.6190970484 0.0000000000 0.9524331787 -0.6347717658 -671.4990858852 0.5866679928 3.0887669624
1.1630429855 2.6719571170 0.0000000000 0.2040102438 0.2046242656 -138.5034460588 0.6327128992 3.2022872025
0.1274509437 3.7122097532 0.0000000000 1.4889887413 1.1251355539 -1035.8728691771 0.6577810297 3.1818796674
0.0362706394 2.6117016845 0.0000000000 0.2812785911 0.0709321585 295.3661220876 0.5666007250 3.1420317707
1.7052584065 4.1921762649 0.0000000000 1.1324176217 -0.0077816895 -238.1827517126 0.6445982348 3.1315160930
1.6340664153 2.1207735554 0.0000000000 0.3915576413 0.2324636896 -104.3905675979 0.5734062428 3.1814337264
-0.2994182124 4.4551506000 0.0000000000 1.2378307969 0.4307808562 -241.0370667866 0.7612419597 3.3944904286
-0.5570475906 2.2591070371 0.0000000000 0.5360178228 0.2542091785 173.8656138618 0.5036125806 3.3197672094
5.0660247546 6.0497154589 0.0000000000 1.3287409603 0.0607642862 -176.2590551881 0.8660247546 2.7497154589
4.4460278354 -0.5577530302 0.0000000000 0.2653568952 0.0260981847 -185.6126594133 0.2460278354 2.7422469698
20.0000000000 4.7000000000 0.0000000000 1.0253777460 0.1641893598 1.8771650325 0.0000000000 0.0000000000
20.0000000000 -4.7000000000 0.0000000000 1.0226665214 0.1634158213 -0.2644993287 0.0000000000 0.0000000000
-10.0000000000 15.0000000000 0.0000000000 1.0000000000 0.0000000000 -72.3890490151 0.0000000000 0.0000000000
20.0000000000 15.0000000000 0.0000000000 1.0504578781 0.0000000000 0.0225847834 0.0000000000 0.0000000000
20.0000000000 -15.0000000000 0.0000000000 1.0604518053 0.0000000000 -0.0319983186 0.0000000000 0.0000000000
-10.0000000000 -15.0000000000 0.0000000000 1.0000000000 0.0000000000 0.0548971305 0.0000000000 0.0000000000
0.9610082731 2.7497504708 0.0000000000 0.0000000000 0.0000000000 -340.6846746869 0.5944823370 3.0898368394
0.9734681988 2.7636931340 0.0000000000 0.0000000000 0.0000000000 -92.6870548358 0.5944823370 3.0898368394
0.9853980784 2.7780919387 0.0000000000 0.0000000000 0.0000000000 -91.2089043141 0.5944823370 3.0898368394
0.9967812270 2.7929267469 0.0000000000 0.0000000000 0.0000000000 -207.1913837841 0.5944823370 3.0898368394
1.0076017243 2.8081768106 0.0000000000 0.0000000000 0.0000000000 -186.5460629378 0.5944823370 3.0898368394
1.0178444368 2.8238208014 0.0000000000 0.0000000000 0.0000000000 -191.8193275630 0.5944823370 3.0898368394
1.0274950390 2.8398368397 0.0000000000 0.0000000000 0.0000000000 -197.7463387299 0.5944823370 3.0898368394
1.0365400339 2.8562025255 0.0000000000 0.0000000000 0.0000000000 -204.1831588072 0.5944823370 3.0898368394
1.0449667710 2.8728949701 0.0000000000 0.0000000000 0.0000000000 -203.0442762539 0.5944823370 3.0898368394
1.0527634650 2.8898908275 0.0000000000 0.0000000000 0.0000000000 -207.2954813681 0.5944823370 3.0898368394
1.0599192114 2.9071663275 0.0000000000 0.0000000000 0.0000000000 -208.0017627900 0.5944823370 3.0898368394
1.0664240022 2.9246973087 0.0000000000 0.0000000000 0.0000000000 -208.5781035634 0.5944823370 3.0898368394
1.0722687399 2.9424592524 0.0000000000 0.0000000000 0.0000000000 -207.5577905746 0.5944823370 3.0898368394
1.0774452502 2.9604273171 0.0000000000 0.0000000000 0.0000000000 -206.8185379578 0.5944823370 3.0898368394
1.0819462931 2.9785763727 0.0000000000 0.0000000000 0.0000000000 -205.5800563002 0.5944823370 3.0898368394
1.0857655736 2.9968810361 0.0000000000 0.0000000000 0.0000000000 -205.9271087548 0.5944823370 3.0898368394
1.0888977501 3.0153157065 0.0000000000 0.0000000000 0.0000000000 -205.7621697475 0.5944823370 3.0898368394
1.0913384419 3.0338546016 0.0000000000 0.0000000000 0.0000000000 -208.0027738504 0.5944823370 3.0898368394
1.0930842356 3.0524717928 0.0000000000 0.0000000000 0.0000000000 -211.2702958364 0.5944823370 3.0898368394
1.0941326894 3.0711412425 0.0000000000 0.0000000000 0.0000000000 -216.8456571455 0.5944823370 3.0898368394
1.0944823370 3.0898368396 0.0000000000 0.0000000000 0.0000000000 -225.1520687888 0.5944823370 3.0898368394
1.0941326894 3.1085324367 0.0000000000 0.0000000000 0.0000000000 -236.1343485749 0.5944823370 3.0898368394
1.0930842355 3.1272018864 0.0000000000 0.0000000000 0.0000000000 -250.1762944027 0.5944823370 3.0898368394
1.0913384419 3.1458190776 0.0000000000 0.0000000000 0.0000000000 -267.5030467405 0.5944823370 3.0898368394
1.0888977501 3.1643579727 0.0000000000 0.0000000000 0.0000000000 -287.9294253583 0.5944823370 3.0898368394
1.0857655736 3.1827926431 0.0000000000 0.0000000000 0.0000000000 -311.7179838214 0.5944823370 3.0898368394
1.0819462930 3.2010973065 0.0000000000 0.0000000000 0.0000000000 -338.3486204303 0.5944823370 3.0898368394
1.0774452501 3.2192463621 0.0000000000 0.0000000000 0.0000000000 -367.8686265467 0.5944823370 3.0898368394
1.0722687398 3.2372144267 0.0000000000 0.0000000000 0.0000000000 -399.6276126399 0.5944823370 3.0898368394
1.0664240021 3.2549763705 0.0000000000 0.0000000000 0.0000000000 -433.5944123537 0.5944823370 3.0898368394
1.0599192112 3.2725073517 0.0000000000 0.0000000000 0.0000000000 -468.8419424228 0.5944823370 3.0898368394
1.0527634649 3.2897828517 0.0000000000 0.0000000000 0.0000000000 -505.5520454520 0.5944823370 3.0898368394
1.0449667709 3.3067787091 0.0000000000 0.0000000000 0.0000000000 -542.8661934145 0.5944823370 3.0898368394
1.0365400337 3.3234711536 0.0000000000 0.0000000000 0.0000000000 -580.5686724061 0.5944823370 3.0898368394
1.0274950388 3.3398368395 0.0000000000 0.0000000000 0.0000000000 -619.1710871629 0.5944823370 3.0898368394
1.0178444365 3.3558528777 0.0000000000 0.0000000000 0.0000000000 -656.6275692896 0.5944823370 3.0898368394
1.0076017241 3.3714968685 0.0000000000 0.0000000000 0.0000000000 -696.3464280725 0.5944823370 3.0898368394
0.9967812268 3.3867469322 0.0000000000 0.0000000000 0.0000000000 -733.0645036852 0.5944823370 3.0898368394
0.9853980782 3.4015817404 0.0000000000 0.0000000000 0.0000000000 -776.5802464904 0.5944823370 3.0898368394
0.9734681985 3.4159805451 0.0000000000 0.0000000000 0.0000000000 -811.9724242554 0.5944823370 3.0898368394
0.9610082728 3.4299232083 0.0000000000 0.0000000000 0.0000000000 -854.9103303967 0.5944823370 3.0898368394
0.9331231227 3.4576987948 0.0000000000 0.0000000000 0.0000000000 -944.3537162279 0.5944823370 3.0898368394
0.9176319559 3.4713788735 0.0000000000 0.0000000000 0.0000000000 -980.8565602531 0.5944823370 3.0898368394
0.9015886933 3.4844070941 0.0000000000 0.0000000000 0.0000000000 -1034.5884040789 0.5944823370 3.0898368394
0.8850207446 3.4967611981 0.0000000000 0.0000000000 0.0000000000 -1078.3480057926 0.5944823370 3.0898368394
0.8679564160 3.5084200786 0.0000000000 0.0000000000 0.0000000000 -1130.2418730764 0.5944823370 3.0898368394
0.8504248615 3.5193638166 0.0000000000 0.0000000000 0.0000000000 -1179.2483090740 0.5944823370 3.0898368394
0.8324560334 3.5295737150 0.0000000000 0.0000000000 0.0000000000 -1232.2946419183 0.5944823370 3.0898368394
0.8140806313 3.5390323304 0.0000000000 0.0000000000 0.0000000000 -1284.3825460994 0.5944823370 3.0898368394
0.7953300492 3.5477235028 0.0000000000 0.0000000000 0.0000000000 -1338.3990338156 0.5944823370 3.0898368394
0.7762363222 3.5556323835 0.0000000000 0.0000000000 0.0000000000 -1392.0670788307 0.5944823370 3.0898368394
0.7568320715 3.5627454603 0.0000000000 0.0000000000 0.0000000000 -1446.1140814164 0.5944823370 3.0898368394
0.7371504490 3.5690505806 0.0000000000 0.0000000000 0.0000000000 -1499.0661827328 0.5944823370 3.0898368394
0.7172250805 3.5745369724 0.0000000000 0.0000000000 0.0000000000 -1550.9602940928 0.5944823370 3.0898368394
0.6970900080 3.5791952621 0.0000000000 0.0000000000 0.0000000000 -1600.7573178472 0.5944823370 3.0898368394
0.6767796320 3.5830174911 0.0000000000 0.0000000000 0.0000000000 -1648.1154109779 0.5944823370 3.0898368394
0.6563286525 3.5859971293 0.0000000000 0.0000000000 0.0000000000 -1692.3299024453 0.5944823370 3.0898368394
0.6357720096 3.5881290859 0.0000000000 0.0000000000 0.0000000000 -1732.9092713318 0.5944823370 3.0898368394
0.6151448240 3.5894097186 0.0000000000 0.0000000000 0.0000000000 -1769.5349726925 0.5944823370 3.0898368394
0.5944823369 3.5898368394 0.0000000000 0.0000000000 0.0000000000 -1801.9199477385 0.5944823370 3.0898368394
0.5738198497 3.5894097186 0.0000000000 0.0000000000 0.0000000000 -1829.6194247030 0.5944823370 3.0898368394
0.5531926641 3.5881290859 0.0000000000 0.0000000000 0.0000000000 -1852.7990547296 0.5944823370 3.0898368394
0.5326360212 3.5859971293 0.0000000000 0.0000000000 0.0000000000 -1871.2574928518 0.5944823370 3.0898368394
0.5121850417 3.5830174911 0.0000000000 0.0000000000 0.0000000000 -1885.2519259328 0.5944823370 3.0898368394
0.4918746658 3.5791952620 0.0000000000 0.0000000000 0.0000000000 -1894.5025954068 0.5944823370 3.0898368394
0.4717395933 3.5745369723 0.0000000000 0.0000000000 0.0000000000 -1899.3183499333 0.5944823370 3.0898368394
0.4518142247 3.5690505806 0.0000000000 0.0000000000 0.0000000000 -1899.4240816970 0.5944823370 3.0898368394
0.4321326023 3.5627454602 0.0000000000 0.0000000000 0.0000000000 -1894.8000211644 0.5944823370 3.0898368394
0.4127283516 3.5556323834 0.0000000000 0.0000000000 0.0000000000 -1885.2605239916 0.5944823370 3.0898368394
0.3936346245 3.5477235027 0.0000000000 0.0000000000 0.0000000000 -1870.7010417663 0.5944823370 3.0898368394
0.3748840424 3.5390323303 0.0000000000 0.0000000000 0.0000000000 -1850.9591201814 0.5944823370 3.0898368394
0.3565086403 3.5295737149 0.0000000000 0.0000000000 0.0000000000 -1826.0571020057 0.5944823370 3.0898368394
0.3385398123 3.5193638165 0.0000000000 0.0000000000 0.0000000000 -1795.9611471187 0.5944823370 3.0898368394
0.3210082578 3.5084200785 0.0000000000 0.0000000000 0.0000000000 -1760.6421922321 0.5944823370 3.0898368394
0.3039439292 3.4967611979 0.0000000000 0.0000000000 0.0000000000 -1720.2209155255 0.5944823370 3.0898368394
0.2873759805 3.4844070940 0.0000000000 0.0000000000 0.0000000000 -1674.6150204724 0.5944823370 3.0898368394
0.2713327179 3.4713788734 0.0000000000 0.0000000000 0.0000000000 -1623.8519563061 0.5944823370 3.0898368394
0.2558415510 3.4576987946 0.0000000000 0.0000000000 0.0000000000 -1568.2017937388 0.5944823370 3.0898368394
0.2266203815 3.4284776251 0.0000000000 0.0000000000 0.0000000000 -1443.7087358937 0.5944823370 3.0898368394
0.2129403028 3.4129864582 0.0000000000 0.0000000000 0.0000000000 -1370.7434316444 0.5944823370 3.0898368394
0.1999120822 3.3969431956 0.0000000000 0.0000000000 0.0000000000 -1298.5604572155 0.5944823370 3.0898368394
0.1875579782 3.3803752470 0.0000000000 0.0000000000 0.0000000000 -1226.1618013516 0.5944823370 3.0898368394
0.1758990977 3.3633109183 0.0000000000 0.0000000000 0.0000000000 -1150.8597607940 0.5944823370 3.0898368394
0.1649553597 3.3457793638 0.0000000000 0.0000000000 0.0000000000 -1075.3499433428 0.5944823370 3.0898368394
0.1547454613 3.3278105358 0.0000000000 0.0000000000 0.0000000000 -998.9029472876 0.5944823370 3.0898368394
0.1452868459 3.3094351337 0.0000000000 0.0000000000 0.0000000000 -922.1283291466 0.5944823370 3.0898368394
0.1365956736 3.2906845516 0.0000000000 0.0000000000 0.0000000000 -845.0199949495 0.5944823370 3.0898368394
0.1286867929 3.2715908245 0.0000000000 0.0000000000 0.0000000000 -767.7990982109 0.5944823370 3.0898368394
0.1215737161 3.2521865738 0.0000000000 0.0000000000 0.0000000000 -690.4750424786 0.5944823370 3.0898368394
0.1152685957 3.2325049513 0.0000000000 0.0000000000 0.0000000000 -613.1218080286 0.5944823370 3.0898368394
0.1097822040 3.2125795828 0.0000000000 0.0000000000 0.0000000000 -535.7351924784 0.5944823370 3.0898368394
0.1051239143 3.1924445103 0.0000000000 0.0000000000 0.0000000000 -458.3943610388 0.5944823370 3.0898368394
0.1013016852 3.1721341343 0.0000000000 0.0000000000 0.0000000000 -381.1546574556 0.5944823370 3.0898368394
0.0983220471 3.1516831548 0.0000000000 0.0000000000 0.0000000000 -304.2687565330 0.5944823370 3.0898368394
0.0961900905 3.1311265119 0.0000000000 0.0000000000 0.0000000000 -227.8986600486 0.5944823370 3.0898368394
0.0949094578 3.1104993263 0.0000000000 0.0000000000 0.0000000000 -152.6666227947 0.5944823370 3.0898368394
0.0944823370 3.0898368392 0.0000000000 0.0000000000 0.0000000000 -78.7022689342 0.5944823370 3.0898368394
0.0949094578 3.0691743521 0.0000000000 0.0000000000 0.0000000000 -7.3263068496 0.5944823370 3.0898368394
0.0961900905 3.0485471665 0.0000000000 0.0000000000 0.0000000000 61.9390577287 0.5944823370 3.0898368394
0.0983220471 3.0279905236 0.0000000000 0.0000000000 0.0000000000 126.2886201067 0.5944823370 3.0898368394
0.1013016853 3.0075395440 0.0000000000 0.0000000000 0.0000000000 188.2832110807 0.5944823370 3.0898368394
0.1051239144 2.9872291681 0.0000000000 0.0000000000 0.0000000000 241.7197449630 0.5944823370 3.0898368394
0.1097822041 2.9670940956 0.0000000000 0.0000000000 0.0000000000 294.5060075698 0.5944823370 3.0898368394
0.1152685958 2.9471687271 0.0000000000 0.0000000000 0.0000000000 332.5908721434 0.5944823370 3.0898368394
0.1215737162 2.9274871046 0.0000000000 0.0000000000 0.0000000000 376.3451701732 0.5944823370 3.0898368394
0.1286867930 2.9080828539 0.0000000000 0.0000000000 0.0000000000 393.3862125443 0.5944823370 3.0898368394
0.1365956737 2.8889891269 0.0000000000 0.0000000000 0.0000000000 433.2228210537 0.5944823370 3.0898368394
0.1452868461 2.8702385448 0.0000000000 0.0000000000 0.0000000000 418.8908984588 0.5944823370 3.0898368394
0.1547454615 2.8518631427 0.0000000000 0.0000000000 0.0000000000 471.7670545733 0.5944823370 3.0898368394
0.1649553599 2.8338943146 0.0000000000 0.0000000000 0.0000000000 400.0242183230 0.5944823370 3.0898368394
0.1758990980 2.8163627601 0.0000000000 0.0000000000 0.0000000000 515.2762886229 0.5944823370 3.0898368394
0.1875579785 2.7992984315 0.0000000000 0.0000000000 0.0000000000 311.6218951726 0.5944823370 3.0898368394
0.1999120824 2.7827304829 0.0000000000 0.0000000000 0.0000000000 640.5745259280 0.5944823370 3.0898368394
0.2129403030 2.7666872203 0.0000000000 0.0000000000 0.0000000000 178.8206493375 0.5944823370 3.0898368394
0.2266203818 2.7511960534 0.0000000000 0.0000000000 0.0000000000 739.8272582780 0.5944823370 3.0898368394
0.2558415513 2.7219748839 0.0000000000 0.0000000000 0.0000000000 354.0165012566 0.5944823370 3.0898368394
0.2713327182 2.7082948051 0.0000000000 0.0000000000 0.0000000000 629.9564162729 0.5944823370 3.0898368394
0.2873759808 2.6952665845 0.0000000000 0.0000000000 0.0000000000 -66.8726720852 0.5944823370 3.0898368394
0.3039439295 2.6829124806 0.0000000000 0.0000000000 0.0000000000 312.6506973330 0.5944823370 3.0898368394
0.3210082581 2.6712536001 0.0000000000 0.0000000000 0.0000000000 38.8989657695 0.5944823370 3.0898368394
0.3385398127 2.6603098621 0.0000000000 0.0000000000 0.0000000000 212.6918583438 0.5944823370 3.0898368394
0.3565086407 2.6500999637 0.0000000000 0.0000000000 0.0000000000 75.9548501003 0.5944823370 3.0898368394
0.3748840428 2.6406413483 0.0000000000 0.0000000000 0.0000000000 136.9248575673 0.5944823370 3.0898368394
0.3936346249 2.6319501760 0.0000000000 0.0000000000 0.0000000000 67.1803605711 0.5944823370 3.0898368394
0.4127283520 2.6240412953 0.0000000000 0.0000000000 0.0000000000 78.5242403340 0.5944823370 3.0898368394
0.4321326026 2.6169282185 0.0000000000 0.0000000000 0.0000000000 38.4520028858 0.5944823370 3.0898368394
0.4518142251 2.6106230981 0.0000000000 0.0000000000 0.0000000000 30.4179363948 0.5944823370 3.0898368394
0.4717395937 2.6051367064 0.0000000000 0.0000000000 0.0000000000 3.4140687981 0.5944823370 3.0898368394
0.4918746662 2.6004784167 0.0000000000 0.0000000000 0.0000000000 -11.0903155326 0.5944823370 3.0898368394
0.5121850421 2.5966561876 0.0000000000 0.0000000000 0.0000000000 -31.9688392456 0.5944823370 3.0898368394
0.5326360216 2.5936765495 0.0000000000 0.0000000000 0.0000000000 -47.6894737999 0.5944823370 3.0898368394
0.5531926645 2.5915445929 0.0000000000 0.0000000000 0.0000000000 -65.1218944730 0.5944823370 3.0898368394
0.5738198502 2.5902639602 0.0000000000 0.0000000000 0.0000000000 -80.0307425224 0.5944823370 3.0898368394
0.5944823373 2.5898368394 0.0000000000 0.0000000000 0.0000000000 -94.9025026907 0.5944823370 3.0898368394
0.6151448244 2.5902639602 0.0000000000 0.0000000000 0.0000000000 -108.2817381452 0.5944823370 3.0898368394
0.6357720100 2.5915445929 0.0000000000 0.0000000000 0.0000000000 -120.7480831859 0.5944823370 3.0898368394
0.6563286529 2.5936765496 0.0000000000 0.0000000000 0.0000000000 -132.4205266998 0.5944823370 3.0898368394
0.6767796324 2.5966561877 0.0000000000 0.0000000000 0.0000000000 -142.2595714678 0.5944823370 3.0898368394
0.6970900084 2.6004784168 0.0000000000 0.0000000000 0.0000000000 -152.4062354710 0.5944823370 3.0898368394
0.7172250809 2.6051367065 0.0000000000 0.0000000000 0.0000000000 -158.9370616062 0.5944823370 3.0898368394
0.7371504494 2.6106230983 0.0000000000 0.0000000000 0.0000000000 -168.1170673279 0.5944823370 3.0898368394
0.7568320719 2.6169282187 0.0000000000 0.0000000000 0.0000000000 -169.9080040919 0.5944823370 3.0898368394
0.7762363226 2.6240412955 0.0000000000 0.0000000000 0.0000000000 -180.3903148429 0.5944823370 3.0898368394
0.7953300496 2.6319501762 0.0000000000 0.0000000000 0.0000000000 -173.7047166883 0.5944823370 3.0898368394
0.8140806317 2.6406413486 0.0000000000 0.0000000000 0.0000000000 -188.6109020389 0.5944823370 3.0898368394
0.8324560338 2.6500999640 0.0000000000 0.0000000000 0.0000000000 -166.2449165291 0.5944823370 3.0898368394
0.8504248618 2.6603098624 0.0000000000 0.0000000000 0.0000000000 -198.3574175649 0.5944823370 3.0898368394
0.8679564163 2.6712536005 0.0000000000 0.0000000000 0.0000000000 -143.7050519749 0.5944823370 3.0898368394
0.8850207450 2.6829124810 0.0000000000 0.0000000000 0.0000000000 -218.7643243967 0.5944823370 3.0898368394
0.9015886936 2.6952665849 0.0000000000 0.0000000000 0.0000000000 -106.1551006516 0.5944823370 3.0898368394
0.9176319562 2.7082948055 0.0000000000 0.0000000000 0.0000000000 -213.0836858458 0.5944823370 3.0898368394
0.9331231230 2.7219748843 0.0000000000 0.0000000000 0.0000000000 -159.1453215240 0.5944823370 3.0898368394
1.1823797621 2.6907921387 0.0000000000 0.2052996582 0.1904688816 -137.4349850312 0.6325908579 3.2009216916
1.1999018436 2.7136747507 0.0000000000 0.2054173721 0.1741961622 -136.8337017697 0.6314230509 3.2028903088
1.2164532445 2.7381248608 0.0000000000 0.2055219734 0.1566985849 -136.2866905743 0.6300796323 3.2057422118
1.2320513407 2.7634251556 0.0000000000 0.2058741678 0.1384385557 -135.7343656324 0.6286030056 3.2087902944
1.2466949150 2.7892627646 0.0000000000 0.2066037195 0.1196130010 -135.1857959635 0.6270158340 3.2117528078
1.2603925691 2.8154725243 0.0000000000 0.2078111481 0.1002722082 -134.6737684485 0.6253494195 3.2144965813
1.2731532995 2.8419547441 0.0000000000 0.2095892091 0.0803960831 -134.2505637344 0.6236342465 3.2169547437
1.2849807965 2.8686420909 0.0000000000 0.2120255365 0.0599374510 -133.9827978500 0.6218942511 3.2190935617
1.2958723222 2.8954838481 0.0000000000 0.2152021220 0.0388453691 -133.9472533606 0.6201456710 3.2208966521
1.3058199345 2.9224376564 0.0000000000 0.2191947061 0.0170764214 -134.2265816684 0.6183982424 3.2223566743
1.3148123924 2.9494650009 0.0000000000 0.2240726049 -0.0054006777 -134.9057292584 0.6166570808 3.2234707688
1.3228368500 2.9765287151 0.0000000000 0.2298988520 -0.0286040381 -136.0691336575 0.6149243522 3.2242380112
1.3298800650 3.0035915750 0.0000000000 0.2367304942 -0.0525391258 -137.7988773404 0.6132004605 3.2246579555
1.3359291896 3.0306154805 0.0000000000 0.2446189791 -0.0771997808 -140.1736411168 0.6114848198 3.2247297639
1.3409723140 3.0575609691 0.0000000000 0.2536106526 -0.1025691113 -143.2683032757 0.6097763798 3.2244516692
1.3449989025 3.0843869464 0.0000000000 0.2637474081 -0.1286199589 -147.1539777467 0.6080740475 3.2238206515
1.3480001974 3.1110505859 0.0000000000 0.2750675054 -0.1553147890 -151.8982993333 0.6063770777 3.2228322852
1.3499696078 3.1375073842 0.0000000000 0.2876065448 -0.1826049370 -157.5657906133 0.6046854503 3.2214807410
1.3509030651 3.1637113740 0.0000000000 0.3013985519 -0.2104291934 -164.2181866290 0.6030002172 3.2197589438
1.3507993187 3.1896154956 0.0000000000 0.3164771216 -0.2387117378 -171.9146405517 0.6013237901 3.2176588910
1.3496601522 3.2151721318 0.0000000000 0.3328765659 -0.2673594632 -180.7117760536 0.5996601522 3.2151721315
1.3474905206 3.2403337966 0.0000000000 0.3506329695 -0.2962587764 -190.6635790296 0.5980149920 3.2122904006
1.3442986236 3.2650539583 0.0000000000 0.3697849285 -0.3252720674 -201.8211252212 0.5963957757 3.2090063879
1.3400959377 3.2892879624 0.0000000000 0.3903735370 -0.3542342400 -214.2321221932 0.5948117803 3.2053146051
1.3348972240 3.3129940029 0.0000000000 0.4124409548 -0.3829500164 -227.9402180010 0.5932741043 3.2012123030
1.3287205084 3.3361340843 0.0000000000 0.4360268072 -0.4111930971 -242.9840208511 0.5917956535 3.1967003787
1.3215870119 3.3586749094 0.0000000000 0.4611618691 -0.4387085241 -259.3958148421 0.5903910779 3.1917842087
1.3135209843 3.3805886335 0.0000000000 0.4878590297 -0.4652195641 -277.2000664609 0.5890766147 3.1864743495
1.3045493828 3.4018534308 0.0000000000 0.5161023139 -0.4904399123 -296.4119780448 0.5878697785 3.1807870498
1.2947013324 3.4224538272 0.0000000000 0.5458356080 -0.5140909438 -317.0364948955 0.5867888348 3.1747445306
1.2840073048 3.4423807596 0.0000000000 0.5769535805 -0.5359221533 -339.0682371600 0.5858519934 3.1683749911
1.2724979603 3.4616313140 0.0000000000 0.6092978863 -0.5557311355 -362.4927879134 0.5850762685 3.1617122955
1.2602026248 3.4802080832 0.0000000000 0.6426614632 -0.5733782455 -387.2896627078 0.5844759740 3.1547952787
1.2471474547 3.4981180588 0.0000000000 0.6768017719 -0.5887915188 -413.4370826887 0.5840609096 3.1476665874
1.2333535435 3.5153709810 0.0000000000 0.7114603077 -0.6019600856 -440.9181880259 0.5838344907 3.1403709809
1.2188355713 3.5319771946 0.0000000000 0.7463827057 -0.6129181046 -469.7274207838 0.5837924220 3.1329531371
1.2036019159 3.5479454520 0.0000000000 0.7813340289 -0.6217239019 -499.8747791438 0.5839228353 3.1254554084
1.1876569398 3.5632818931 0.0000000000 0.8161083403 -0.6284390454 -531.3853447028 0.5842086051 3.1179167538
1.1710048783 3.5779927512 0.0000000000 0.8505375688 -0.6331116914 -564.2929357672 0.5846312665 3.1103753998
1.1536528535 3.5920969376 0.0000000000 0.8845233145 -0.6357590599 -598.6258272561 0.5851740612 3.1028813790
1.1356035622 3.6056652309 0.0000000000 0.9180820156 -0.6364140788 -634.4027937470 0.5858146584 3.0955356775
1.0967748824 3.6322027865 0.0000000000 0.9865052370 -0.6306776028 -712.0583062378 0.5888137037 3.0804098535
1.0759723345 3.6457812298 0.0000000000 1.0224955627 -0.6242437747 -753.6963709422 0.5912479062 3.0734681786
1.0544558912 3.6591591233 0.0000000000 1.0589004894 -0.6152890773 -796.6601614917 0.5937963568 3.0673037412
1.0322634064 3.6721789195 0.0000000000 1.0953430666 -0.6039850178 -840.8866912838 0.5964557949 3.0617923815
1.0094247529 3.6847501965 0.0000000000 1.1317347092 -0.5903029329 -886.3383587304 0.5992136344 3.0568753378
0.9859773730 3.6968132788 0.0000000000 1.1680889933 -0.5742097191 -932.9575607061 0.6020635862 3.0525228130
0.9619639200 3.7083314491 0.0000000000 1.2045140678 -0.5556310116 -980.6596758882 0.6050033753 3.0487261357
0.9374286722 3.7192874175 0.0000000000 1.2412009373 -0.5344534934 -1029.3230606687 0.6080312306 3.0454941810
0.9124147726 3.7296778581 0.0000000000 1.2784089055 -0.5105171666 -1078.7773097060 0.6111432042 3.0428478630
0.8869632042 3.7395073663 0.0000000000 1.3164406150 -0.4836115216 -1128.7899126368 0.6143322264 3.0408140502
0.8611130108 3.7487834195 0.0000000000 1.3556110378 -0.4534744623 -1179.0527932411 0.6175884090 3.0394204882
0.8349019479 3.7575127567 0.0000000000 1.3962116226 -0.4197953133 -1229.1703437023 0.6208997799 3.0386921448
0.8083669888 3.7656988936 0.0000000000 1.4384690958 -0.3822244112 -1278.6512649313 0.6242528736 3.0386486941
0.7815444526 3.7733404599 0.0000000000 1.4825007522 -0.3403914122 -1326.9068568751 0.6276329461 3.0393028259
0.7544697651 3.7804302357 0.0000000000 1.5282715169 -0.2939325265 -1373.2577699314 0.6310238225 3.0406592581
0.7271769958 3.7869548853 0.0000000000 1.5755597441 -0.2425249279 -1416.9500437934 0.6344075225 3.0427144505
0.6996983594 3.7928953603 0.0000000000 1.6239380916 -0.1859247288 -1457.1800235198 0.6377638504 3.0454569905
0.6720638547 3.7982278272 0.0000000000 1.6727728739 -0.1240036887 -1493.1265535936 0.6410701241 3.0488685084
0.6443011509 3.8029248619 0.0000000000 1.7212403023 -0.0567807631 -1523.9873368307 0.6443011511 3.0529248619
0.6164357550 3.8069566018 0.0000000000 1.7683539932 0.0155524091 -1549.0163347385 0.6474294858 3.0575972831
0.5884914228 3.8102915968 0.0000000000 1.8129978129 0.0926111378 -1567.5604394156 0.6504259321 3.0628532271
0.5604907365 3.8128972145 0.0000000000 1.8539591835 0.1738000739 -1579.0926955323 0.6532602101 3.0686567797
0.5324557602 3.8147395964 0.0000000000 1.8899614480 0.2582945984 -1583.2397883123 0.6559017030 3.0749686188
0.5044087082 3.8157832679 0.0000000000 1.9197020745 0.3450226098 -1579.8049622003 0.6583202150 3.0817456340
0.4763725896 3.8159905567 0.0000000000 1.9419089727 0.4326579125 -1568.7873589813 0.6604867052 3.0889403573
0.4483718237 3.8153209611 0.0000000000 1.9554245309 0.5196422522 -1550.3966024278 0.6623739920 3.0965003494
0.4204328311 3.8137305612 0.0000000000 1.9593176649 0.6042528973 -1525.0596507046 0.6639574332 3.1043676300
0.3925846041 3.8111714958 0.0000000000 1.9530104811 0.6847250207 -1493.4150237946 0.6652155822 3.1124781799
0.3648592305 3.8075914620 0.0000000000 1.9363922504 0.7594221518 -1456.2891611164 0.6661307992 3.1207614671
0.3372923159 3.8029331168 0.0000000000 1.9098853712 0.8270275007 -1414.6515955201 0.6666897577 3.1291398805
0.3099231908 3.7971331331 0.0000000000 1.8744319031 0.8867118637 -1369.5508962791 0.6668837357 3.1375278198
0.2827947056 3.7901203823 0.0000000000 1.8313867311 0.9382302159 -1322.0370090774 0.6667084926 3.1458299166
0.2559522021 3.7818120074 0.0000000000 1.7823331589 0.9819175936 -1273.0934502266 0.6661633209 3.1539371488
0.2294406862 3.7721042131 0.0000000000 1.7288500567 1.0185868990 -1223.5532625105 0.6652482980 3.1617176753
0.2032976130 3.7608487029 0.0000000000 1.6723032872 1.0493957087 -1174.1930070115 0.6639571477 3.1689933210
0.1775352744 3.7477846462 0.0000000000 1.6135363836 1.0757133615 -1125.3223321970 0.6622597029 3.1754715952
0.1521028477 3.7323147237 0.0000000000 1.5528616345 1.0995791186 -1078.9044517423 0.6600640266 3.1805217909
0.1037370874 3.7027537195 0.0000000000 1.4358272192 1.1248239321 -975.8898796499 0.6555300206 3.1947925410
0.0810613101 3.6891412413 0.0000000000 1.3821249856 1.1278208347 -923.7791265219 0.6533743614 3.2044168131
0.0590119091 3.6733375384 0.0000000000 1.3284857676 1.1303280448 -874.2935782235 0.6508672913 3.2126780041
0.0377334793 3.6558288676 0.0000000000 1.2753622940 1.1316358732 -826.5268459116 0.6481200174 3.2200212562
0.0173275894 3.6368173146 0.0000000000 1.2228810871 1.1314953880 -780.0717998704 0.6452024483 3.2266061962
-0.0021326026 3.6164158311 0.0000000000 1.1710556767 1.1297949348 -734.6539994163 0.6421578633 3.2325020445
-0.0205893516 3.5947056999 0.0000000000 1.1198681883 1.1264688869 -690.0547463154 0.6390159619 3.2377451553
-0.0379944078 3.5717558883 0.0000000000 1.0692982579 1.1214632456 -646.0879111749 0.6357988288 3.2423584469
-0.0543065633 3.5476301399 0.0000000000 1.0193348902 1.1147229427 -602.5898998712 0.6325234318 3.2463585716
-0.0694905183 3.5223895458 0.0000000000 0.9699819349 1.1061882746 -559.4154100271 0.6292027979 3.2497585681
-0.0835162380 3.4960933301 0.0000000000 0.9212609758 1.0957951406 -516.4358068919 0.6258466934 3.2525687285
-0.0963584641 3.4687989432 0.0000000000 0.8732130753 1.0834768479 -473.5388259732 0.6224621478 3.2547967753
-0.1079962245 3.4405619565 0.0000000000 0.8259000835 1.0691666933 -430.6291914360 0.6190539750 3.2564478414
-0.1184122517 3.4114359921 0.0000000000 0.7794058085 1.0528012324 -387.6301497901 0.6156253824 3.2575244857
-0.1275922610 3.3814727952 0.0000000000 0.7338370512 1.0343243846 -344.4860153267 0.6121787166 3.2580268527
-0.1355240775 3.3507224875 0.0000000000 0.6893242718 1.0136924904 -301.1657577516 0.6087163574 3.2579530144
-0.1421966477 3.3192340009 0.0000000000 0.6460215104 0.9908802197 -257.6675447228 0.6052417221 3.2572994921
-0.1475990277 3.2870556716 0.0000000000 0.6041051433 0.9658869159 -214.0240345227 0.6017602911 3.2560619412
-0.1517194707 3.2542359756 0.0000000000 0.5637711082 0.9387426166 -170.3081908538 0.5982805293 3.2542359759
-0.1545447543 3.2208243934 0.0000000000 0.5252303483 0.9095126681 -126.6393269535 0.5948145645 3.2518181244
-0.1560598542 3.1868723996 0.0000000000 0.4887023931 0.8782996571 -83.1891171049 0.5913785155 3.2488069090
-0.1562480131 3.1524345800 0.0000000000 0.4544071680 0.8452413107 -40.1869657277 0.5879924217 3.2452040538
-0.1550911743 3.1175698660 0.0000000000 0.4225553996 0.8105032608 2.0761329743 0.5846798032 3.2410158090
-0.1525706858 3.0823428539 0.0000000000 0.3933382751 0.7742660581 43.2468689041 0.5814669481 3.2362543609
-0.1486681437 3.0468251478 0.0000000000 0.3669173320 0.7367066191 82.9140375310 0.5783820556 3.2309392635
-0.1433662566 3.0110966280 0.0000000000 0.3434157622 0.6979752340 120.6198863111 0.5754543552 3.2250987965
-0.1366496444 2.9752465283 0.0000000000 0.3229120538 0.6581696045 155.8801411536 0.5727132867 3.2187711305