 TITLE = "Tecplot data"
 VARIABLES = "X", "Y", "Z" "U", "V", "p", "dispX", "dispY"
 ZONE SOLUTIONTIME=83.900000, NODES=26114 , ELEMENTS=25916, DATAPACKING=POINT, ZONETYPE=FEQUADRILATERAL
0.6425115306 2.2334343887 0.0000000000 0.0000000000 0.0000000000 -2490.5442802145 0.2889581401 1.8798809981
0.6425115309 1.5263276078 0.0000000000 0.0000000000 0.0000000000 -90.9315200502 0.2889581401 1.8798809981
-0.0645952506 2.2334343886 0.0000000000 0.0000000000 0.0000000000 -259.3338242288 0.2889581401 1.8798809981
-0.0645952503 1.5263276073 0.0000000000 0.0000000000 0.0000000000 568.8119774655 0.2889581401 1.8798809981
0.8157740718 2.4092939644 0.0000000000 1.1208932126 -0.4918159619 -1043.2163351603 0.2854439860 1.8789638785
0.8406784927 1.4173192438 0.0000000000 0.1597060568 0.1426827059 -119.0172697309 0.3103484064 1.9476493294
-0.2048739255 2.4654765744 0.0000000000 1.3868935582 0.7769394331 8.9305561638 0.3254561606 1.9351464887
-0.2582760275 1.3812416814 0.0000000000 0.1720149286 -0.0515168648 594.6840234562 0.2720540581 1.9115717676
1.3801680174 2.9657187239 0.0000000000 1.0812698323 0.0489107062 -355.2302962586 0.3195078457 1.9050585521
1.3362748473 0.8740309499 0.0000000000 0.3719654964 0.2120061344 -94.6374602886 0.2756146747 1.9346911209
-0.6743250095 3.1241940466 0.0000000000 1.1352602694 0.3305177687 117.4509965041 0.3863351626 2.0635338752
-0.8262134426 0.9583328639 0.0000000000 0.5109859224 0.1020549071 488.8257049979 0.2344467286 2.0189930362
4.6580285247 4.9724376188 0.0000000000 1.1915658406 -0.0014259520 -129.7648765465 0.4580285247 1.6724376188
4.2831848803 -1.6322023487 0.0000000000 0.5843538427 -0.2952024060 -127.2939530281 0.0831848803 1.6677976513
20.0000000000 4.7000000000 0.0000000000 1.0621084950 0.0894665396 0.5833073673 0.0000000000 0.0000000000
20.0000000000 -4.7000000000 0.0000000000 1.0725213667 -0.0597103211 0.6894244445 0.0000000000 0.0000000000
-10.0000000000 15.0000000000 0.0000000000 1.0000000000 0.0000000000 79.8931766799 0.0000000000 0.0000000000
20.0000000000 15.0000000000 0.0000000000 1.0485126679 0.0000000000 0.0439281417 0.0000000000 0.0000000000
20.0000000000 -15.0000000000 0.0000000000 1.0554202961 0.0000000000 0.0327038454 0.0000000000 0.0000000000
-10.0000000000 -15.0000000000 0.0000000000 1.0000000000 0.0000000000 129.8121599030 0.0000000000 0.0000000000
0.6554840762 1.5397946295 0.0000000000 0.0000000000 0.0000000000 -121.5720899960 0.2889581401 1.8798809981
0.6679440019 1.5537372927 0.0000000000 0.0000000000 0.0000000000 -123.1893747853 0.2889581401 1.8798809981
0.6798738815 1.5681360974 0.0000000000 0.0000000000 0.0000000000 -144.6320115986 0.2889581401 1.8798809981
0.6912570302 1.5829709056 0.0000000000 0.0000000000 0.0000000000 -156.0691708582 0.2889581401 1.8798809981
0.7020775274 1.5982209693 0.0000000000 0.0000000000 0.0000000000 -171.9542365895 0.2889581401 1.8798809981
0.7123202399 1.6138649601 0.0000000000 0.0000000000 0.0000000000 -188.1786078674 0.2889581401 1.8798809981
0.7219708421 1.6298809984 0.0000000000 0.0000000000 0.0000000000 -206.2825576178 0.2889581401 1.8798809981
0.7310158370 1.6462466842 0.0000000000 0.0000000000 0.0000000000 -225.6335697513 0.2889581401 1.8798809981
0.7394425742 1.6629391288 0.0000000000 0.0000000000 0.0000000000 -247.2905628574 0.2889581401 1.8798809981
0.7472392681 1.6799349862 0.0000000000 0.0000000000 0.0000000000 -271.0647661396 0.2889581401 1.8798809981
0.7543950145 1.6972104862 0.0000000000 0.0000000000 0.0000000000 -297.3216755372 0.2889581401 1.8798809981
0.7608998053 1.7147414674 0.0000000000 0.0000000000 0.0000000000 -326.4632605826 0.2889581401 1.8798809981
0.7667445430 1.7325034112 0.0000000000 0.0000000000 0.0000000000 -358.7175364570 0.2889581401 1.8798809981
0.7719210533 1.7504714758 0.0000000000 0.0000000000 0.0000000000 -393.9208203157 0.2889581401 1.8798809981
0.7764220962 1.7686205314 0.0000000000 0.0000000000 0.0000000000 -433.1470095097 0.2889581401 1.8798809981
0.7802413767 1.7869251948 0.0000000000 0.0000000000 0.0000000000 -475.4620843946 0.2889581401 1.8798809981
0.7833735532 1.8053598653 0.0000000000 0.0000000000 0.0000000000 -521.9944783353 0.2889581401 1.8798809981
0.7858142450 1.8238987603 0.0000000000 0.0000000000 0.0000000000 -571.8387129253 0.2889581401 1.8798809981
0.7875600387 1.8425159515 0.0000000000 0.0000000000 0.0000000000 -625.9402237000 0.2889581401 1.8798809981
0.7886084925 1.8611854012 0.0000000000 0.0000000000 0.0000000000 -683.7902306289 0.2889581401 1.8798809981
0.7889581401 1.8798809983 0.0000000000 0.0000000000 0.0000000000 -745.5387201310 0.2889581401 1.8798809981
0.7886084925 1.8985765954 0.0000000000 0.0000000000 0.0000000000 -810.9749648575 0.2889581401 1.8798809981
0.7875600387 1.9172460451 0.0000000000 0.0000000000 0.0000000000 -879.9756889985 0.2889581401 1.8798809981
0.7858142450 1.9358632363 0.0000000000 0.0000000000 0.0000000000 -952.4398045570 0.2889581401 1.8798809981
0.7833735532 1.9544021314 0.0000000000 0.0000000000 0.0000000000 -1028.3896127039 0.2889581401 1.8798809981
0.7802413767 1.9728368019 0.0000000000 0.0000000000 0.0000000000 -1106.9864376480 0.2889581401 1.8798809981
0.7764220961 1.9911414652 0.0000000000 0.0000000000 0.0000000000 -1187.1458487089 0.2889581401 1.8798809981
0.7719210532 2.0092905208 0.0000000000 0.0000000000 0.0000000000 -1271.4817365071 0.2889581401 1.8798809981
0.7667445429 2.0272585855 0.0000000000 0.0000000000 0.0000000000 -1352.1121286001 0.2889581401 1.8798809981
0.7608998052 2.0450205292 0.0000000000 0.0000000000 0.0000000000 -1440.7238367602 0.2889581401 1.8798809981
0.7543950143 2.0625515104 0.0000000000 0.0000000000 0.0000000000 -1517.7909028980 0.2889581401 1.8798809981
0.7472392680 2.0798270104 0.0000000000 0.0000000000 0.0000000000 -1609.2854500555 0.2889581401 1.8798809981
0.7394425740 2.0968228678 0.0000000000 0.0000000000 0.0000000000 -1680.3180216936 0.2889581401 1.8798809981
0.7310158368 2.1135153123 0.0000000000 0.0000000000 0.0000000000 -1771.5037254898 0.2889581401 1.8798809981
0.7219708419 2.1298809982 0.0000000000 0.0000000000 0.0000000000 -1837.4872277879 0.2889581401 1.8798809981
0.7123202396 2.1458970365 0.0000000000 0.0000000000 0.0000000000 -1929.9235914488 0.2889581401 1.8798809981
0.7020775272 2.1615410272 0.0000000000 0.0000000000 0.0000000000 -1982.8608828509 0.2889581401 1.8798809981
0.6912570299 2.1767910910 0.0000000000 0.0000000000 0.0000000000 -2085.2704129098 0.2889581401 1.8798809981
0.6798738813 2.1916258991 0.0000000000 0.0000000000 0.0000000000 -2121.3747912282 0.2889581401 1.8798809981
0.6679440016 2.2060247038 0.0000000000 0.0000000000 0.0000000000 -2289.7851961703 0.2889581401 1.8798809981
0.6554840759 2.2199673670 0.0000000000 0.0000000000 0.0000000000 -2095.3043925284 0.2889581401 1.8798809981
0.6275989258 2.2477429535 0.0000000000 0.0000000000 0.0000000000 -2317.2971144471 0.2889581401 1.8798809981
0.6121077590 2.2614230323 0.0000000000 0.0000000000 0.0000000000 -2519.6715043987 0.2889581401 1.8798809981
0.5960644964 2.2744512528 0.0000000000 0.0000000000 0.0000000000 -2512.4532774349 0.2889581401 1.8798809981
0.5794965477 2.2868053568 0.0000000000 0.0000000000 0.0000000000 -2582.0663344548 0.2889581401 1.8798809981
0.5624322191 2.2984642373 0.0000000000 0.0000000000 0.0000000000 -2625.7085512966 0.2889581401 1.8798809981
0.5449006646 2.3094079753 0.0000000000 0.0000000000 0.0000000000 -2664.7776143619 0.2889581401 1.8798809981
0.5269318365 2.3196178738 0.0000000000 0.0000000000 0.0000000000 -2695.9953602523 0.2889581401 1.8798809981
0.5085564344 2.3290764891 0.0000000000 0.0000000000 0.0000000000 -2716.1553911722 0.2889581401 1.8798809981
0.4898058523 2.3377676615 0.0000000000 0.0000000000 0.0000000000 -2731.8306589618 0.2889581401 1.8798809981
0.4707121253 2.3456765422 0.0000000000 0.0000000000 0.0000000000 -2736.6617827686 0.2889581401 1.8798809981
0.4513078746 2.3527896190 0.0000000000 0.0000000000 0.0000000000 -2733.2467366361 0.2889581401 1.8798809981
0.4316262521 2.3590947394 0.0000000000 0.0000000000 0.0000000000 -2719.7291060096 0.2889581401 1.8798809981
0.4117008836 2.3645811311 0.0000000000 0.0000000000 0.0000000000 -2697.2014617898 0.2889581401 1.8798809981
0.3915658111 2.3692394208 0.0000000000 0.0000000000 0.0000000000 -2664.7353649629 0.2889581401 1.8798809981
0.3712554351 2.3730616498 0.0000000000 0.0000000000 0.0000000000 -2622.9028260342 0.2889581401 1.8798809981
0.3508044556 2.3760412880 0.0000000000 0.0000000000 0.0000000000 -2571.4043191780 0.2889581401 1.8798809981
0.3302478127 2.3781732446 0.0000000000 0.0000000000 0.0000000000 -2510.7436228734 0.2889581401 1.8798809981
0.3096206271 2.3794538773 0.0000000000 0.0000000000 0.0000000000 -2441.0126469366 0.2889581401 1.8798809981
0.2889581400 2.3798809981 0.0000000000 0.0000000000 0.0000000000 -2363.2440606547 0.2889581401 1.8798809981
0.2682956528 2.3794538773 0.0000000000 0.0000000000 0.0000000000 -2275.7289896984 0.2889581401 1.8798809981
0.2476684672 2.3781732446 0.0000000000 0.0000000000 0.0000000000 -2179.8769090291 0.2889581401 1.8798809981
0.2271118243 2.3760412880 0.0000000000 0.0000000000 0.0000000000 -2076.2751901338 0.2889581401 1.8798809981
0.2066608448 2.3730616498 0.0000000000 0.0000000000 0.0000000000 -1970.6549112740 0.2889581401 1.8798809981
0.1863504689 2.3692394208 0.0000000000 0.0000000000 0.0000000000 -1854.9140304050 0.2889581401 1.8798809981
0.1662153964 2.3645811311 0.0000000000 0.0000000000 0.0000000000 -1735.8831661174 0.2889581401 1.8798809981
0.1462900278 2.3590947393 0.0000000000 0.0000000000 0.0000000000 -1613.8144789018 0.2889581401 1.8798809981
0.1266084054 2.3527896189 0.0000000000 0.0000000000 0.0000000000 -1493.4093770062 0.2889581401 1.8798809981
0.1072041547 2.3456765421 0.0000000000 0.0000000000 0.0000000000 -1361.3120224462 0.2889581401 1.8798809981
0.0881104276 2.3377676614 0.0000000000 0.0000000000 0.0000000000 -1248.8851071869 0.2889581401 1.8798809981
0.0693598455 2.3290764890 0.0000000000 0.0000000000 0.0000000000 -1105.5438797385 0.2889581401 1.8798809981
0.0509844434 2.3196178737 0.0000000000 0.0000000000 0.0000000000 -1003.8373080121 0.2889581401 1.8798809981
0.0330156154 2.3094079752 0.0000000000 0.0000000000 0.0000000000 -873.2859703950 0.2889581401 1.8798809981
0.0154840609 2.2984642372 0.0000000000 0.0000000000 0.0000000000 -755.2576703090 0.2889581401 1.8798809981
-0.0015802677 2.2868053567 0.0000000000 0.0000000000 0.0000000000 -653.3241963693 0.2889581401 1.8798809981
-0.0181482164 2.2744512527 0.0000000000 0.0000000000 0.0000000000 -542.4002306130 0.2889581401 1.8798809981
-0.0341914790 2.2614230321 0.0000000000 0.0000000000 0.0000000000 -444.4524424487 0.2889581401 1.8798809981
-0.0496826459 2.2477429533 0.0000000000 0.0000000000 0.0000000000 -345.0849900704 0.2889581401 1.8798809981
-0.0789038154 2.2185217838 0.0000000000 0.0000000000 0.0000000000 -161.4618049890 0.2889581401 1.8798809981
-0.0925838941 2.2030306169 0.0000000000 0.0000000000 0.0000000000 -932.8686929987 0.2889581401 1.8798809981
-0.1056121147 2.1869873543 0.0000000000 0.0000000000 0.0000000000 337.9572453364 0.2889581401 1.8798809981
-0.1179662187 2.1704194057 0.0000000000 0.0000000000 0.0000000000 105.9303965003 0.2889581401 1.8798809981
-0.1296250991 2.1533550770 0.0000000000 0.0000000000 0.0000000000 297.3816031310 0.2889581401 1.8798809981
-0.1405688372 2.1358235225 0.0000000000 0.0000000000 0.0000000000 361.1402741079 0.2889581401 1.8798809981
-0.1507787356 2.1178546945 0.0000000000 0.0000000000 0.0000000000 449.8491906027 0.2889581401 1.8798809981
-0.1602373509 2.0994792924 0.0000000000 0.0000000000 0.0000000000 521.7014907218 0.2889581401 1.8798809981
-0.1689285233 2.0807287103 0.0000000000 0.0000000000 0.0000000000 588.7340459367 0.2889581401 1.8798809981
-0.1768374040 2.0616349832 0.0000000000 0.0000000000 0.0000000000 647.4819405151 0.2889581401 1.8798809981
-0.1839504808 2.0422307325 0.0000000000 0.0000000000 0.0000000000 699.2399967904 0.2889581401 1.8798809981
-0.1902556012 2.0225491101 0.0000000000 0.0000000000 0.0000000000 743.7158302979 0.2889581401 1.8798809981
-0.1957419929 2.0026237415 0.0000000000 0.0000000000 0.0000000000 781.2833517487 0.2889581401 1.8798809981
-0.2004002826 1.9824886690 0.0000000000 0.0000000000 0.0000000000 812.0876264317 0.2889581401 1.8798809981
-0.2042225117 1.9621782931 0.0000000000 0.0000000000 0.0000000000 836.4649568289 0.2889581401 1.8798809981
-0.2072021498 1.9417273136 0.0000000000 0.0000000000 0.0000000000 854.7401525459 0.2889581401 1.8798809981
-0.2093341064 1.9211706707 0.0000000000 0.0000000000 0.0000000000 867.3361340901 0.2889581401 1.8798809981
-0.2106147391 1.9005434850 0.0000000000 0.0000000000 0.0000000000 874.7086199921 0.2889581401 1.8798809981
-0.2110418599 1.8798809979 0.0000000000 0.0000000000 0.0000000000 877.3742305961 0.2889581401 1.8798809981
-0.2106147391 1.8592185108 0.0000000000 0.0000000000 0.0000000000 875.8712955191 0.2889581401 1.8798809981
-0.2093341064 1.8385913252 0.0000000000 0.0000000000 0.0000000000 870.7691086296 0.2889581401 1.8798809981
-0.2072021498 1.8180346823 0.0000000000 0.0000000000 0.0000000000 862.6082202778 0.2889581401 1.8798809981
-0.2042225116 1.7975837028 0.0000000000 0.0000000000 0.0000000000 851.9379180053 0.2889581401 1.8798809981
-0.2004002825 1.7772733268 0.0000000000 0.0000000000 0.0000000000 839.1796790639 0.2889581401 1.8798809981
-0.1957419928 1.7571382543 0.0000000000 0.0000000000 0.0000000000 824.8115647172 0.2889581401 1.8798809981
-0.1902556011 1.7372128858 0.0000000000 0.0000000000 0.0000000000 808.9889377763 0.2889581401 1.8798809981
-0.1839504807 1.7175312633 0.0000000000 0.0000000000 0.0000000000 792.2229096285 0.2889581401 1.8798809981
-0.1768374039 1.6981270126 0.0000000000 0.0000000000 0.0000000000 774.1573173187 0.2889581401 1.8798809981
-0.1689285232 1.6790332856 0.0000000000 0.0000000000 0.0000000000 755.8427185439 0.2889581401 1.8798809981
-0.1602373508 1.6602827035 0.0000000000 0.0000000000 0.0000000000 735.6571724244 0.2889581401 1.8798809981
-0.1507787354 1.6419073014 0.0000000000 0.0000000000 0.0000000000 716.7084761640 0.2889581401 1.8798809981
-0.1405688370 1.6239384734 0.0000000000 0.0000000000 0.0000000000 693.6863489658 0.2889581401 1.8798809981
-0.1296250989 1.6064069189 0.0000000000 0.0000000000 0.0000000000 675.9910305414 0.2889581401 1.8798809981
-0.1179662184 1.5893425902 0.0000000000 0.0000000000 0.0000000000 647.8043452274 0.2889581401 1.8798809981
-0.1056121145 1.5727746416 0.0000000000 0.0000000000 0.0000000000 634.6329454932 0.2889581401 1.8798809981
-0.0925838939 1.5567313790 0.0000000000 0.0000000000 0.0000000000 599.7896607510 0.2889581401 1.8798809981
-0.0789038151 1.5412402121 0.0000000000 0.0000000000 0.0000000000 570.1712961964 0.2889581401 1.8798809981
-0.0496826455 1.5120190426 0.0000000000 0.0000000000 0.0000000000 535.2823864648 0.2889581401 1.8798809981
-0.0341914787 1.4983389638 0.0000000000 0.0000000000 0.0000000000 549.3310241342 0.2889581401 1.8798809981
-0.0181482161 1.4853107433 0.0000000000 0.0000000000 0.0000000000 463.8669164792 0.2889581401 1.8798809981
-0.0015802674 1.4729566393 0.0000000000 0.0000000000 0.0000000000 487.0313965027 0.2889581401 1.8798809981
0.0154840612 1.4612977588 0.0000000000 0.0000000000 0.0000000000 436.5868683523 0.2889581401 1.8798809981
0.0330156158 1.4503540208 0.0000000000 0.0000000000 0.0000000000 435.6846535742 0.2889581401 1.8798809981
0.0509844438 1.4401441224 0.0000000000 0.0000000000 0.0000000000 403.0562903944 0.2889581401 1.8798809981
0.0693598459 1.4306855070 0.0000000000 0.0000000000 0.0000000000 390.0952768942 0.2889581401 1.8798809981
0.0881104280 1.4219943347 0.0000000000 0.0000000000 0.0000000000 365.6206434313 0.2889581401 1.8798809981
0.1072041551 1.4140854540 0.0000000000 0.0000000000 0.0000000000 348.2300310613 0.2889581401 1.8798809981
0.1266084057 1.4069723772 0.0000000000 0.0000000000 0.0000000000 327.0693375627 0.2889581401 1.8798809981
0.1462900282 1.4006672568 0.0000000000 0.0000000000 0.0000000000 308.4665801410 0.2889581401 1.8798809981
0.1662153968 1.3951808651 0.0000000000 0.0000000000 0.0000000000 288.8292642696 0.2889581401 1.8798809981
0.1863504693 1.3905225754 0.0000000000 0.0000000000 0.0000000000 270.2130754418 0.2889581401 1.8798809981
0.2066608452 1.3867003464 0.0000000000 0.0000000000 0.0000000000 251.4907352341 0.2889581401 1.8798809981
0.2271118247 1.3837207082 0.0000000000 0.0000000000 0.0000000000 233.2940686586 0.2889581401 1.8798809981
0.2476684676 1.3815887516 0.0000000000 0.0000000000 0.0000000000 215.2920092673 0.2889581401 1.8798809981
0.2682956533 1.3803081189 0.0000000000 0.0000000000 0.0000000000 197.6672646804 0.2889581401 1.8798809981
0.2889581404 1.3798809981 0.0000000000 0.0000000000 0.0000000000 180.3263845563 0.2889581401 1.8798809981
0.3096206275 1.3803081189 0.0000000000 0.0000000000 0.0000000000 163.3208797430 0.2889581401 1.8798809981
0.3302478131 1.3815887516 0.0000000000 0.0000000000 0.0000000000 146.6198291650 0.2889581401 1.8798809981
0.3508044560 1.3837207083 0.0000000000 0.0000000000 0.0000000000 130.2400884012 0.2889581401 1.8798809981
0.3712554355 1.3867003465 0.0000000000 0.0000000000 0.0000000000 114.1582195150 0.2889581401 1.8798809981
0.3915658115 1.3905225755 0.0000000000 0.0000000000 0.0000000000 98.3946788121 0.2889581401 1.8798809981
0.4117008840 1.3951808652 0.0000000000 0.0000000000 0.0000000000 82.8878375293 0.2889581401 1.8798809981
0.4316262525 1.4006672570 0.0000000000 0.0000000000 0.0000000000 67.7322207794 0.2889581401 1.8798809981
0.4513078750 1.4069723774 0.0000000000 0.0000000000 0.0000000000 52.7418109506 0.2889581401 1.8798809981
0.4707121257 1.4140854542 0.0000000000 0.0000000000 0.0000000000 38.0751616597 0.2889581401 1.8798809981
0.4898058527 1.4219943349 0.0000000000 0.0000000000 0.0000000000 23.5645914017 0.2889581401 1.8798809981
0.5085564348 1.4306855073 0.0000000000 0.0000000000 0.0000000000 9.5052740042 0.2889581401 1.8798809981
0.5269318369 1.4401441227 0.0000000000 0.0000000000 0.0000000000 -4.9568343070 0.2889581401 1.8798809981
0.5449006649 1.4503540211 0.0000000000 0.0000000000 0.0000000000 -18.2725906980 0.2889581401 1.8798809981
0.5624322194 1.4612977592 0.0000000000 0.0000000000 0.0000000000 -33.1692495338 0.2889581401 1.8798809981
0.5794965481 1.4729566397 0.0000000000 0.0000000000 0.0000000000 -44.8268626686 0.2889581401 1.8798809981
0.5960644967 1.4853107436 0.0000000000 0.0000000000 0.0000000000 -62.9237341594 0.2889581401 1.8798809981
0.6121077593 1.4983389642 0.0000000000 0.0000000000 0.0000000000 -68.1572954513 0.2889581401 1.8798809981
0.6275989261 1.5120190430 0.0000000000 0.0000000000 0.0000000000 -96.4591067542 0.2889581401 1.8798809981
0.8602073877 1.4366481031 0.0000000000 0.1656309691 0.1137799518 -130.9755059366 0.3104184835 1.9467776560
0.8782838120 1.4587331012 0.0000000000 0.1709819359 0.0870982583 -144.3156050255 0.3098050193 1.9479486593
0.8954526748 1.4820381081 0.0000000000 0.1766577548 0.0630466335 -158.5152798572 0.3090790626 1.9496554591
0.9117247531 1.5061160787 0.0000000000 0.1827176646 0.0414095245 -173.4319530955 0.3082764179 1.9514812175
0.9270931839 1.5307658942 0.0000000000 0.1892736922 0.0213695608 -189.0162804254 0.3074141028 1.9532559374
0.9415551392 1.5558755881 0.0000000000 0.1964731555 0.0020861686 -205.2558505645 0.3065119896 1.9548996451
0.9551074532 1.5813724124 0.0000000000 0.2044707398 -0.0170527850 -222.1471499965 0.3055884001 1.9563724120
0.9677436979 1.6072027832 0.0000000000 0.2134048275 -0.0363803847 -239.6835448959 0.3046571525 1.9576542540
0.9794537665 1.6333227724 0.0000000000 0.2233878653 -0.0560102292 -257.8510516277 0.3037271154 1.9587355764
0.9902247607 1.6596931373 0.0000000000 0.2345073992 -0.0759249537 -276.6281428626 0.3028030687 1.9596121551
1.0000422306 1.6862766222 0.0000000000 0.2468309726 -0.0960474021 -295.9871054494 0.3018869189 1.9602823901
1.0088912529 1.7130364783 0.0000000000 0.2604103661 -0.1162820556 -315.8953063371 0.3009787551 1.9607457744
1.0167572005 1.7399356402 0.0000000000 0.2752834644 -0.1365326420 -336.3161021620 0.3000775960 1.9610020206
1.0236262500 1.7669362558 0.0000000000 0.2914742155 -0.1567068806 -357.2096694161 0.2991818802 1.9610505393
1.0294857366 1.7939994171 0.0000000000 0.3089918369 -0.1767167528 -378.5340746156 0.2982898024 1.9608901172
1.0343244389 1.8210850209 0.0000000000 0.3278302242 -0.1964784880 -400.2466600907 0.2973995839 1.9605187259
1.0381328413 1.8481517345 0.0000000000 0.3479680341 -0.2159133964 -422.3056167046 0.2965097215 1.9599334338
1.0409033824 1.8751570565 0.0000000000 0.3693695167 -0.2349493021 -444.6715452444 0.2956192250 1.9591304133
1.0426306802 1.9020574745 0.0000000000 0.3919859867 -0.2535220417 -467.3088475523 0.2947278323 1.9581050443
1.0433117165 1.9288087200 0.0000000000 0.4157577882 -0.2715766565 -490.1868637337 0.2938361879 1.9568521154
1.0429459722 1.9553661242 0.0000000000 0.4406166336 -0.2890681106 -513.2807289442 0.2929459722 1.9553661239
1.0415355106 1.9816850655 0.0000000000 0.4664882306 -0.3059614836 -536.5719425266 0.2920599820 1.9536416695
1.0390850200 2.0077215004 0.0000000000 0.4932951164 -0.3222316182 -560.0486322000 0.2911821721 1.9516739299
1.0356018275 2.0334325527 0.0000000000 0.5209595937 -0.3378622116 -583.7054774360 0.2903176702 1.9494591953
1.0310958938 2.0587771323 0.0000000000 0.5494066335 -0.3528443516 -607.5432485977 0.2894727742 1.9469954324
1.0255797877 2.0837165474 0.0000000000 0.5785665766 -0.3671745326 -631.5679337566 0.2886549328 1.9442828417
1.0190686266 2.1082150696 0.0000000000 0.6083774611 -0.3808522508 -655.7894638969 0.2878726925 1.9413243689
1.0115799569 2.1322404179 0.0000000000 0.6387868227 -0.3938773322 -680.2201002588 0.2871355872 1.9381261339
1.0031335388 2.1557641250 0.0000000000 0.6697528626 -0.4062472028 -704.8726014643 0.2864539346 1.9346977439
0.9937510014 2.1787617591 0.0000000000 0.7012449429 -0.4179543329 -729.7583333236 0.2858385037 1.9310524624
0.9834553300 2.2012129754 0.0000000000 0.7332434392 -0.4289840872 -754.8855168459 0.2853000186 1.9272072069
0.9722701585 2.2231013666 0.0000000000 0.7657390409 -0.4393131879 -780.2578280093 0.2848484667 1.9231823482
0.9602188529 2.2444140776 0.0000000000 0.7987316392 -0.4489089414 -805.8735534337 0.2844922021 1.9190012731
0.9473234269 2.2651411334 0.0000000000 0.8322289526 -0.4577292753 -831.7254266372 0.2842368818 1.9146896620
0.9336034490 2.2852744399 0.0000000000 0.8662450009 -0.4657234326 -857.8010305025 0.2840843963 1.9102744397
0.9190753088 2.3048064963 0.0000000000 0.9007984392 -0.4728328580 -884.0831820529 0.2840321594 1.9057824388
0.9037523839 2.3237290974 0.0000000000 0.9359106852 -0.4789914527 -910.5491385310 0.2840733032 1.9012390538
0.8876465248 2.3420327757 0.0000000000 0.9716039814 -0.4841241957 -937.1672241331 0.2841981901 1.8966676364
0.8707705114 2.3597085252 0.0000000000 1.0079006093 -0.4881431301 -963.8903520502 0.2843968997 1.8920911737
0.8531401402 2.3767555381 0.0000000000 1.0448272563 -0.4909372503 -990.6428856250 0.2846613479 1.8875399796
0.8347707874 2.3932050271 0.0000000000 1.0824455212 -0.4923486468 -1017.3274289007 0.2849818836 1.8830754737
0.7946184927 2.4256917796 0.0000000000 1.1625165665 -0.4896262806 -1070.6476530668 0.2866573140 1.8738988465
0.7727685811 2.4420096291 0.0000000000 1.2050678722 -0.4843011989 -1096.1880897117 0.2880441528 1.8696965779
0.7501482155 2.4578180926 0.0000000000 1.2481306669 -0.4762627034 -1120.1133317398 0.2894886810 1.8659627105
0.7267967996 2.4730081234 0.0000000000 1.2914088038 -0.4654295458 -1142.1512807396 0.2909891882 1.8626215854
0.7027506661 2.4875124166 0.0000000000 1.3346313643 -0.4517044715 -1161.9923360393 0.2925395476 1.8596375579
0.6780515672 2.5012834047 0.0000000000 1.3775173475 -0.4349923142 -1179.2967500569 0.2941377804 1.8569929389
0.6527448554 2.5142883460 0.0000000000 1.4197675603 -0.4152114737 -1193.7047337942 0.2957843108 1.8546830325
0.6268771767 2.5265070490 0.0000000000 1.4610629871 -0.3923015920 -1204.8449057258 0.2974797352 1.8527138126
0.6004947509 2.5379284940 0.0000000000 1.5010656223 -0.3662336780 -1212.3474774127 0.2992231825 1.8510984989
0.5736427260 2.5485471640 0.0000000000 1.5394220202 -0.3370209279 -1215.8606104910 0.3010117482 1.8498538479
0.5463652840 2.5583600161 0.0000000000 1.5757699430 -0.3047282099 -1215.0679672645 0.3028406822 1.8489970848
0.5187059986 2.5673643181 0.0000000000 1.6097480997 -0.2694788284 -1209.7061391589 0.3047038306 1.8485437062
0.4907081023 2.5755561658 0.0000000000 1.6410084724 -0.2314576871 -1199.5808534069 0.3065939871 1.8485059664
0.4624145265 2.5829294909 0.0000000000 1.6692301739 -0.1909101768 -1184.5804301638 0.3085030200 1.8488918569
0.4338677253 2.5894754828 0.0000000000 1.6941332445 -0.1481364353 -1164.6846026928 0.3104217828 1.8497045052
0.4051093697 2.5951824282 0.0000000000 1.7154905082 -0.1034812399 -1139.9670774853 0.3123398964 1.8509419933
0.3761800282 2.6000359498 0.0000000000 1.7331357866 -0.0573205377 -1110.5911777302 0.3142455192 1.8525975801
0.3471189358 2.6040195625 0.0000000000 1.7469674469 -0.0100462108 -1076.7992377473 0.3161252053 1.8546602437
0.3179639169 2.6071153877 0.0000000000 1.7569472083 0.0379491365 -1038.8975704205 0.3179639171 1.8571153877
0.2887514802 2.6093048458 0.0000000000 1.7630950401 0.0862857902 -997.2393961448 0.3197452110 1.8599455270
0.2595170617 2.6105691673 0.0000000000 1.7654815368 0.1346078552 -952.2079746533 0.3214515710 1.8631307976
0.2302953679 2.6108896398 0.0000000000 1.7642192225 0.1825909902 -904.2015068696 0.3230648415 1.8666492050
0.2011207629 2.6102475867 0.0000000000 1.7594538824 0.2299469683 -853.6205228976 0.3245667058 1.8704766092
0.1720276620 2.6086241414 0.0000000000 1.7513564553 0.2764254968 -800.8577808991 0.3259391688 1.8745865074
0.1430509055 2.6059999078 0.0000000000 1.7401155208 0.3218139966 -746.2903349442 0.3271650210 1.8789497084
0.1142261117 2.6023545931 0.0000000000 1.7259301735 0.3659361179 -690.2733884868 0.3282282801 1.8835339813
0.0855900112 2.5976666648 0.0000000000 1.7090031345 0.4086496542 -633.1356797683 0.3291146133 1.8883037336
0.0571807628 2.5919130478 0.0000000000 1.6895341910 0.4498442830 -575.1762801597 0.3298117409 1.8932197318
0.0290382397 2.5850688315 0.0000000000 1.6677142575 0.4894393206 -516.6627163025 0.3303098084 1.8982388365
0.0012042517 2.5771069145 0.0000000000 1.6437203978 0.5273815437 -457.8302395015 0.3306016935 1.9033136781
-0.0262773576 2.5679974373 0.0000000000 1.6177119844 0.5636431389 -398.8818948540 0.3306831874 1.9083921240
-0.0533608471 2.5577066822 0.0000000000 1.5898278429 0.5982200554 -339.9887817005 0.3305529399 1.9134162165
-0.0799991711 2.5461946915 0.0000000000 1.5601836478 0.6311317259 -281.2894046027 0.3302119477 1.9183198329
-0.1061455505 2.5334096838 0.0000000000 1.5288676689 0.6624250203 -222.8854049598 0.3296620612 1.9230231459
-0.1317574015 2.5192737647 0.0000000000 1.4959317217 0.6921916199 -164.8303151845 0.3289021332 1.9274183828
-0.1568056034 2.5036415747 0.0000000000 1.4613619233 0.7206214755 -107.0720995963 0.3279188251 1.9313285237
-0.1812925025 2.4861634420 0.0000000000 1.4250630857 0.7482269793 -49.4727178514 0.3266686764 1.9343705092
-0.2277362343 2.4509346569 0.0000000000 1.3487404883 0.7925141611 61.8260502670 0.3240566989 1.9429734783
-0.2495112489 2.4335070835 0.0000000000 1.3101698183 0.8089759305 113.7509169712 0.3228018025 1.9487826553
-0.2704875959 2.4144257410 0.0000000000 1.2706591436 0.8244116726 164.6995836110 0.3213677863 1.9537662067
-0.2905766446 2.3940027608 0.0000000000 1.2303472389 0.8383021438 214.4139687269 0.3198098935 1.9581951494
-0.3097095727 2.3723780030 0.0000000000 1.1893153396 0.8504514715 262.7463958520 0.3181652862 1.9621668846
-0.3278333559 2.3496377535 0.0000000000 1.1476376974 0.8607479226 309.5863397244 0.3164571100 1.9657239669
-0.3449043006 2.3258495185 0.0000000000 1.1053874631 0.8691113600 354.8334770182 0.3147010130 1.9688889739
-0.3608849313 2.3010736890 0.0000000000 1.0626437640 0.8754735832 398.3882999816 0.3129083053 1.9716762476
-0.3757426861 2.2753677885 0.0000000000 1.0194940481 0.8797716967 440.1489830651 0.3110873090 1.9740962202
-0.3894493027 2.2487879916 0.0000000000 0.9760352909 0.8819459678 480.0105668836 0.3092440134 1.9761570139
-0.4019804559 2.2213895657 0.0000000000 0.9323746149 0.8819398113 517.8650104827 0.3073824755 1.9778649640
-0.4133154689 2.1932268982 0.0000000000 0.8886298435 0.8797008111 553.6016495731 0.3055051430 1.9792247303
-0.4234370145 2.1643534061 0.0000000000 0.8449300739 0.8751824016 587.1079565309 0.3036131850 1.9802392910
-0.4323307590 2.1348214688 0.0000000000 0.8014161801 0.8683461386 618.2706755731 0.3017068751 1.9809099624
-0.4399849235 2.1046824488 0.0000000000 0.7582410290 0.8591645911 646.9774854124 0.2997860541 1.9812365064
-0.4463897579 2.0739868243 0.0000000000 0.7155691240 0.8476248269 673.1193460394 0.2978506770 1.9812173511
-0.4515369509 2.0427844327 0.0000000000 0.6735753572 0.8337322848 696.5936047333 0.2959014189 1.9808499239
-0.4554190294 2.0111248151 0.0000000000 0.6324425766 0.8175145954 717.3077774195 0.2939402894 1.9801310847
-0.4580288206 1.9790576487 0.0000000000 0.5923577791 0.7990246947 735.1837344883 0.2919711794 1.9790576490
-0.4593590576 1.9466332596 0.0000000000 0.5535069898 0.7783425473 750.1618998318 0.2900002611 1.9776269906
-0.4594021930 1.9139032122 0.0000000000 0.5160693095 0.7555752461 762.2051339190 0.2880361767 1.9758377217
-0.4581504480 1.8809209756 0.0000000000 0.4802111650 0.7308564746 771.3022694262 0.2860899868 1.9736904493
-0.4555960830 1.8477426559 0.0000000000 0.4460821543 0.7043481511 777.4717018965 0.2841748945 1.9711885989
-0.4517318363 1.8144277772 0.0000000000 0.4138135116 0.6762481897 780.7655986038 0.2823057976 1.9683392842
-0.4465514570 1.7810400694 0.0000000000 0.3835182248 0.6468055454 781.2747446337 0.2804987423 1.9651541851
-0.4400502675 1.7476482047 0.0000000000 0.3552890079 0.6163333643 779.1321465907 0.2787703442 1.9616503732
-0.4322257084 1.7143264098 0.0000000000 0.3291871418 0.5851915929 774.5112346100 0.2771372228 1.9578510120