 TITLE = "Tecplot data"
 VARIABLES = "X", "Y", "Z" "U", "V", "p", "dispX", "dispY"
 ZONE SOLUTIONTIME=36.900000, NODES=26114 , ELEMENTS=25916, DATAPACKING=POINT, ZONETYPE=FEQUADRILATERAL
0.4200361076 0.2802834925 0.0000000000 0.0000000000 0.0000000000 -283.2391025011 0.0664827171 -0.0732698982
0.4200361079 -0.4268232885 0.0000000000 0.0000000000 0.0000000000 -524.2953798095 0.0664827171 -0.0732698982
-0.2870706737 0.2802834923 0.0000000000 0.0000000000 0.0000000000 59.5285604083 0.0664827171 -0.0732698982
-0.2870706734 -0.4268232890 0.0000000000 0.0000000000 0.0000000000 -412.8511489127 0.0664827171 -0.0732698982
0.5956240932 0.4573804886 0.0000000000 -0.0142369488 0.0539422263 -277.1327013096 0.0652940073 -0.0729495973
0.5979775316 -0.6055493148 0.0000000000 0.9680857809 0.1128251399 -462.0720893066 0.0676474453 -0.0752192293
-0.4631176615 0.4556908824 0.0000000000 0.7364213825 0.4574351939 168.8812648946 0.0672124246 -0.0746392034
-0.4632519179 -0.6047656364 0.0000000000 0.9788942917 -0.5367904043 -81.2194357010 0.0670781677 -0.0744355502
1.1258893343 0.9866018320 0.0000000000 1.3664020283 0.0354548199 -263.4428402613 0.0652291626 -0.0740583399
1.1282194676 -1.1350848798 0.0000000000 1.1642673945 0.0886608118 -306.5626636963 0.0675592951 -0.0744247087
-0.9936105431 0.9820502977 0.0000000000 0.9109456004 0.1709993579 136.2207443140 0.0670496290 -0.0786098738
-0.9928806971 -1.1385189225 0.0000000000 0.9856995655 -0.1728837643 10.2308463091 0.0677794742 -0.0778587502
4.2557648981 3.2353614670 0.0000000000 0.9855792650 -0.0219418445 11.1218717323 0.0557648981 -0.0646385330
4.2678441302 -3.3643549807 0.0000000000 1.0491519055 0.0121084915 -11.2999083689 0.0678441302 -0.0643549807
20.0000000000 4.7000000000 0.0000000000 1.0091678403 -0.0152248301 0.0213745331 0.0000000000 0.0000000000
20.0000000000 -4.7000000000 0.0000000000 1.0051778820 0.0294771453 -0.0319116367 0.0000000000 0.0000000000
-10.0000000000 15.0000000000 0.0000000000 1.0000000000 0.0000000000 29.6139211812 0.0000000000 0.0000000000
20.0000000000 15.0000000000 0.0000000000 1.0079575660 0.0000000000 -0.0063050576 0.0000000000 0.0000000000
20.0000000000 -15.0000000000 0.0000000000 1.0092961406 0.0000000000 -0.0124500614 0.0000000000 0.0000000000
-10.0000000000 -15.0000000000 0.0000000000 1.0000000000 0.0000000000 2.1280577465 0.0000000000 0.0000000000
0.4330086532 -0.4133562668 0.0000000000 0.0000000000 0.0000000000 -511.8190490600 0.0664827171 -0.0732698982
0.4454685788 -0.3994136036 0.0000000000 0.0000000000 0.0000000000 -499.4908348952 0.0664827171 -0.0732698982
0.4573984585 -0.3850147988 0.0000000000 0.0000000000 0.0000000000 -489.6176357029 0.0664827171 -0.0732698982
0.4687816071 -0.3701799907 0.0000000000 0.0000000000 0.0000000000 -480.7311852876 0.0664827171 -0.0732698982
0.4796021044 -0.3549299269 0.0000000000 0.0000000000 0.0000000000 -473.3003976666 0.0664827171 -0.0732698982
0.4898448168 -0.3392859362 0.0000000000 0.0000000000 0.0000000000 -466.7869685475 0.0664827171 -0.0732698982
0.4994954191 -0.3232698979 0.0000000000 0.0000000000 0.0000000000 -461.1344074586 0.0664827171 -0.0732698982
0.5085404139 -0.3069042120 0.0000000000 0.0000000000 0.0000000000 -456.0567564568 0.0664827171 -0.0732698982
0.5169671511 -0.2902117675 0.0000000000 0.0000000000 0.0000000000 -451.3949166601 0.0664827171 -0.0732698982
0.5247638451 -0.2732159101 0.0000000000 0.0000000000 0.0000000000 -446.9579614804 0.0664827171 -0.0732698982
0.5319195915 -0.2559404101 0.0000000000 0.0000000000 0.0000000000 -442.6092671948 0.0664827171 -0.0732698982
0.5384243823 -0.2384094289 0.0000000000 0.0000000000 0.0000000000 -438.2192647928 0.0664827171 -0.0732698982
0.5442691200 -0.2206474851 0.0000000000 0.0000000000 0.0000000000 -433.7208644382 0.0664827171 -0.0732698982
0.5494456303 -0.2026794205 0.0000000000 0.0000000000 0.0000000000 -428.9809819986 0.0664827171 -0.0732698982
0.5539466732 -0.1845303649 0.0000000000 0.0000000000 0.0000000000 -424.1628114916 0.0664827171 -0.0732698982
0.5577659537 -0.1662257015 0.0000000000 0.0000000000 0.0000000000 -418.8882291902 0.0664827171 -0.0732698982
0.5608981302 -0.1477910310 0.0000000000 0.0000000000 0.0000000000 -415.6884709955 0.0664827171 -0.0732698982
0.5633388220 -0.1292521360 0.0000000000 0.0000000000 0.0000000000 -406.5193212515 0.0664827171 -0.0732698982
0.5650846157 -0.1106349448 0.0000000000 0.0000000000 0.0000000000 -401.8224337673 0.0664827171 -0.0732698982
0.5661330695 -0.0919654951 0.0000000000 0.0000000000 0.0000000000 -395.4302375913 0.0664827171 -0.0732698982
0.5664827171 -0.0732698980 0.0000000000 0.0000000000 0.0000000000 -389.3605131738 0.0664827171 -0.0732698982
0.5661330694 -0.0545743008 0.0000000000 0.0000000000 0.0000000000 -383.1047964672 0.0664827171 -0.0732698982
0.5650846156 -0.0359048512 0.0000000000 0.0000000000 0.0000000000 -376.8935836727 0.0664827171 -0.0732698982
0.5633388220 -0.0172876599 0.0000000000 0.0000000000 0.0000000000 -370.7238964793 0.0664827171 -0.0732698982
0.5608981301 0.0012512351 0.0000000000 0.0000000000 0.0000000000 -364.6757507582 0.0664827171 -0.0732698982
0.5577659536 0.0196859056 0.0000000000 0.0000000000 0.0000000000 -358.7591189151 0.0664827171 -0.0732698982
0.5539466731 0.0379905690 0.0000000000 0.0000000000 0.0000000000 -353.0178966877 0.0664827171 -0.0732698982
0.5494456302 0.0561396245 0.0000000000 0.0000000000 0.0000000000 -347.4507367983 0.0664827171 -0.0732698982
0.5442691199 0.0741076892 0.0000000000 0.0000000000 0.0000000000 -342.0718846560 0.0664827171 -0.0732698982
0.5384243822 0.0918696329 0.0000000000 0.0000000000 0.0000000000 -336.8715964034 0.0664827171 -0.0732698982
0.5319195913 0.1094006141 0.0000000000 0.0000000000 0.0000000000 -331.8290576639 0.0664827171 -0.0732698982
0.5247638449 0.1266761141 0.0000000000 0.0000000000 0.0000000000 -326.9657470722 0.0664827171 -0.0732698982
0.5169671510 0.1436719715 0.0000000000 0.0000000000 0.0000000000 -322.1426453272 0.0664827171 -0.0732698982
0.5085404138 0.1603644161 0.0000000000 0.0000000000 0.0000000000 -317.7389644580 0.0664827171 -0.0732698982
0.4994954189 0.1767301019 0.0000000000 0.0000000000 0.0000000000 -312.6370967414 0.0664827171 -0.0732698982
0.4898448166 0.1927461402 0.0000000000 0.0000000000 0.0000000000 -308.5311429543 0.0664827171 -0.0732698982
0.4796021042 0.2083901309 0.0000000000 0.0000000000 0.0000000000 -303.9392022454 0.0664827171 -0.0732698982
0.4687816069 0.2236401947 0.0000000000 0.0000000000 0.0000000000 -299.7231306504 0.0664827171 -0.0732698982
0.4573984582 0.2384750028 0.0000000000 0.0000000000 0.0000000000 -295.4966675549 0.0664827171 -0.0732698982
0.4454685786 0.2528738075 0.0000000000 0.0000000000 0.0000000000 -291.3034469675 0.0664827171 -0.0732698982
0.4330086529 0.2668164708 0.0000000000 0.0000000000 0.0000000000 -287.3128583337 0.0664827171 -0.0732698982
0.4051235028 0.2945920572 0.0000000000 0.0000000000 0.0000000000 -279.1275904686 0.0664827171 -0.0732698982
0.3896323359 0.3082721360 0.0000000000 0.0000000000 0.0000000000 -275.0420507068 0.0664827171 -0.0732698982
0.3735890733 0.3213003566 0.0000000000 0.0000000000 0.0000000000 -271.2869597262 0.0664827171 -0.0732698982
0.3570211247 0.3336544605 0.0000000000 0.0000000000 0.0000000000 -267.7459536019 0.0664827171 -0.0732698982
0.3399567961 0.3453133410 0.0000000000 0.0000000000 0.0000000000 -264.5269193852 0.0664827171 -0.0732698982
0.3224252415 0.3562570790 0.0000000000 0.0000000000 0.0000000000 -261.5998488003 0.0664827171 -0.0732698982
0.3044564135 0.3664669775 0.0000000000 0.0000000000 0.0000000000 -258.9912485526 0.0664827171 -0.0732698982
0.2860810114 0.3759255928 0.0000000000 0.0000000000 0.0000000000 -256.6731843587 0.0664827171 -0.0732698982
0.2673304293 0.3846167652 0.0000000000 0.0000000000 0.0000000000 -254.6266241282 0.0664827171 -0.0732698982
0.2482367023 0.3925256459 0.0000000000 0.0000000000 0.0000000000 -252.8094316206 0.0664827171 -0.0732698982
0.2288324516 0.3996387227 0.0000000000 0.0000000000 0.0000000000 -251.1804787663 0.0664827171 -0.0732698982
0.2091508291 0.4059438431 0.0000000000 0.0000000000 0.0000000000 -249.6922036838 0.0664827171 -0.0732698982
0.1892254605 0.4114302348 0.0000000000 0.0000000000 0.0000000000 -248.2995787524 0.0664827171 -0.0732698982
0.1690903881 0.4160885245 0.0000000000 0.0000000000 0.0000000000 -246.9567588924 0.0664827171 -0.0732698982
0.1487800121 0.4199107535 0.0000000000 0.0000000000 0.0000000000 -245.6172403167 0.0664827171 -0.0732698982
0.1283290326 0.4228903917 0.0000000000 0.0000000000 0.0000000000 -244.2291581828 0.0664827171 -0.0732698982
0.1077723897 0.4250223483 0.0000000000 0.0000000000 0.0000000000 -242.7317651871 0.0664827171 -0.0732698982
0.0871452041 0.4263029810 0.0000000000 0.0000000000 0.0000000000 -241.0510586666 0.0664827171 -0.0732698982
0.0664827169 0.4267301018 0.0000000000 0.0000000000 0.0000000000 -239.0966332778 0.0664827171 -0.0732698982
0.0458202298 0.4263029810 0.0000000000 0.0000000000 0.0000000000 -236.7590276011 0.0664827171 -0.0732698982
0.0251930442 0.4250223483 0.0000000000 0.0000000000 0.0000000000 -233.9081408270 0.0664827171 -0.0732698982
0.0046364013 0.4228903917 0.0000000000 0.0000000000 0.0000000000 -230.3925870148 0.0664827171 -0.0732698982
-0.0158145782 0.4199107535 0.0000000000 0.0000000000 0.0000000000 -226.0403498232 0.0664827171 -0.0732698982
-0.0361249542 0.4160885245 0.0000000000 0.0000000000 0.0000000000 -220.6608732432 0.0664827171 -0.0732698982
-0.0562600266 0.4114302348 0.0000000000 0.0000000000 0.0000000000 -214.0487871216 0.0664827171 -0.0732698982
-0.0761853952 0.4059438430 0.0000000000 0.0000000000 0.0000000000 -205.9892873380 0.0664827171 -0.0732698982
-0.0958670177 0.3996387226 0.0000000000 0.0000000000 0.0000000000 -196.2650786421 0.0664827171 -0.0732698982
-0.1152712683 0.3925256458 0.0000000000 0.0000000000 0.0000000000 -184.6646073368 0.0664827171 -0.0732698982
-0.1343649954 0.3846167651 0.0000000000 0.0000000000 0.0000000000 -170.9911713271 0.0664827171 -0.0732698982
-0.1531155775 0.3759255927 0.0000000000 0.0000000000 0.0000000000 -155.0723796468 0.0664827171 -0.0732698982
-0.1714909796 0.3664669774 0.0000000000 0.0000000000 0.0000000000 -136.7693829052 0.0664827171 -0.0732698982
-0.1894598076 0.3562570789 0.0000000000 0.0000000000 0.0000000000 -115.9853073008 0.0664827171 -0.0732698982
-0.2069913621 0.3453133409 0.0000000000 0.0000000000 0.0000000000 -92.6723993559 0.0664827171 -0.0732698982
-0.2240556908 0.3336544604 0.0000000000 0.0000000000 0.0000000000 -66.8375082865 0.0664827171 -0.0732698982
-0.2406236394 0.3213003564 0.0000000000 0.0000000000 0.0000000000 -38.5456736349 0.0664827171 -0.0732698982
-0.2566669020 0.3082721358 0.0000000000 0.0000000000 0.0000000000 -7.9217204646 0.0664827171 -0.0732698982
-0.2721580689 0.2945920571 0.0000000000 0.0000000000 0.0000000000 24.8501312266 0.0664827171 -0.0732698982
-0.3013792384 0.2653708875 0.0000000000 0.0000000000 0.0000000000 95.8192323383 0.0664827171 -0.0732698982
-0.3150593172 0.2498797206 0.0000000000 0.0000000000 0.0000000000 133.3805042556 0.0664827171 -0.0732698982
-0.3280875377 0.2338364580 0.0000000000 0.0000000000 0.0000000000 171.8304784805 0.0664827171 -0.0732698982
-0.3404416417 0.2172685094 0.0000000000 0.0000000000 0.0000000000 210.7549816405 0.0664827171 -0.0732698982
-0.3521005222 0.2002041807 0.0000000000 0.0000000000 0.0000000000 249.7159024150 0.0664827171 -0.0732698982
-0.3630442602 0.1826726262 0.0000000000 0.0000000000 0.0000000000 288.2593417733 0.0664827171 -0.0732698982
-0.3732541586 0.1647037982 0.0000000000 0.0000000000 0.0000000000 325.9231941197 0.0664827171 -0.0732698982
-0.3827127740 0.1463283961 0.0000000000 0.0000000000 0.0000000000 362.2440247109 0.0664827171 -0.0732698982
-0.3914039463 0.1275778140 0.0000000000 0.0000000000 0.0000000000 396.7633215766 0.0664827171 -0.0732698982
-0.3993128270 0.1084840869 0.0000000000 0.0000000000 0.0000000000 429.0332289973 0.0664827171 -0.0732698982
-0.4064259039 0.0890798363 0.0000000000 0.0000000000 0.0000000000 458.6219020910 0.0664827171 -0.0732698982
-0.4127310242 0.0693982138 0.0000000000 0.0000000000 0.0000000000 485.1184391625 0.0664827171 -0.0732698982
-0.4182174160 0.0494728452 0.0000000000 0.0000000000 0.0000000000 508.1375263509 0.0664827171 -0.0732698982
-0.4228757057 0.0293377727 0.0000000000 0.0000000000 0.0000000000 527.3234797004 0.0664827171 -0.0732698982
-0.4266979347 0.0090273968 0.0000000000 0.0000000000 0.0000000000 542.3541954093 0.0664827171 -0.0732698982
-0.4296775728 -0.0114235827 0.0000000000 0.0000000000 0.0000000000 552.9439709958 0.0664827171 -0.0732698982
-0.4318095295 -0.0319802256 0.0000000000 0.0000000000 0.0000000000 558.8471147914 0.0664827171 -0.0732698982
-0.4330901622 -0.0526074113 0.0000000000 0.0000000000 0.0000000000 559.8587552741 0.0664827171 -0.0732698982
-0.4335172829 -0.0732698984 0.0000000000 0.0000000000 0.0000000000 555.8195527098 0.0664827171 -0.0732698982
-0.4330901621 -0.0939323855 0.0000000000 0.0000000000 0.0000000000 546.6119233484 0.0664827171 -0.0732698982
-0.4318095294 -0.1145595711 0.0000000000 0.0000000000 0.0000000000 532.1706961294 0.0664827171 -0.0732698982
-0.4296775728 -0.1351162140 0.0000000000 0.0000000000 0.0000000000 512.4660343208 0.0664827171 -0.0732698982
-0.4266979346 -0.1555671935 0.0000000000 0.0000000000 0.0000000000 487.5361371542 0.0664827171 -0.0732698982
-0.4228757056 -0.1758775695 0.0000000000 0.0000000000 0.0000000000 457.4275372353 0.0664827171 -0.0732698982
-0.4182174159 -0.1960126420 0.0000000000 0.0000000000 0.0000000000 422.3037209051 0.0664827171 -0.0732698982
-0.4127310241 -0.2159380105 0.0000000000 0.0000000000 0.0000000000 382.2440377689 0.0664827171 -0.0732698982
-0.4064259037 -0.2356196330 0.0000000000 0.0000000000 0.0000000000 337.6102464000 0.0664827171 -0.0732698982
-0.3993128269 -0.2550238837 0.0000000000 0.0000000000 0.0000000000 288.3678105318 0.0664827171 -0.0732698982
-0.3914039462 -0.2741176107 0.0000000000 0.0000000000 0.0000000000 235.3351771417 0.0664827171 -0.0732698982
-0.3827127738 -0.2928681928 0.0000000000 0.0000000000 0.0000000000 177.8594032352 0.0664827171 -0.0732698982
-0.3732541584 -0.3112435949 0.0000000000 0.0000000000 0.0000000000 118.1507554435 0.0664827171 -0.0732698982
-0.3630442600 -0.3292124229 0.0000000000 0.0000000000 0.0000000000 53.1177543263 0.0664827171 -0.0732698982
-0.3521005219 -0.3467439774 0.0000000000 0.0000000000 0.0000000000 -10.1274602534 0.0664827171 -0.0732698982
-0.3404416414 -0.3638083061 0.0000000000 0.0000000000 0.0000000000 -84.0373424585 0.0664827171 -0.0732698982
-0.3280875375 -0.3803762547 0.0000000000 0.0000000000 0.0000000000 -143.0188371673 0.0664827171 -0.0732698982
-0.3150593169 -0.3964195173 0.0000000000 0.0000000000 0.0000000000 -235.2780610100 0.0664827171 -0.0732698982
-0.3013792381 -0.4119106842 0.0000000000 0.0000000000 0.0000000000 -267.8665307695 0.0664827171 -0.0732698982
-0.2721580686 -0.4411318537 0.0000000000 0.0000000000 0.0000000000 -406.2716339127 0.0664827171 -0.0732698982
-0.2566669017 -0.4548119324 0.0000000000 0.0000000000 0.0000000000 -531.0379964127 0.0664827171 -0.0732698982
-0.2406236391 -0.4678401530 0.0000000000 0.0000000000 0.0000000000 -564.5120479323 0.0664827171 -0.0732698982
-0.2240556904 -0.4801942570 0.0000000000 0.0000000000 0.0000000000 -652.4157924019 0.0664827171 -0.0732698982
-0.2069913618 -0.4918531375 0.0000000000 0.0000000000 0.0000000000 -704.4440177475 0.0664827171 -0.0732698982
-0.1894598073 -0.5027968755 0.0000000000 0.0000000000 0.0000000000 -773.2109820061 0.0664827171 -0.0732698982
-0.1714909792 -0.5130067739 0.0000000000 0.0000000000 0.0000000000 -826.6426019990 0.0664827171 -0.0732698982
-0.1531155771 -0.5224653892 0.0000000000 0.0000000000 0.0000000000 -883.0664313797 0.0664827171 -0.0732698982
-0.1343649950 -0.5311565616 0.0000000000 0.0000000000 0.0000000000 -930.7305443188 0.0664827171 -0.0732698982
-0.1152712680 -0.5390654423 0.0000000000 0.0000000000 0.0000000000 -976.0539834197 0.0664827171 -0.0732698982
-0.0958670173 -0.5461785191 0.0000000000 0.0000000000 0.0000000000 -1014.5089865237 0.0664827171 -0.0732698982
-0.0761853948 -0.5524836395 0.0000000000 0.0000000000 0.0000000000 -1048.2907425399 0.0664827171 -0.0732698982
-0.0562600262 -0.5579700312 0.0000000000 0.0000000000 0.0000000000 -1075.5819109130 0.0664827171 -0.0732698982
-0.0361249538 -0.5626283209 0.0000000000 0.0000000000 0.0000000000 -1097.0963737223 0.0664827171 -0.0732698982
-0.0158145778 -0.5664505499 0.0000000000 0.0000000000 0.0000000000 -1112.1106408753 0.0664827171 -0.0732698982
0.0046364017 -0.5694301881 0.0000000000 0.0000000000 0.0000000000 -1120.8845790684 0.0664827171 -0.0732698982
0.0251930446 -0.5715621447 0.0000000000 0.0000000000 0.0000000000 -1123.2079406283 0.0664827171 -0.0732698982
0.0458202302 -0.5728427774 0.0000000000 0.0000000000 0.0000000000 -1119.2890632000 0.0664827171 -0.0732698982
0.0664827174 -0.5732698982 0.0000000000 0.0000000000 0.0000000000 -1109.2326765778 0.0664827171 -0.0732698982
0.0871452045 -0.5728427774 0.0000000000 0.0000000000 0.0000000000 -1093.3620429625 0.0664827171 -0.0732698982
0.1077723901 -0.5715621447 0.0000000000 0.0000000000 0.0000000000 -1072.0354241708 0.0664827171 -0.0732698982
0.1283290330 -0.5694301880 0.0000000000 0.0000000000 0.0000000000 -1045.7582270442 0.0664827171 -0.0732698982
0.1487800125 -0.5664505498 0.0000000000 0.0000000000 0.0000000000 -1015.1157328233 0.0664827171 -0.0732698982
0.1690903885 -0.5626283208 0.0000000000 0.0000000000 0.0000000000 -980.8030370816 0.0664827171 -0.0732698982
0.1892254609 -0.5579700311 0.0000000000 0.0000000000 0.0000000000 -943.5897687600 0.0664827171 -0.0732698982
0.2091508295 -0.5524836393 0.0000000000 0.0000000000 0.0000000000 -904.3113950646 0.0664827171 -0.0732698982
0.2288324520 -0.5461785189 0.0000000000 0.0000000000 0.0000000000 -863.8354735725 0.0664827171 -0.0732698982
0.2482367026 -0.5390654421 0.0000000000 0.0000000000 0.0000000000 -823.0305367330 0.0664827171 -0.0732698982
0.2673304297 -0.5311565614 0.0000000000 0.0000000000 0.0000000000 -782.7303783863 0.0664827171 -0.0732698982
0.2860810118 -0.5224653890 0.0000000000 0.0000000000 0.0000000000 -743.6899625835 0.0664827171 -0.0732698982
0.3044564139 -0.5130067736 0.0000000000 0.0000000000 0.0000000000 -706.5676748281 0.0664827171 -0.0732698982
0.3224252419 -0.5027968752 0.0000000000 0.0000000000 0.0000000000 -671.8614396275 0.0664827171 -0.0732698982
0.3399567964 -0.4918531371 0.0000000000 0.0000000000 0.0000000000 -639.9744893539 0.0664827171 -0.0732698982
0.3570211250 -0.4801942566 0.0000000000 0.0000000000 0.0000000000 -611.0312296281 0.0664827171 -0.0732698982
0.3735890737 -0.4678401527 0.0000000000 0.0000000000 0.0000000000 -585.2774103186 0.0664827171 -0.0732698982
0.3896323363 -0.4548119320 0.0000000000 0.0000000000 0.0000000000 -562.2506315873 0.0664827171 -0.0732698982
0.4051235031 -0.4411318533 0.0000000000 0.0000000000 0.0000000000 -542.6292923479 0.0664827171 -0.0732698982
0.6172793372 -0.5852711028 0.0000000000 0.8762024756 0.1060564229 -457.0882496605 0.0674904330 -0.0751415498
0.6358894054 -0.5643741873 0.0000000000 0.7741433103 0.0968167513 -453.1216728831 0.0674106127 -0.0751586292
0.6537148274 -0.5428122307 0.0000000000 0.6658214153 0.0851297484 -450.2796045970 0.0673412153 -0.0751948797
0.6707184847 -0.5206004794 0.0000000000 0.5567919662 0.0711167997 -448.3953574588 0.0672701496 -0.0752353407
0.6868723816 -0.4977649485 0.0000000000 0.4529889914 0.0551308199 -447.2496332600 0.0671933005 -0.0752749053
0.7021521582 -0.4743356343 0.0000000000 0.3594671698 0.0377359979 -446.5965642473 0.0671090086 -0.0753115773
0.7165358531 -0.4503446086 0.0000000000 0.2794373555 0.0196363195 -446.2159693475 0.0670168001 -0.0753446090
0.7300034781 -0.4258252690 0.0000000000 0.2139162439 0.0015627371 -445.9332877274 0.0669169327 -0.0753737982
0.7425367922 -0.4008119734 0.0000000000 0.1620146826 -0.0158309695 -445.6134377348 0.0668101411 -0.0753991695
0.7541191534 -0.3753398350 0.0000000000 0.1216181077 -0.0320267801 -445.1434441658 0.0666974613 -0.0754208171
0.7647354197 -0.3494445957 0.0000000000 0.0901348565 -0.0466499134 -444.4177618575 0.0665801080 -0.0754388278
0.7743718893 -0.3231625374 0.0000000000 0.0650783064 -0.0594435640 -443.3317229845 0.0664593914 -0.0754532413
0.7830162656 -0.2965304096 0.0000000000 0.0443967774 -0.0702344559 -441.7822970207 0.0663366612 -0.0754640292
0.7906576360 -0.2695853666 0.0000000000 0.0265808193 -0.0789049862 -439.6732669565 0.0662132662 -0.0754710831
0.7972864580 -0.2423649086 0.0000000000 0.0106284566 -0.0853772173 -436.9222712312 0.0660905238 -0.0754742085
0.8028945485 -0.2149068268 0.0000000000 -0.0040527830 -0.0896070236 -433.4680084071 0.0659696935 -0.0754731218
0.8074750759 -0.1872491525 0.0000000000 -0.0177544409 -0.0915843529 -429.2764536383 0.0658519562 -0.0754674532
0.8110225536 -0.1594301100 0.0000000000 -0.0305612960 -0.0913360053 -424.3452283691 0.0657383961 -0.0754567533
0.8135328354 -0.1314880745 0.0000000000 -0.0424246755 -0.0889286052 -418.7055099076 0.0656299875 -0.0754405046
0.8150031134 -0.1034615333 0.0000000000 -0.0532172699 -0.0844704923 -412.4211547804 0.0655275848 -0.0754181379
0.8154319170 -0.0753890523 0.0000000000 -0.0627742161 -0.0781118799 -405.5850262302 0.0654319170 -0.0753890526
0.8148191133 -0.0473092449 0.0000000000 -0.0709245924 -0.0700429708 -398.3128305931 0.0653435847 -0.0753526410
0.8131659100 -0.0192607439 0.0000000000 -0.0775159808 -0.0604899639 -390.7350524974 0.0652630621 -0.0753083144
0.8104748590 0.0087178254 0.0000000000 -0.0824333904 -0.0497091318 -382.9878039445 0.0651907016 -0.0752555320
0.8067498631 0.0365878708 0.0000000000 -0.0856129445 -0.0379794137 -375.2035329165 0.0651267435 -0.0751938291
0.8019961834 0.0643108613 0.0000000000 -0.0870503411 -0.0255942166 -367.5025432738 0.0650713285 -0.0751228444
0.7962204495 0.0918483560 0.0000000000 -0.0868040990 -0.0128532877 -359.9861494805 0.0650245154 -0.0750423447
0.7894306713 0.1191620390 0.0000000000 -0.0849938568 -0.0000555453 -352.7320446271 0.0649863016 -0.0749522450
0.7816362509 0.1462137589 0.0000000000 -0.0817943327 0.0125064129 -345.7921419739 0.0649566466 -0.0748526221
0.7728479955 0.1729655776 0.0000000000 -0.0774258447 0.0245497920 -339.1928177966 0.0649354979 -0.0747437191
0.7630781287 0.1993798287 0.0000000000 -0.0721424121 0.0358032994 -332.9371956435 0.0649228172 -0.0746259398
0.7523402963 0.2254191887 0.0000000000 -0.0662183760 0.0460079250 -327.0089139652 0.0649186045 -0.0744998298
0.7406495639 0.2510467611 0.0000000000 -0.0599341961 0.0549181960 -321.3767334486 0.0649229130 -0.0743660434
0.7280223938 0.2762261746 0.0000000000 -0.0535616632 0.0623055547 -315.9993687675 0.0649358487 -0.0742252967
0.7144765910 0.3009216889 0.0000000000 -0.0473482692 0.0679653258 -310.8300584159 0.0649575383 -0.0740783112
0.7000312028 0.3250982989 0.0000000000 -0.0414999364 0.0717281444 -305.8205963728 0.0649880534 -0.0739257586
0.6847063655 0.3487218138 0.0000000000 -0.0361607598 0.0734758681 -300.9248196131 0.0650272848 -0.0737682298
0.6685231074 0.3717588795 0.0000000000 -0.0313880601 0.0731611342 -296.1018377056 0.0650747726 -0.0736062598
0.6515031106 0.3941768961 0.0000000000 -0.0271214997 0.0708288799 -291.3195254943 0.0651294988 -0.0734404554
0.6336683135 0.4159436953 0.0000000000 -0.0231467909 0.0666372169 -286.5588434085 0.0651895212 -0.0732718632
0.6150399132 0.4370266988 0.0000000000 -0.0190603182 0.0608721109 -281.8188884516 0.0652510093 -0.0731028546
0.5733063890 0.4790199062 0.0000000000 -0.0069008033 0.0456884084 -272.0353855147 0.0653452103 -0.0727730269
0.5501162272 0.4996812551 0.0000000000 0.0039449174 0.0376599764 -267.1655818976 0.0653917988 -0.0726317961
0.5261083085 0.5193513453 0.0000000000 0.0200581077 0.0308656197 -262.6373473721 0.0654487741 -0.0725040368
0.5013235220 0.5379998654 0.0000000000 0.0432969375 0.0263072028 -258.5768788896 0.0655159105 -0.0723866726
0.4758029290 0.5555964305 0.0000000000 0.0754413827 0.0249107871 -255.0785717496 0.0655918105 -0.0722784283
0.4495883631 0.5721113817 0.0000000000 0.1179786957 0.0274690975 -252.1748856499 0.0656745763 -0.0721790841
0.4227228033 0.5875162364 0.0000000000 0.1718861345 0.0346113965 -249.8206592902 0.0657622586 -0.0720890771
0.3952504859 0.6017839829 0.0000000000 0.2374368575 0.0467946440 -247.8966368677 0.0658530443 -0.0720092536
0.3672168997 0.6148893362 0.0000000000 0.3140498588 0.0642995947 -246.2291520695 0.0659453313 -0.0719406588
0.3386687174 0.6268089328 0.0000000000 0.4001945885 0.0872040301 -244.6161513206 0.0660377396 -0.0718843832
0.3096537029 0.6375214645 0.0000000000 0.4933701524 0.1153146182 -242.8481200782 0.0661291011 -0.0718414668
0.2802206159 0.6470077714 0.0000000000 0.5902061542 0.1480770812 -240.7159297897 0.0662184478 -0.0718128405
0.2504191214 0.6552509136 0.0000000000 0.6867347134 0.1845226477 -238.0066227114 0.0663050062 -0.0717992859
0.2202997032 0.6622362297 0.0000000000 0.7788282443 0.2233070418 -234.4993602311 0.0663881967 -0.0718014043
0.1899135763 0.6679513853 0.0000000000 0.8627145493 0.2628536022 -229.9756627344 0.0664676337 -0.0718195923
0.1593125958 0.6723864076 0.0000000000 0.9354340539 0.3015608558 -224.2454339857 0.0665431225 -0.0718540272
0.1285491575 0.6755337071 0.0000000000 0.9951255370 0.3380112031 -217.1755445633 0.0666146486 -0.0719046627
0.0976760880 0.6773880845 0.0000000000 1.0410941184 0.3711265557 -208.7055998086 0.0666823575 -0.0719712343
0.0667465253 0.6779467286 0.0000000000 1.0736849262 0.4002435427 -198.8450876064 0.0667465255 -0.0720532714
0.0358137907 0.6772092076 0.0000000000 1.0940290275 0.4251083765 -187.6563512891 0.0668075215 -0.0721501112
0.0049312548 0.6751774582 0.0000000000 1.1037395836 0.4458103665 -175.2318310517 0.0668657640 -0.0722609115
-0.0258477982 0.6718557734 0.0000000000 1.1046242769 0.4626813022 -161.6726285626 0.0669216755 -0.0723846614
-0.0564703056 0.6672507888 0.0000000000 1.0984566832 0.4761872609 -147.0722986646 0.0669756373 -0.0725201887
-0.0868835581 0.6613714661 0.0000000000 1.0868243193 0.4868330021 -131.5071270999 0.0670279487 -0.0726661679
-0.1170353257 0.6542290715 0.0000000000 1.0710509971 0.4950903799 -115.0325137237 0.0670787898 -0.0728211279
-0.1468739785 0.6458371479 0.0000000000 1.0521787237 0.5013539491 -97.6842231589 0.0671281899 -0.0729834639
-0.1763485998 0.6362114814 0.0000000000 1.0309896276 0.5059209499 -79.4829297564 0.0671760023 -0.0731514498
-0.2054090940 0.6253700625 0.0000000000 1.0080493418 0.5089896858 -60.4405085170 0.0672218841 -0.0733232535
-0.2340062875 0.6133330446 0.0000000000 0.9837573981 0.5106695879 -40.5667837289 0.0672652812 -0.0734969504
-0.2620920243 0.6001227028 0.0000000000 0.9583952243 0.5109971402 -19.8758209232 0.0673054176 -0.0736705335
-0.2896192611 0.5857633986 0.0000000000 0.9321668238 0.5099534243 1.6087735504 0.0673412839 -0.0738419147
-0.3165421690 0.5702815611 0.0000000000 0.9052304953 0.5074806795 23.8497669770 0.0673716180 -0.0740089046
-0.3428162631 0.5537057110 0.0000000000 0.8777219524 0.5034965780 46.7934527788 0.0673948556 -0.0741691476
-0.3683986148 0.5360665929 0.0000000000 0.8497702173 0.4979057881 70.3678813332 0.0674089969 -0.0743199449
-0.3932483036 0.5173976123 0.0000000000 0.8215079416 0.4906086894 94.4823320655 0.0674112311 -0.0744577696
-0.4173277117 0.4977363304 0.0000000000 0.7930786245 0.4815071481 119.0263960122 0.0673967169 -0.0745767207
-0.4406073656 0.4771303513 0.0000000000 0.7646422711 0.4705017733 143.8772314048 0.0673538133 -0.0746625815
-0.4844939693 0.4330482367 0.0000000000 0.7082942030 0.4426994932 193.8571976201 0.0672989638 -0.0749129419
-0.5050257052 0.4096345681 0.0000000000 0.6807034608 0.4258112902 218.6923924656 0.0672873461 -0.0750898602
-0.5246097457 0.3854209975 0.0000000000 0.6538025494 0.4068372199 243.1788292281 0.0672456365 -0.0752385368
-0.5432015835 0.3604378746 0.0000000000 0.6277815703 0.3858013351 267.1214826176 0.0671849546 -0.0753697368
-0.5607652660 0.3347235597 0.0000000000 0.6028358567 0.3627385601 290.3214212065 0.0671095928 -0.0754875587
-0.5772684111 0.3083196545 0.0000000000 0.5791603314 0.3377034052 312.5785754000 0.0670220548 -0.0755941321
-0.5926809946 0.2812697166 0.0000000000 0.5569463141 0.3107711264 333.6938777650 0.0669243189 -0.0756908280
-0.6069750192 0.2536188104 0.0000000000 0.5363787268 0.2820375796 353.4718231685 0.0668182173 -0.0757786310
-0.6201244301 0.2254132985 0.0000000000 0.5176336230 0.2516183559 371.7229836180 0.0667055650 -0.0758582697
-0.6321051178 0.1967007150 0.0000000000 0.5008759632 0.2196475241 388.2663890632 0.0665881983 -0.0759302627
-0.6428949571 0.1675296660 0.0000000000 0.4862576440 0.1862760946 402.9317094403 0.0664679743 -0.0759949356
-0.6524738594 0.1379497393 0.0000000000 0.4739157875 0.1516702798 415.5612020757 0.0663467525 -0.0760524287
-0.6608238309 0.1080114116 0.0000000000 0.4639712880 0.1160096128 426.0114025725 0.0662263686 -0.0761027035
-0.6679290286 0.0777659523 0.0000000000 0.4565276119 0.0794849718 434.1545487043 0.0661086054 -0.0761455540
-0.6737758122 0.0472653199 0.0000000000 0.4516698400 0.0422965624 439.8797361892 0.0659951654 -0.0761806225
-0.6783527886 0.0165620517 0.0000000000 0.4494639501 0.0046519031 443.0938141039 0.0658876463 -0.0762074215
-0.6816508474 -0.0142908541 0.0000000000 0.4499563489 -0.0332361427 443.7220369165 0.0657875224 -0.0762253629
-0.6836631872 -0.0452400630 0.0000000000 0.4531736750 -0.0711512608 441.7084982182 0.0656961316 -0.0762337934
-0.6843853317 -0.0762320374 0.0000000000 0.4591228926 -0.1088754971 437.0163728274 0.0656146683 -0.0762320371
-0.6838151372 -0.1072131731 0.0000000000 0.4677916717 -0.1461909926 429.6279878438 0.0655441816 -0.0762194421
-0.6819527902 -0.1381299415 0.0000000000 0.4791490071 -0.1828816529 419.5447281779 0.0654855795 -0.0761954321
-0.6788007942 -0.1689290321 0.0000000000 0.4931460156 -0.2187347560 406.7867799223 0.0654396405 -0.0761595584
-0.6743639445 -0.1995574939 0.0000000000 0.5097168124 -0.2535424940 391.3927131643 0.0654070330 -0.0761115509
-0.6686492858 -0.2299628729 0.0000000000 0.5287793448 -0.2871034152 373.4189062436 0.0653883481 -0.0760513659