 TITLE = "Tecplot data"
 VARIABLES = "X", "Y", "Z" "U", "V", "p", "dispX", "dispY"
 ZONE SOLUTIONTIME=73.900000, NODES=26114 , ELEMENTS=25916, DATAPACKING=POINT, ZONETYPE=FEQUADRILATERAL
0.5806410677 1.6920660091 0.0000000000 0.0000000000 0.0000000000 -1025.2607566124 0.2270876771 1.3385126185
0.5806410680 0.9849592281 0.0000000000 0.0000000000 0.0000000000 64.6984823189 0.2270876771 1.3385126185
-0.1264657136 1.6920660089 0.0000000000 0.0000000000 0.0000000000 -1279.5659221299 0.2270876771 1.3385126185
-0.1264657133 0.9849592277 0.0000000000 0.0000000000 0.0000000000 309.3463745801 0.2270876771 1.3385126185
0.7545516709 1.8682678174 0.0000000000 1.1430866247 -0.5767073529 -454.9081538807 0.2242215851 1.3379377314
0.7731966971 0.8566249079 0.0000000000 0.1247814070 0.1671361592 58.1616671943 0.2428666108 1.3869549934
-0.2766642262 1.9084082624 0.0000000000 1.3129892548 0.7657871878 -587.1647913879 0.2536658599 1.3780781766
-0.3152958562 0.8307660759 0.0000000000 0.2665755155 -0.0739705731 283.2107722525 0.2150342295 1.3610961620
1.3094825903 2.4171526596 0.0000000000 1.0649967306 -0.0514606100 -144.3093706458 0.2488224186 1.3564924877
1.2783998174 0.3171477884 0.0000000000 0.2375632994 0.1059783389 -8.9926251577 0.2177396449 1.3778079595
-0.7630405276 2.5304364039 0.0000000000 1.1069456266 0.2888704876 -137.4079264458 0.2976196445 1.4697762325
-0.8726129812 0.3771317107 0.0000000000 0.5966004357 -0.0260977814 221.1943993827 0.1880471900 1.4377918830
4.5463358253 4.4909587318 0.0000000000 1.1393082896 -0.0600495347 -78.7975696083 0.3463358253 1.1909587318
4.2787449640 -2.1123168209 0.0000000000 1.0911299188 -0.1231498835 -27.1857486393 0.0787449640 1.1876831791
20.0000000000 4.7000000000 0.0000000000 1.0848449168 0.0615293643 0.7353615841 0.0000000000 0.0000000000
20.0000000000 -4.7000000000 0.0000000000 1.0477186296 -0.0222430646 -0.1459623902 0.0000000000 0.0000000000
-10.0000000000 15.0000000000 0.0000000000 1.0000000000 0.0000000000 -10.5135231800 0.0000000000 0.0000000000
20.0000000000 15.0000000000 0.0000000000 1.0467220046 0.0000000000 0.0142871756 0.0000000000 0.0000000000
20.0000000000 -15.0000000000 0.0000000000 1.0474369835 0.0000000000 0.0289442192 0.0000000000 0.0000000000
-10.0000000000 -15.0000000000 0.0000000000 1.0000000000 0.0000000000 52.5679117920 0.0000000000 0.0000000000
0.5936136133 0.9984262498 0.0000000000 0.0000000000 0.0000000000 55.8203841034 0.2270876771 1.3385126185
0.6060735389 1.0123689131 0.0000000000 0.0000000000 0.0000000000 63.1469188587 0.2270876771 1.3385126185
0.6180034186 1.0267677178 0.0000000000 0.0000000000 0.0000000000 62.1999974617 0.2270876771 1.3385126185
0.6293865672 1.0416025259 0.0000000000 0.0000000000 0.0000000000 64.4767490954 0.2270876771 1.3385126185
0.6402070644 1.0568525897 0.0000000000 0.0000000000 0.0000000000 64.4704104544 0.2270876771 1.3385126185
0.6504497769 1.0724965805 0.0000000000 0.0000000000 0.0000000000 64.5628968276 0.2270876771 1.3385126185
0.6601003792 1.0885126187 0.0000000000 0.0000000000 0.0000000000 63.9708262314 0.2270876771 1.3385126185
0.6691453740 1.1048783046 0.0000000000 0.0000000000 0.0000000000 62.6237197686 0.2270876771 1.3385126185
0.6775721112 1.1215707492 0.0000000000 0.0000000000 0.0000000000 60.7166273489 0.2270876771 1.3385126185
0.6853688052 1.1385666066 0.0000000000 0.0000000000 0.0000000000 58.0130593276 0.2270876771 1.3385126185
0.6925245515 1.1558421065 0.0000000000 0.0000000000 0.0000000000 54.7014023765 0.2270876771 1.3385126185
0.6990293424 1.1733730877 0.0000000000 0.0000000000 0.0000000000 50.4473249113 0.2270876771 1.3385126185
0.7048740801 1.1911350315 0.0000000000 0.0000000000 0.0000000000 45.2972570804 0.2270876771 1.3385126185
0.7100505903 1.2091030962 0.0000000000 0.0000000000 0.0000000000 39.1534584053 0.2270876771 1.3385126185
0.7145516333 1.2272521517 0.0000000000 0.0000000000 0.0000000000 31.6870268351 0.2270876771 1.3385126185
0.7183709138 1.2455568151 0.0000000000 0.0000000000 0.0000000000 22.9626460232 0.2270876771 1.3385126185
0.7215030903 1.2639914856 0.0000000000 0.0000000000 0.0000000000 12.6302904142 0.2270876771 1.3385126185
0.7239437821 1.2825303806 0.0000000000 0.0000000000 0.0000000000 0.5691790003 0.2270876771 1.3385126185
0.7256895757 1.3011475719 0.0000000000 0.0000000000 0.0000000000 -13.4232628542 0.2270876771 1.3385126185
0.7267380295 1.3198170215 0.0000000000 0.0000000000 0.0000000000 -29.5098746524 0.2270876771 1.3385126185
0.7270876771 1.3385126187 0.0000000000 0.0000000000 0.0000000000 -47.9121866188 0.2270876771 1.3385126185
0.7267380295 1.3572082158 0.0000000000 0.0000000000 0.0000000000 -68.7321920294 0.2270876771 1.3385126185
0.7256895757 1.3758776654 0.0000000000 0.0000000000 0.0000000000 -92.1770339118 0.2270876771 1.3385126185
0.7239437820 1.3944948567 0.0000000000 0.0000000000 0.0000000000 -118.3246260230 0.2270876771 1.3385126185
0.7215030902 1.4130337517 0.0000000000 0.0000000000 0.0000000000 -147.3005580451 0.2270876771 1.3385126185
0.7183709137 1.4314684222 0.0000000000 0.0000000000 0.0000000000 -179.1368760957 0.2270876771 1.3385126185
0.7145516332 1.4497730856 0.0000000000 0.0000000000 0.0000000000 -213.8624377489 0.2270876771 1.3385126185
0.7100505902 1.4679221412 0.0000000000 0.0000000000 0.0000000000 -251.4944196795 0.2270876771 1.3385126185
0.7048740800 1.4858902058 0.0000000000 0.0000000000 0.0000000000 -291.9092196121 0.2270876771 1.3385126185
0.6990293422 1.5036521496 0.0000000000 0.0000000000 0.0000000000 -335.0036812257 0.2270876771 1.3385126185
0.6925245514 1.5211831308 0.0000000000 0.0000000000 0.0000000000 -380.8117949353 0.2270876771 1.3385126185
0.6853688050 1.5384586307 0.0000000000 0.0000000000 0.0000000000 -428.6446808876 0.2270876771 1.3385126185
0.6775721110 1.5554544881 0.0000000000 0.0000000000 0.0000000000 -479.2597789281 0.2270876771 1.3385126185
0.6691453738 1.5721469327 0.0000000000 0.0000000000 0.0000000000 -531.1800331293 0.2270876771 1.3385126185
0.6601003789 1.5885126186 0.0000000000 0.0000000000 0.0000000000 -584.8884603790 0.2270876771 1.3385126185
0.6504497767 1.6045286568 0.0000000000 0.0000000000 0.0000000000 -641.4303989140 0.2270876771 1.3385126185
0.6402070642 1.6201726476 0.0000000000 0.0000000000 0.0000000000 -695.7796597908 0.2270876771 1.3385126185
0.6293865669 1.6354227113 0.0000000000 0.0000000000 0.0000000000 -757.5440143500 0.2270876771 1.3385126185
0.6180034183 1.6502575194 0.0000000000 0.0000000000 0.0000000000 -806.6770707917 0.2270876771 1.3385126185
0.6060735386 1.6646563242 0.0000000000 0.0000000000 0.0000000000 -890.7591701280 0.2270876771 1.3385126185
0.5936136130 1.6785989874 0.0000000000 0.0000000000 0.0000000000 -895.3366572517 0.2270876771 1.3385126185
0.5657284629 1.7063745738 0.0000000000 0.0000000000 0.0000000000 -1039.8689198025 0.2270876771 1.3385126185
0.5502372960 1.7200546526 0.0000000000 0.0000000000 0.0000000000 -1134.4980151767 0.2270876771 1.3385126185
0.5341940334 1.7330828732 0.0000000000 0.0000000000 0.0000000000 -1190.9420656320 0.2270876771 1.3385126185
0.5176260848 1.7454369771 0.0000000000 0.0000000000 0.0000000000 -1257.3605852445 0.2270876771 1.3385126185
0.5005617561 1.7570958576 0.0000000000 0.0000000000 0.0000000000 -1323.3192113253 0.2270876771 1.3385126185
0.4830302016 1.7680395957 0.0000000000 0.0000000000 0.0000000000 -1384.7139659828 0.2270876771 1.3385126185
0.4650613736 1.7782494941 0.0000000000 0.0000000000 0.0000000000 -1447.8618798183 0.2270876771 1.3385126185
0.4466859715 1.7877081094 0.0000000000 0.0000000000 0.0000000000 -1506.3418068165 0.2270876771 1.3385126185
0.4279353894 1.7963992818 0.0000000000 0.0000000000 0.0000000000 -1565.7227576204 0.2270876771 1.3385126185
0.4088416623 1.8043081625 0.0000000000 0.0000000000 0.0000000000 -1620.4601285491 0.2270876771 1.3385126185
0.3894374116 1.8114212393 0.0000000000 0.0000000000 0.0000000000 -1673.6690979873 0.2270876771 1.3385126185
0.3697557892 1.8177263597 0.0000000000 0.0000000000 0.0000000000 -1722.9863358771 0.2270876771 1.3385126185
0.3498304206 1.8232127515 0.0000000000 0.0000000000 0.0000000000 -1769.1704635072 0.2270876771 1.3385126185
0.3296953481 1.8278710411 0.0000000000 0.0000000000 0.0000000000 -1811.3761604258 0.2270876771 1.3385126185
0.3093849722 1.8316932702 0.0000000000 0.0000000000 0.0000000000 -1849.5809087834 0.2270876771 1.3385126185
0.2889339927 1.8346729083 0.0000000000 0.0000000000 0.0000000000 -1883.5103729756 0.2270876771 1.3385126185
0.2683773497 1.8368048650 0.0000000000 0.0000000000 0.0000000000 -1912.8224230353 0.2270876771 1.3385126185
0.2477501641 1.8380854977 0.0000000000 0.0000000000 0.0000000000 -1937.6582745603 0.2270876771 1.3385126185
0.2270876770 1.8385126185 0.0000000000 0.0000000000 0.0000000000 -1957.3603035218 0.2270876771 1.3385126185
0.2064251899 1.8380854977 0.0000000000 0.0000000000 0.0000000000 -1972.5048438058 0.2270876771 1.3385126185
0.1857980043 1.8368048650 0.0000000000 0.0000000000 0.0000000000 -1982.1013752244 0.2270876771 1.3385126185
0.1652413614 1.8346729083 0.0000000000 0.0000000000 0.0000000000 -1985.8021680691 0.2270876771 1.3385126185
0.1447903819 1.8316932701 0.0000000000 0.0000000000 0.0000000000 -1983.5212363693 0.2270876771 1.3385126185
0.1244800059 1.8278710411 0.0000000000 0.0000000000 0.0000000000 -1977.8670721616 0.2270876771 1.3385126185
0.1043449334 1.8232127514 0.0000000000 0.0000000000 0.0000000000 -1963.8397651456 0.2270876771 1.3385126185
0.0844195649 1.8177263597 0.0000000000 0.0000000000 0.0000000000 -1945.2138995496 0.2270876771 1.3385126185
0.0647379424 1.8114212393 0.0000000000 0.0000000000 0.0000000000 -1921.0613645664 0.2270876771 1.3385126185
0.0453336917 1.8043081624 0.0000000000 0.0000000000 0.0000000000 -1890.8227564374 0.2270876771 1.3385126185
0.0262399647 1.7963992817 0.0000000000 0.0000000000 0.0000000000 -1853.1394423345 0.2270876771 1.3385126185
0.0074893826 1.7877081094 0.0000000000 0.0000000000 0.0000000000 -1813.7107089859 0.2270876771 1.3385126185
-0.0108860195 1.7782494940 0.0000000000 0.0000000000 0.0000000000 -1762.0053812667 0.2270876771 1.3385126185
-0.0288548476 1.7680395956 0.0000000000 0.0000000000 0.0000000000 -1712.2591060912 0.2270876771 1.3385126185
-0.0463864021 1.7570958575 0.0000000000 0.0000000000 0.0000000000 -1650.2640618570 0.2270876771 1.3385126185
-0.0634507307 1.7454369770 0.0000000000 0.0000000000 0.0000000000 -1586.2284092204 0.2270876771 1.3385126185
-0.0800186794 1.7330828731 0.0000000000 0.0000000000 0.0000000000 -1515.8930981669 0.2270876771 1.3385126185
-0.0960619419 1.7200546525 0.0000000000 0.0000000000 0.0000000000 -1441.0320656751 0.2270876771 1.3385126185
-0.1115531088 1.7063745737 0.0000000000 0.0000000000 0.0000000000 -1357.7116814519 0.2270876771 1.3385126185
-0.1407742783 1.6771534042 0.0000000000 0.0000000000 0.0000000000 -1174.6246757171 0.2270876771 1.3385126185
-0.1544543571 1.6616622373 0.0000000000 0.0000000000 0.0000000000 -1098.9963854457 0.2270876771 1.3385126185
-0.1674825777 1.6456189747 0.0000000000 0.0000000000 0.0000000000 -990.7568424479 0.2270876771 1.3385126185
-0.1798366816 1.6290510260 0.0000000000 0.0000000000 0.0000000000 -904.4559538241 0.2270876771 1.3385126185
-0.1914955621 1.6119866974 0.0000000000 0.0000000000 0.0000000000 -811.1297054618 0.2270876771 1.3385126185
-0.2024393002 1.5944551429 0.0000000000 0.0000000000 0.0000000000 -721.9942807059 0.2270876771 1.3385126185
-0.2126491986 1.5764863148 0.0000000000 0.0000000000 0.0000000000 -634.0077721461 0.2270876771 1.3385126185
-0.2221078139 1.5581109127 0.0000000000 0.0000000000 0.0000000000 -548.4004516503 0.2270876771 1.3385126185
-0.2307989863 1.5393603306 0.0000000000 0.0000000000 0.0000000000 -465.2552289230 0.2270876771 1.3385126185
-0.2387078670 1.5202666036 0.0000000000 0.0000000000 0.0000000000 -384.9628606124 0.2270876771 1.3385126185
-0.2458209438 1.5008623529 0.0000000000 0.0000000000 0.0000000000 -307.8203715609 0.2270876771 1.3385126185
-0.2521260642 1.4811807304 0.0000000000 0.0000000000 0.0000000000 -234.1347084894 0.2270876771 1.3385126185
-0.2576124559 1.4612553619 0.0000000000 0.0000000000 0.0000000000 -164.1842505856 0.2270876771 1.3385126185
-0.2622707456 1.4411202894 0.0000000000 0.0000000000 0.0000000000 -98.2267141229 0.2270876771 1.3385126185
-0.2660929746 1.4208099134 0.0000000000 0.0000000000 0.0000000000 -36.4888291674 0.2270876771 1.3385126185
-0.2690726128 1.4003589339 0.0000000000 0.0000000000 0.0000000000 20.8306590292 0.2270876771 1.3385126185
-0.2712045694 1.3798022910 0.0000000000 0.0000000000 0.0000000000 73.5721344351 0.2270876771 1.3385126185
-0.2724852021 1.3591751054 0.0000000000 0.0000000000 0.0000000000 121.6036638488 0.2270876771 1.3385126185
-0.2729123229 1.3385126183 0.0000000000 0.0000000000 0.0000000000 164.8486681812 0.2270876771 1.3385126185
-0.2724852021 1.3178501311 0.0000000000 0.0000000000 0.0000000000 203.2437844417 0.2270876771 1.3385126185
-0.2712045694 1.2972229455 0.0000000000 0.0000000000 0.0000000000 236.8233710529 0.2270876771 1.3385126185
-0.2690726127 1.2766663026 0.0000000000 0.0000000000 0.0000000000 265.5758737309 0.2270876771 1.3385126185
-0.2660929746 1.2562153231 0.0000000000 0.0000000000 0.0000000000 289.7072354618 0.2270876771 1.3385126185
-0.2622707455 1.2359049472 0.0000000000 0.0000000000 0.0000000000 309.1787960215 0.2270876771 1.3385126185
-0.2576124558 1.2157698747 0.0000000000 0.0000000000 0.0000000000 324.5186496179 0.2270876771 1.3385126185
-0.2521260641 1.1958445061 0.0000000000 0.0000000000 0.0000000000 335.4056181104 0.2270876771 1.3385126185
-0.2458209437 1.1761628836 0.0000000000 0.0000000000 0.0000000000 343.1067268898 0.2270876771 1.3385126185
-0.2387078668 1.1567586330 0.0000000000 0.0000000000 0.0000000000 346.2813365959 0.2270876771 1.3385126185
-0.2307989861 1.1376649059 0.0000000000 0.0000000000 0.0000000000 348.1245555451 0.2270876771 1.3385126185
-0.2221078137 1.1189143238 0.0000000000 0.0000000000 0.0000000000 344.2084879785 0.2270876771 1.3385126185
-0.2126491984 1.1005389217 0.0000000000 0.0000000000 0.0000000000 343.0406898955 0.2270876771 1.3385126185
-0.2024393000 1.0825700937 0.0000000000 0.0000000000 0.0000000000 331.3431929976 0.2270876771 1.3385126185
-0.1914955619 1.0650385392 0.0000000000 0.0000000000 0.0000000000 332.4598464164 0.2270876771 1.3385126185
-0.1798366814 1.0479742106 0.0000000000 0.0000000000 0.0000000000 308.5939261538 0.2270876771 1.3385126185
-0.1674825774 1.0314062619 0.0000000000 0.0000000000 0.0000000000 322.9826069627 0.2270876771 1.3385126185
-0.1544543568 1.0153629993 0.0000000000 0.0000000000 0.0000000000 278.4719412951 0.2270876771 1.3385126185
-0.1407742781 0.9998718325 0.0000000000 0.0000000000 0.0000000000 282.4244257261 0.2270876771 1.3385126185
-0.1115531085 0.9706506630 0.0000000000 0.0000000000 0.0000000000 251.2766831490 0.2270876771 1.3385126185
-0.0960619416 0.9569705842 0.0000000000 0.0000000000 0.0000000000 287.7550984557 0.2270876771 1.3385126185
-0.0800186790 0.9439423636 0.0000000000 0.0000000000 0.0000000000 174.6546798777 0.2270876771 1.3385126185
-0.0634507304 0.9315882597 0.0000000000 0.0000000000 0.0000000000 233.4190646710 0.2270876771 1.3385126185
-0.0463864017 0.9199293792 0.0000000000 0.0000000000 0.0000000000 185.1457430019 0.2270876771 1.3385126185
-0.0288548472 0.9089856411 0.0000000000 0.0000000000 0.0000000000 201.2705361288 0.2270876771 1.3385126185
-0.0108860192 0.8987757427 0.0000000000 0.0000000000 0.0000000000 177.1239811031 0.2270876771 1.3385126185
0.0074893829 0.8893171274 0.0000000000 0.0000000000 0.0000000000 176.1669135933 0.2270876771 1.3385126185
0.0262399650 0.8806259550 0.0000000000 0.0000000000 0.0000000000 162.3980090147 0.2270876771 1.3385126185
0.0453336921 0.8727170743 0.0000000000 0.0000000000 0.0000000000 155.7683637587 0.2270876771 1.3385126185
0.0647379428 0.8656039975 0.0000000000 0.0000000000 0.0000000000 145.7695545139 0.2270876771 1.3385126185
0.0844195653 0.8592988772 0.0000000000 0.0000000000 0.0000000000 137.9537378400 0.2270876771 1.3385126185
0.1043449338 0.8538124854 0.0000000000 0.0000000000 0.0000000000 129.4956165264 0.2270876771 1.3385126185
0.1244800063 0.8491541957 0.0000000000 0.0000000000 0.0000000000 121.8697325928 0.2270876771 1.3385126185
0.1447903823 0.8453319667 0.0000000000 0.0000000000 0.0000000000 114.3426180651 0.2270876771 1.3385126185
0.1652413618 0.8423523286 0.0000000000 0.0000000000 0.0000000000 107.2997301006 0.2270876771 1.3385126185
0.1857980047 0.8402203719 0.0000000000 0.0000000000 0.0000000000 100.5537198998 0.2270876771 1.3385126185
0.2064251903 0.8389397393 0.0000000000 0.0000000000 0.0000000000 94.2082435835 0.2270876771 1.3385126185
0.2270876774 0.8385126185 0.0000000000 0.0000000000 0.0000000000 88.2119631550 0.2270876771 1.3385126185
0.2477501645 0.8389397393 0.0000000000 0.0000000000 0.0000000000 82.6050906962 0.2270876771 1.3385126185
0.2683773502 0.8402203720 0.0000000000 0.0000000000 0.0000000000 77.3524640920 0.2270876771 1.3385126185
0.2889339931 0.8423523286 0.0000000000 0.0000000000 0.0000000000 72.5319824229 0.2270876771 1.3385126185
0.3093849726 0.8453319668 0.0000000000 0.0000000000 0.0000000000 67.9930929075 0.2270876771 1.3385126185
0.3296953485 0.8491541959 0.0000000000 0.0000000000 0.0000000000 63.9650081422 0.2270876771 1.3385126185
0.3498304210 0.8538124856 0.0000000000 0.0000000000 0.0000000000 60.2697988149 0.2270876771 1.3385126185
0.3697557895 0.8592988773 0.0000000000 0.0000000000 0.0000000000 57.0063337856 0.2270876771 1.3385126185
0.3894374120 0.8656039977 0.0000000000 0.0000000000 0.0000000000 54.2310170730 0.2270876771 1.3385126185
0.4088416627 0.8727170746 0.0000000000 0.0000000000 0.0000000000 51.7755300431 0.2270876771 1.3385126185
0.4279353897 0.8806259553 0.0000000000 0.0000000000 0.0000000000 49.8997597894 0.2270876771 1.3385126185
0.4466859718 0.8893171277 0.0000000000 0.0000000000 0.0000000000 48.6538135978 0.2270876771 1.3385126185
0.4650613739 0.8987757430 0.0000000000 0.0000000000 0.0000000000 47.6426566664 0.2270876771 1.3385126185
0.4830302019 0.9089856415 0.0000000000 0.0000000000 0.0000000000 47.6746496346 0.2270876771 1.3385126185
0.5005617565 0.9199293795 0.0000000000 0.0000000000 0.0000000000 47.7857433909 0.2270876771 1.3385126185
0.5176260851 0.9315882600 0.0000000000 0.0000000000 0.0000000000 49.4727110604 0.2270876771 1.3385126185
0.5341940337 0.9439423640 0.0000000000 0.0000000000 0.0000000000 49.6026736893 0.2270876771 1.3385126185
0.5502372963 0.9569705846 0.0000000000 0.0000000000 0.0000000000 54.7563581586 0.2270876771 1.3385126185
0.5657284632 0.9706506634 0.0000000000 0.0000000000 0.0000000000 51.7507662228 0.2270876771 1.3385126185
0.7926630558 0.8762167904 0.0000000000 0.1282452251 0.1567980082 61.7813681451 0.2428741516 1.3863463433
0.8108876679 0.8979724040 0.0000000000 0.1326163628 0.1409438736 65.3349544839 0.2424088752 1.3871879620
0.8282387719 0.9207941975 0.0000000000 0.1380680018 0.1209279635 68.6836431016 0.2418651597 1.3884115485
0.8447138974 0.9443548140 0.0000000000 0.1444059155 0.0979447845 71.7062372876 0.2412655623 1.3897199528
0.8603003331 0.9685016735 0.0000000000 0.1514313836 0.0730405345 74.3218215919 0.2406212521 1.3909917167
0.8749892853 0.9931455325 0.0000000000 0.1590245994 0.0470485989 76.4731427950 0.2399461356 1.3921695895
0.8887723776 1.0182249197 0.0000000000 0.1671645714 0.0205658807 78.1178593596 0.2392533245 1.3932249193
0.9016394215 1.0436918481 0.0000000000 0.1759185168 -0.0060306356 79.2212487682 0.2385528761 1.3941433189
0.9135780527 1.0695050430 0.0000000000 0.1854145220 -0.0325406653 79.7502461530 0.2378514016 1.3949178470
0.9245743320 1.0956264072 0.0000000000 0.1958093911 -0.0588868395 79.6689639299 0.2371526399 1.3955454250
0.9346136142 1.1220191049 0.0000000000 0.2072605961 -0.0850636521 78.9360185939 0.2364583025 1.3960248727
0.9436813112 1.1486465168 0.0000000000 0.2199069935 -0.1110969769 77.5036847836 0.2357688133 1.3963558129
0.9517634383 1.1754716651 0.0000000000 0.2338589933 -0.1370164884 75.3185275778 0.2350838339 1.3965380455
0.9588469757 1.2024568909 0.0000000000 0.2491963003 -0.1628395344 72.3229734793 0.2344026058 1.3965711744
0.9649201204 1.2295636760 0.0000000000 0.2659704105 -0.1885633985 68.4573075107 0.2337241862 1.3964543761
0.9699724903 1.2567525575 0.0000000000 0.2842092618 -0.2141628923 63.6617406142 0.2330476353 1.3961862625
0.9739953106 1.2839831170 0.0000000000 0.3039221486 -0.2395909878 57.8783598094 0.2323721909 1.3957648163
0.9769815924 1.3112140380 0.0000000000 0.3251037856 -0.2647810911 51.0528876254 0.2316974349 1.3951873948
0.9789262935 1.3384032310 0.0000000000 0.3477370769 -0.2896502399 43.1362236352 0.2310234456 1.3944508009
0.9798264518 1.3655080290 0.0000000000 0.3717946497 -0.3141028980 34.0857393341 0.2303509232 1.3935514244
0.9796812822 1.3924854537 0.0000000000 0.3972395402 -0.3380351490 23.8662794233 0.2296812822 1.3924854534
0.9784922376 1.4192925478 0.0000000000 0.4240255545 -0.3613390724 12.4508134426 0.2290167090 1.3912491518
0.9762630398 1.4458867666 0.0000000000 0.4520977885 -0.3839070032 -0.1793051699 0.2283601919 1.3898391961
0.9729996909 1.4722264109 0.0000000000 0.4813936272 -0.4056353272 -14.0344808730 0.2277155335 1.3882530535
0.9687104711 1.4982710821 0.0000000000 0.5118443231 -0.4264274817 -29.1173805499 0.2270873515 1.3864893822
0.9634059226 1.5239821318 0.0000000000 0.5433770490 -0.4461959249 -45.4237180962 0.2264810677 1.3845484262
0.9570988092 1.5493230791 0.0000000000 0.5759171848 -0.4648629809 -62.9432063867 0.2259028752 1.3824323784
0.9498040330 1.5742599693 0.0000000000 0.6093905400 -0.4823606214 -81.6605568171 0.2253596633 1.3801456852
0.9415384822 1.5987616500 0.0000000000 0.6437252451 -0.4986293835 -101.5564234544 0.2248588779 1.3776952689
0.9323207853 1.6227999451 0.0000000000 0.6788531294 -0.5136167119 -122.6082246704 0.2244082876 1.3750906484
0.9221709437 1.6463497080 0.0000000000 0.7147105147 -0.5272750547 -144.7908235785 0.2240156323 1.3723439395
0.9111098220 1.6693887333 0.0000000000 0.7512384603 -0.5395600293 -168.0771012429 0.2236881301 1.3694697149
0.8991584843 1.6918975015 0.0000000000 0.7883825774 -0.5504289198 -192.4384987966 0.2234318334 1.3664846970
0.8863374047 1.7138587202 0.0000000000 0.8260925724 -0.5598396601 -217.8456099291 0.2232508596 1.3634072489
0.8726656626 1.7352566318 0.0000000000 0.8643216600 -0.5677502714 -244.2688257012 0.2231466098 1.3602566317
0.8581603840 1.7560761109 0.0000000000 0.9030258769 -0.5741184511 -271.6788241011 0.2231172347 1.3570520534
0.8428368212 1.7763017486 0.0000000000 0.9421631883 -0.5789007392 -300.0464281909 0.2231577405 1.3538117049
0.8267093705 1.7959174555 0.0000000000 0.9816923580 -0.5820505946 -329.3413257947 0.2232610358 1.3505523162
0.8097932832 1.8149076852 0.0000000000 1.0215723259 -0.5835147796 -359.5298632085 0.2234196714 1.3472903337
0.7921060640 1.8332629373 0.0000000000 1.0617652787 -0.5832256862 -390.5725191632 0.2236272717 1.3440473787
0.7736647138 1.8509967428 0.0000000000 1.1022552773 -0.5810849692 -422.4392206035 0.2238758100 1.3408671894
0.7330737173 1.8861185389 0.0000000000 1.1871992522 -0.5698483390 -490.6541185186 0.2251125386 1.3343256058
0.7108520534 1.9036403659 0.0000000000 1.2314644614 -0.5597693989 -526.7872342433 0.2261276251 1.3313273147
0.6878467907 1.9205192302 0.0000000000 1.2755423435 -0.5468316346 -563.2018394598 0.2271872563 1.3286638481
0.6640977457 1.9366679084 0.0000000000 1.3191615558 -0.5310406267 -599.6884420641 0.2282901342 1.3262813704
0.6396425658 1.9520293294 0.0000000000 1.3620784354 -0.5123895529 -636.0360015142 0.2294314473 1.3241544706
0.6145230312 1.9665608906 0.0000000000 1.4040521342 -0.4908755394 -672.0178230664 0.2306092444 1.3222704248
0.5887838415 1.9802310326 0.0000000000 1.4448385854 -0.4665060858 -707.3911189236 0.2318232968 1.3206257191
0.5624709795 1.9930176751 0.0000000000 1.4841886464 -0.4393027426 -741.8971983667 0.2330735380 1.3192244386
0.5356304667 2.0049058457 0.0000000000 1.5218477834 -0.4093064091 -775.2636158283 0.2343588984 1.3180758507
0.5083078778 2.0158850820 0.0000000000 1.5575573748 -0.3765832071 -807.2078248328 0.2356769000 1.3171917660
0.4805483911 2.0259472795 0.0000000000 1.5910577773 -0.3412296419 -837.4421548832 0.2370237893 1.3165843481
0.4523970209 2.0350851531 0.0000000000 1.6220931089 -0.3033762757 -865.6800904187 0.2383948528 1.3162645412
0.4238987854 2.0432911866 0.0000000000 1.6504174547 -0.2631894969 -891.6437731112 0.2397846702 1.3162409871
0.3950987118 2.0505569304 0.0000000000 1.6758019184 -0.2208710716 -915.0722731523 0.2411872053 1.3165192963
0.3660416845 2.0568725980 0.0000000000 1.6980416679 -0.1766553261 -935.7297656046 0.2425957419 1.3171016204
0.3367721988 2.0622269592 0.0000000000 1.7169620164 -0.1308041405 -953.4125492654 0.2440027255 1.3179865243
0.3073341028 2.0666075187 0.0000000000 1.7324227300 -0.0836003467 -967.9539997144 0.2453995938 1.3191691489
0.2777703997 2.0700009199 0.0000000000 1.7443201546 -0.0353404135 -979.2270118041 0.2467766692 1.3206416011
0.2481231593 2.0723934610 0.0000000000 1.7525872509 0.0136726560 -987.1440697441 0.2481231595 1.3223934610
0.2184335510 2.0737715924 0.0000000000 1.7571920311 0.0631355277 -991.6555486569 0.2494272819 1.3244122736
0.1887419829 2.0741222838 0.0000000000 1.7581350629 0.1127495288 -992.7470364814 0.2506764921 1.3266839141
0.1590883111 2.0734331989 0.0000000000 1.7554466289 0.1622244860 -990.4363600387 0.2518577847 1.3291927642
0.1295120838 2.0716926766 0.0000000000 1.7491839027 0.2112816782 -984.7707139021 0.2529580267 1.3319216990
0.1000527878 2.0688895627 0.0000000000 1.7394282459 0.2596562178 -975.8239848505 0.2539642946 1.3348519287
0.0707500847 2.0650129592 0.0000000000 1.7262825679 0.3070990823 -963.6941711853 0.2548642002 1.3379627598
0.0416440326 2.0600519508 0.0000000000 1.7098686311 0.3533788996 -948.5007386762 0.2556462010 1.3412313390
0.0127752959 2.0539953480 0.0000000000 1.6903242151 0.3982834886 -930.3818001476 0.2562998979 1.3446324168
-0.0158146559 2.0468314573 0.0000000000 1.6678001081 0.4416211220 -909.4910958791 0.2568163222 1.3481381414
-0.0440833690 2.0385478582 0.0000000000 1.6424569409 0.4832214933 -885.9948224972 0.2571881996 1.3517178633
-0.0719872721 2.0291311350 0.0000000000 1.6144618708 0.5229364225 -860.0683698650 0.2574101697 1.3553378987
-0.0994816314 2.0185664567 0.0000000000 1.5839850862 0.5606404232 -831.8930721153 0.2574789135 1.3589611434
-0.1265206782 2.0068367771 0.0000000000 1.5511959143 0.5962314065 -801.6527974399 0.2573931088 1.3625463114
-0.1530580723 1.9939211198 0.0000000000 1.5162583386 0.6296323905 -769.5314119695 0.2571530464 1.3660462612
-0.1790480970 1.9797905787 0.0000000000 1.4793235205 0.6607955410 -735.7064159417 0.2567595147 1.3694040409
-0.2044486218 1.9643981111 0.0000000000 1.4405212769 0.6897175250 -700.3608170941 0.2562109129 1.3725427291
-0.2292281569 1.9476490614 0.0000000000 1.3999153195 0.7164686165 -663.6134235255 0.2554962717 1.3753360103
-0.2533801934 1.9293038754 0.0000000000 1.3575027892 0.7413890501 -625.8560328178 0.2545809855 1.3775109426
-0.2991147343 1.8916209271 0.0000000000 1.2696830408 0.7792578558 -544.9561455000 0.2526781988 1.3836597485
-0.3205449808 1.8725340154 0.0000000000 1.2256183887 0.7922514058 -503.6769588543 0.2517680705 1.3878095872
-0.3411351547 1.8520300173 0.0000000000 1.1807774524 0.8032864696 -462.1882277384 0.2507202275 1.3913704830
-0.3608088904 1.8303429612 0.0000000000 1.1353912295 0.8119972317 -420.5222581015 0.2495776477 1.3945353499
-0.3795064913 1.8075845748 0.0000000000 1.0896226683 0.8182559233 -378.7702186991 0.2483683676 1.3973734565
-0.3971806638 1.7838287598 0.0000000000 1.0436166926 0.8220014680 -337.0349512548 0.2471098021 1.3999149732
-0.4137915099 1.7591363855 0.0000000000 0.9975108358 0.8231993091 -295.4245039506 0.2458138036 1.4021758409
-0.4293041874 1.7335635960 0.0000000000 0.9514426806 0.8218273979 -254.0512695289 0.2444890491 1.4041661546
-0.4436879435 1.7071648221 0.0000000000 0.9055532890 0.8178716466 -213.0322735994 0.2431420516 1.4058932539
-0.4569156726 1.6799938439 0.0000000000 0.8599892758 0.8113247365 -172.4896875670 0.2417776436 1.4073628663
-0.4689636643 1.6521040828 0.0000000000 0.8149039927 0.8021865157 -132.5513336422 0.2403992670 1.4085794811
-0.4798114104 1.6235485956 0.0000000000 0.7704581160 0.7904652899 -93.3510911231 0.2390092015 1.4095464277
-0.4894414036 1.5943799840 0.0000000000 0.7268197509 0.7761797467 -55.0291499842 0.2376087959 1.4102658689
-0.4978388967 1.5646503190 0.0000000000 0.6841640796 0.7593613911 -17.7320380113 0.2361987373 1.4107388127
-0.5049915995 1.5344111274 0.0000000000 0.6426724855 0.7400573984 18.3876945575 0.2347793781 1.4109651850
-0.5108893104 1.5037134570 0.0000000000 0.6025310172 0.7183337455 53.1722859177 0.2333511245 1.4109439838
-0.5155235008 1.4726080201 0.0000000000 0.5639280293 0.6942783953 86.4602279121 0.2319148690 1.4106735113
-0.5188868874 1.4411454077 0.0000000000 0.5270508847 0.6680042099 118.0885043760 0.2304724314 1.4101516773
-0.5209730485 1.4093763656 0.0000000000 0.4920817133 0.6396511834 147.8956355637 0.2290269515 1.4093763659
-0.5217761406 1.3773521271 0.0000000000 0.4591923578 0.6093875417 175.7254493266 0.2275831782 1.4083458581
-0.5212907631 1.3451247997 0.0000000000 0.4285387690 0.5774092456 201.4313924188 0.2261476066 1.4070593091
-0.5195119905 1.3127478071 0.0000000000 0.4002551944 0.5439374525 224.8811219848 0.2247284442 1.4055172808
-0.5164355608 1.2802763799 0.0000000000 0.3744485505 0.5092134938 245.9610911614 0.2233354167 1.4037223230
-0.5120581808 1.2477680819 0.0000000000 0.3511934104 0.4734909207 264.5808531214 0.2219794532 1.4016795889
-0.5063778946 1.2152833428 0.0000000000 0.3305281068 0.4370242031 280.6768262286 0.2206723047 1.3993974585
-0.4993944670 1.1828859579 0.0000000000 0.3124525746 0.4000538229 294.2152654505 0.2194261448 1.3968881264
-0.4911097453 1.1506435009 0.0000000000 0.2969286499 0.3627879148 305.1941849431 0.2182531859 1.3941681032
-0.4815279785 1.1186275913 0.0000000000 0.2838836068 0.3253814389 313.6439360292 0.2171653374 1.3912585696