 TITLE = "Tecplot data"
 VARIABLES = "X", "Y", "Z" "U", "V", "p", "dispX", "dispY"
 ZONE SOLUTIONTIME=53.900000, NODES=26114 , ELEMENTS=25916, DATAPACKING=POINT, ZONETYPE=FEQUADRILATERAL
0.4283469739 0.2861974938 0.0000000000 0.0000000000 0.0000000000 -561.4152445938 0.0747935834 -0.0673558968
0.4283469742 -0.4209092872 0.0000000000 0.0000000000 0.0000000000 -896.0321516398 0.0747935834 -0.0673558968
-0.2787598073 0.2861974936 0.0000000000 0.0000000000 0.0000000000 167.1492182026 0.0747935834 -0.0673558968
-0.2787598070 -0.4209092876 0.0000000000 0.0000000000 0.0000000000 122.2314846591 0.0747935834 -0.0673558968
0.6037976915 0.4633186962 0.0000000000 -0.0210727205 0.4581493248 -642.2955594600 0.0734676056 -0.0670113897
0.6065459537 -0.5993562358 0.0000000000 0.7625228217 0.1091316720 -439.1726249418 0.0762158674 -0.0690261503
-0.4544870669 0.4618534554 0.0000000000 0.5566869511 0.5214929227 222.4737345729 0.0758430191 -0.0684766303
-0.4550002669 -0.5987453187 0.0000000000 0.9374787102 -0.4903438801 241.7332205452 0.0753298187 -0.0684152326
1.1342903241 0.9926134033 0.0000000000 1.1988789508 -0.7606434370 -649.6508847874 0.0736301524 -0.0680467686
1.1365413390 -1.1289050078 0.0000000000 1.0186046396 -0.2902289511 -195.1429508341 0.0758811664 -0.0682448368
-0.9845780195 0.9887151501 0.0000000000 0.8868528083 0.2384376747 199.4492959990 0.0760821526 -0.0719450214
-0.9848201390 -1.1320879610 0.0000000000 0.9424414132 -0.1687886280 161.0438385341 0.0758400323 -0.0714277887
4.2642146236 3.2406748541 0.0000000000 1.0787809379 0.0124784991 13.1905440812 0.0642146236 -0.0593251459
4.2748736888 -3.3590464124 0.0000000000 1.0272610330 0.0220582571 -2.5843777706 0.0748736888 -0.0590464124
20.0000000000 4.7000000000 0.0000000000 1.0083872227 0.0494452087 0.0410780022 0.0000000000 0.0000000000
20.0000000000 -4.7000000000 0.0000000000 1.0553669420 -0.0607006352 0.3810270575 0.0000000000 0.0000000000
-10.0000000000 15.0000000000 0.0000000000 1.0000000000 0.0000000000 70.2346485934 0.0000000000 0.0000000000
20.0000000000 15.0000000000 0.0000000000 1.0415942199 0.0000000000 0.0611323078 0.0000000000 0.0000000000
20.0000000000 -15.0000000000 0.0000000000 1.0410426921 0.0000000000 0.0233281096 0.0000000000 0.0000000000
-10.0000000000 -15.0000000000 0.0000000000 1.0000000000 0.0000000000 51.8107411933 0.0000000000 0.0000000000
0.4413195195 -0.4074422655 0.0000000000 0.0000000000 0.0000000000 -867.5732464329 0.0747935834 -0.0673558968
0.4537794452 -0.3934996022 0.0000000000 0.0000000000 0.0000000000 -822.0524777687 0.0747935834 -0.0673558968
0.4657093248 -0.3791007975 0.0000000000 0.0000000000 0.0000000000 -787.0499788491 0.0747935834 -0.0673558968
0.4770924735 -0.3642659894 0.0000000000 0.0000000000 0.0000000000 -749.6603915963 0.0747935834 -0.0673558968
0.4879129707 -0.3490159256 0.0000000000 0.0000000000 0.0000000000 -716.2654827592 0.0747935834 -0.0673558968
0.4981556832 -0.3333719348 0.0000000000 0.0000000000 0.0000000000 -684.1551252475 0.0747935834 -0.0673558968
0.5078062854 -0.3173558966 0.0000000000 0.0000000000 0.0000000000 -654.9138054143 0.0747935834 -0.0673558968
0.5168512803 -0.3009902107 0.0000000000 0.0000000000 0.0000000000 -627.9029563033 0.0747935834 -0.0673558968
0.5252780175 -0.2842977661 0.0000000000 0.0000000000 0.0000000000 -603.5045967633 0.0747935834 -0.0673558968
0.5330747114 -0.2673019087 0.0000000000 0.0000000000 0.0000000000 -581.5135904979 0.0747935834 -0.0673558968
0.5402304578 -0.2500264088 0.0000000000 0.0000000000 0.0000000000 -562.0115940161 0.0747935834 -0.0673558968
0.5467352486 -0.2324954276 0.0000000000 0.0000000000 0.0000000000 -544.8203558426 0.0747935834 -0.0673558968
0.5525799864 -0.2147334838 0.0000000000 0.0000000000 0.0000000000 -530.2184827994 0.0747935834 -0.0673558968
0.5577564966 -0.1967654192 0.0000000000 0.0000000000 0.0000000000 -517.1666684391 0.0747935834 -0.0673558968
0.5622575395 -0.1786163636 0.0000000000 0.0000000000 0.0000000000 -508.3087074573 0.0747935834 -0.0673558968
0.5660768200 -0.1603117002 0.0000000000 0.0000000000 0.0000000000 -498.1299286561 0.0747935834 -0.0673558968
0.5692089965 -0.1418770297 0.0000000000 0.0000000000 0.0000000000 -494.8348038238 0.0747935834 -0.0673558968
0.5716496884 -0.1233381347 0.0000000000 0.0000000000 0.0000000000 -489.9314595338 0.0747935834 -0.0673558968
0.5733954820 -0.1047209434 0.0000000000 0.0000000000 0.0000000000 -488.5668799665 0.0747935834 -0.0673558968
0.5744439358 -0.0860514938 0.0000000000 0.0000000000 0.0000000000 -488.3358926013 0.0747935834 -0.0673558968
0.5747935834 -0.0673558966 0.0000000000 0.0000000000 0.0000000000 -489.9195765724 0.0747935834 -0.0673558968
0.5744439358 -0.0486602995 0.0000000000 0.0000000000 0.0000000000 -492.8249657546 0.0747935834 -0.0673558968
0.5733954820 -0.0299908499 0.0000000000 0.0000000000 0.0000000000 -496.9213988499 0.0747935834 -0.0673558968
0.5716496883 -0.0113736586 0.0000000000 0.0000000000 0.0000000000 -501.9744429211 0.0747935834 -0.0673558968
0.5692089965 0.0071652364 0.0000000000 0.0000000000 0.0000000000 -507.7691250299 0.0747935834 -0.0673558968
0.5660768200 0.0255999069 0.0000000000 0.0000000000 0.0000000000 -514.0890500652 0.0747935834 -0.0673558968
0.5622575394 0.0439045703 0.0000000000 0.0000000000 0.0000000000 -520.7242249517 0.0747935834 -0.0673558968
0.5577564965 0.0620536259 0.0000000000 0.0000000000 0.0000000000 -527.4736438204 0.0747935834 -0.0673558968
0.5525799862 0.0800216905 0.0000000000 0.0000000000 0.0000000000 -534.1453696470 0.0747935834 -0.0673558968
0.5467352485 0.0977836343 0.0000000000 0.0000000000 0.0000000000 -540.5656156871 0.0747935834 -0.0673558968
0.5402304577 0.1153146155 0.0000000000 0.0000000000 0.0000000000 -546.5666540847 0.0747935834 -0.0673558968
0.5330747113 0.1325901154 0.0000000000 0.0000000000 0.0000000000 -552.0202505348 0.0747935834 -0.0673558968
0.5252780173 0.1495859728 0.0000000000 0.0000000000 0.0000000000 -556.7976978941 0.0747935834 -0.0673558968
0.5168512801 0.1662784174 0.0000000000 0.0000000000 0.0000000000 -560.7889822489 0.0747935834 -0.0673558968
0.5078062852 0.1826441032 0.0000000000 0.0000000000 0.0000000000 -563.9898850573 0.0747935834 -0.0673558968
0.4981556830 0.1986601415 0.0000000000 0.0000000000 0.0000000000 -566.1602514367 0.0747935834 -0.0673558968
0.4879129705 0.2143041323 0.0000000000 0.0000000000 0.0000000000 -567.8630412268 0.0747935834 -0.0673558968
0.4770924732 0.2295541960 0.0000000000 0.0000000000 0.0000000000 -568.1043586445 0.0747935834 -0.0673558968
0.4657093246 0.2443890041 0.0000000000 0.0000000000 0.0000000000 -567.6621234441 0.0747935834 -0.0673558968
0.4537794449 0.2587878088 0.0000000000 0.0000000000 0.0000000000 -566.4376175344 0.0747935834 -0.0673558968
0.4413195193 0.2727304721 0.0000000000 0.0000000000 0.0000000000 -564.0706430049 0.0747935834 -0.0673558968
0.4134343692 0.3005060585 0.0000000000 0.0000000000 0.0000000000 -556.9447558201 0.0747935834 -0.0673558968
0.3979432023 0.3141861373 0.0000000000 0.0000000000 0.0000000000 -552.0348017056 0.0747935834 -0.0673558968
0.3818999397 0.3272143579 0.0000000000 0.0000000000 0.0000000000 -545.9500602166 0.0747935834 -0.0673558968
0.3653319910 0.3395684618 0.0000000000 0.0000000000 0.0000000000 -539.1976235024 0.0747935834 -0.0673558968
0.3482676624 0.3512273423 0.0000000000 0.0000000000 0.0000000000 -531.5046201878 0.0747935834 -0.0673558968
0.3307361079 0.3621710804 0.0000000000 0.0000000000 0.0000000000 -523.0580568970 0.0747935834 -0.0673558968
0.3127672798 0.3723809788 0.0000000000 0.0000000000 0.0000000000 -513.7688794023 0.0747935834 -0.0673558968
0.2943918777 0.3818395941 0.0000000000 0.0000000000 0.0000000000 -503.7087785964 0.0747935834 -0.0673558968
0.2756412956 0.3905307665 0.0000000000 0.0000000000 0.0000000000 -492.8562543024 0.0747935834 -0.0673558968
0.2565475686 0.3984396472 0.0000000000 0.0000000000 0.0000000000 -481.2449112076 0.0747935834 -0.0673558968
0.2371433179 0.4055527240 0.0000000000 0.0000000000 0.0000000000 -468.8767516685 0.0747935834 -0.0673558968
0.2174616954 0.4118578444 0.0000000000 0.0000000000 0.0000000000 -455.7707251644 0.0747935834 -0.0673558968
0.1975363269 0.4173442361 0.0000000000 0.0000000000 0.0000000000 -441.9329083378 0.0747935834 -0.0673558968
0.1774012544 0.4220025258 0.0000000000 0.0000000000 0.0000000000 -427.3718461091 0.0747935834 -0.0673558968
0.1570908784 0.4258247549 0.0000000000 0.0000000000 0.0000000000 -412.0884102498 0.0747935834 -0.0673558968
0.1366398989 0.4288043930 0.0000000000 0.0000000000 0.0000000000 -396.0807031728 0.0747935834 -0.0673558968
0.1160832560 0.4309363497 0.0000000000 0.0000000000 0.0000000000 -379.3410648173 0.0747935834 -0.0673558968
0.0954560704 0.4322169824 0.0000000000 0.0000000000 0.0000000000 -361.8581199733 0.0747935834 -0.0673558968
0.0747935833 0.4326441032 0.0000000000 0.0000000000 0.0000000000 -343.6164182640 0.0747935834 -0.0673558968
0.0541310962 0.4322169823 0.0000000000 0.0000000000 0.0000000000 -324.5977600160 0.0747935834 -0.0673558968
0.0335039105 0.4309363496 0.0000000000 0.0000000000 0.0000000000 -304.7817456061 0.0747935834 -0.0673558968
0.0129472676 0.4288043930 0.0000000000 0.0000000000 0.0000000000 -284.1469298380 0.0747935834 -0.0673558968
-0.0075037119 0.4258247548 0.0000000000 0.0000000000 0.0000000000 -262.6715617090 0.0747935834 -0.0673558968
-0.0278140878 0.4220025258 0.0000000000 0.0000000000 0.0000000000 -240.3344054614 0.0747935834 -0.0673558968
-0.0479491603 0.4173442361 0.0000000000 0.0000000000 0.0000000000 -217.1155507002 0.0747935834 -0.0673558968
-0.0678745289 0.4118578443 0.0000000000 0.0000000000 0.0000000000 -192.9971652025 0.0747935834 -0.0673558968
-0.0875561513 0.4055527240 0.0000000000 0.0000000000 0.0000000000 -167.9641598543 0.0747935834 -0.0673558968
-0.1069604020 0.3984396471 0.0000000000 0.0000000000 0.0000000000 -142.0050962836 0.0747935834 -0.0673558968
-0.1260541291 0.3905307664 0.0000000000 0.0000000000 0.0000000000 -115.1127859665 0.0747935834 -0.0673558968
-0.1448047112 0.3818395940 0.0000000000 0.0000000000 0.0000000000 -87.2850329829 0.0747935834 -0.0673558968
-0.1631801132 0.3723809787 0.0000000000 0.0000000000 0.0000000000 -58.5254522949 0.0747935834 -0.0673558968
-0.1811489413 0.3621710803 0.0000000000 0.0000000000 0.0000000000 -28.8442949362 0.0747935834 -0.0673558968
-0.1986804958 0.3512273422 0.0000000000 0.0000000000 0.0000000000 1.7412477210 0.0747935834 -0.0673558968
-0.2157448244 0.3395684617 0.0000000000 0.0000000000 0.0000000000 33.2069377621 0.0747935834 -0.0673558968
-0.2323127731 0.3272143578 0.0000000000 0.0000000000 0.0000000000 65.5213053126 0.0747935834 -0.0673558968
-0.2483560357 0.3141861372 0.0000000000 0.0000000000 0.0000000000 98.6463828499 0.0747935834 -0.0673558968
-0.2638472025 0.3005060584 0.0000000000 0.0000000000 0.0000000000 132.5384927361 0.0747935834 -0.0673558968
-0.2930683721 0.2712848889 0.0000000000 0.0000000000 0.0000000000 202.4261286469 0.0747935834 -0.0673558968
-0.3067484508 0.2557937220 0.0000000000 0.0000000000 0.0000000000 238.3132744248 0.0747935834 -0.0673558968
-0.3197766714 0.2397504594 0.0000000000 0.0000000000 0.0000000000 274.7508461920 0.0747935834 -0.0673558968
-0.3321307753 0.2231825107 0.0000000000 0.0000000000 0.0000000000 311.6736619511 0.0747935834 -0.0673558968
-0.3437896558 0.2061181821 0.0000000000 0.0000000000 0.0000000000 349.0082129509 0.0747935834 -0.0673558968
-0.3547333939 0.1885866276 0.0000000000 0.0000000000 0.0000000000 386.6682158140 0.0747935834 -0.0673558968
-0.3649432923 0.1706177995 0.0000000000 0.0000000000 0.0000000000 424.5488552172 0.0747935834 -0.0673558968
-0.3744019076 0.1522423974 0.0000000000 0.0000000000 0.0000000000 462.5201684937 0.0747935834 -0.0673558968
-0.3830930800 0.1334918153 0.0000000000 0.0000000000 0.0000000000 500.4203498212 0.0747935834 -0.0673558968
-0.3910019607 0.1143980883 0.0000000000 0.0000000000 0.0000000000 538.0497404574 0.0747935834 -0.0673558968
-0.3981150375 0.0949938376 0.0000000000 0.0000000000 0.0000000000 575.1665817056 0.0747935834 -0.0673558968
-0.4044201579 0.0753122151 0.0000000000 0.0000000000 0.0000000000 611.4848633204 0.0747935834 -0.0673558968
-0.4099065496 0.0553868465 0.0000000000 0.0000000000 0.0000000000 646.6754346726 0.0747935834 -0.0673558968
-0.4145648393 0.0352517741 0.0000000000 0.0000000000 0.0000000000 680.3691307253 0.0747935834 -0.0673558968
-0.4183870683 0.0149413981 0.0000000000 0.0000000000 0.0000000000 712.1641497830 0.0747935834 -0.0673558968
-0.4213667065 -0.0055095814 0.0000000000 0.0000000000 0.0000000000 741.6326466792 0.0747935834 -0.0673558968
-0.4234986631 -0.0260662243 0.0000000000 0.0000000000 0.0000000000 768.3340603318 0.0747935834 -0.0673558968
-0.4247792958 -0.0466934099 0.0000000000 0.0000000000 0.0000000000 791.8197006220 0.0747935834 -0.0673558968
-0.4252064166 -0.0673558971 0.0000000000 0.0000000000 0.0000000000 811.6543122529 0.0747935834 -0.0673558968
-0.4247792958 -0.0880183842 0.0000000000 0.0000000000 0.0000000000 827.4070981971 0.0747935834 -0.0673558968
-0.4234986631 -0.1086455698 0.0000000000 0.0000000000 0.0000000000 838.6950282442 0.0747935834 -0.0673558968
-0.4213667065 -0.1292022127 0.0000000000 0.0000000000 0.0000000000 845.1312332481 0.0747935834 -0.0673558968
-0.4183870683 -0.1496531922 0.0000000000 0.0000000000 0.0000000000 846.4371380444 0.0747935834 -0.0673558968
-0.4145648392 -0.1699635682 0.0000000000 0.0000000000 0.0000000000 842.2635268865 0.0747935834 -0.0673558968
-0.4099065495 -0.1900986406 0.0000000000 0.0000000000 0.0000000000 832.5190345490 0.0747935834 -0.0673558968
-0.4044201578 -0.2100240092 0.0000000000 0.0000000000 0.0000000000 816.8047743054 0.0747935834 -0.0673558968
-0.3981150374 -0.2297056317 0.0000000000 0.0000000000 0.0000000000 795.4164084099 0.0747935834 -0.0673558968
-0.3910019606 -0.2491098823 0.0000000000 0.0000000000 0.0000000000 767.5843987004 0.0747935834 -0.0673558968
-0.3830930798 -0.2682036094 0.0000000000 0.0000000000 0.0000000000 734.5889186931 0.0747935834 -0.0673558968
-0.3744019075 -0.2869541915 0.0000000000 0.0000000000 0.0000000000 694.2245283638 0.0747935834 -0.0673558968
-0.3649432921 -0.3053295936 0.0000000000 0.0000000000 0.0000000000 650.7113700173 0.0747935834 -0.0673558968
-0.3547333937 -0.3232984216 0.0000000000 0.0000000000 0.0000000000 596.7665301089 0.0747935834 -0.0673558968
-0.3437896556 -0.3408299761 0.0000000000 0.0000000000 0.0000000000 546.4629543511 0.0747935834 -0.0673558968
-0.3321307751 -0.3578943047 0.0000000000 0.0000000000 0.0000000000 474.0525045288 0.0747935834 -0.0673558968
-0.3197766712 -0.3744622534 0.0000000000 0.0000000000 0.0000000000 429.5731652999 0.0747935834 -0.0673558968
-0.3067484505 -0.3905055160 0.0000000000 0.0000000000 0.0000000000 319.0246371902 0.0747935834 -0.0673558968
-0.2930683718 -0.4059966828 0.0000000000 0.0000000000 0.0000000000 324.3192431897 0.0747935834 -0.0673558968
-0.2638472022 -0.4352178524 0.0000000000 0.0000000000 0.0000000000 183.6258395577 0.0747935834 -0.0673558968
-0.2483560353 -0.4488979311 0.0000000000 0.0000000000 0.0000000000 -19.7354100777 0.0747935834 -0.0673558968
-0.2323127727 -0.4619261517 0.0000000000 0.0000000000 0.0000000000 -32.7316257978 0.0747935834 -0.0673558968
-0.2157448241 -0.4742802556 0.0000000000 0.0000000000 0.0000000000 -161.3477602337 0.0747935834 -0.0673558968
-0.1986804954 -0.4859391361 0.0000000000 0.0000000000 0.0000000000 -223.5044805440 0.0747935834 -0.0673558968
-0.1811489409 -0.4968828742 0.0000000000 0.0000000000 0.0000000000 -324.9765681253 0.0747935834 -0.0673558968
-0.1631801129 -0.5070927726 0.0000000000 0.0000000000 0.0000000000 -402.8367326639 0.0747935834 -0.0673558968
-0.1448047108 -0.5165513879 0.0000000000 0.0000000000 0.0000000000 -493.4231709533 0.0747935834 -0.0673558968
-0.1260541287 -0.5252425603 0.0000000000 0.0000000000 0.0000000000 -573.9795821332 0.0747935834 -0.0673558968
-0.1069604016 -0.5331514410 0.0000000000 0.0000000000 0.0000000000 -657.3242158276 0.0747935834 -0.0673558968
-0.0875561509 -0.5402645178 0.0000000000 0.0000000000 0.0000000000 -734.7034462013 0.0747935834 -0.0673558968
-0.0678745285 -0.5465696382 0.0000000000 0.0000000000 0.0000000000 -810.5786732547 0.0747935834 -0.0673558968
-0.0479491599 -0.5520560299 0.0000000000 0.0000000000 0.0000000000 -881.3564408414 0.0747935834 -0.0673558968
-0.0278140874 -0.5567143196 0.0000000000 0.0000000000 0.0000000000 -948.4362364091 0.0747935834 -0.0673558968
-0.0075037115 -0.5605365486 0.0000000000 0.0000000000 0.0000000000 -1010.2080822270 0.0747935834 -0.0673558968
0.0129472680 -0.5635161868 0.0000000000 0.0000000000 0.0000000000 -1066.9833495357 0.0747935834 -0.0673558968
0.0335039110 -0.5656481434 0.0000000000 0.0000000000 0.0000000000 -1117.9701981627 0.0747935834 -0.0673558968
0.0541310966 -0.5669287761 0.0000000000 0.0000000000 0.0000000000 -1163.1335640997 0.0747935834 -0.0673558968
0.0747935837 -0.5673558968 0.0000000000 0.0000000000 0.0000000000 -1202.0636405406 0.0747935834 -0.0673558968
0.0954560708 -0.5669287760 0.0000000000 0.0000000000 0.0000000000 -1234.6742515814 0.0747935834 -0.0673558968
0.1160832564 -0.5656481433 0.0000000000 0.0000000000 0.0000000000 -1260.7854882897 0.0747935834 -0.0673558968
0.1366398993 -0.5635161867 0.0000000000 0.0000000000 0.0000000000 -1280.3723690186 0.0747935834 -0.0673558968
0.1570908788 -0.5605365485 0.0000000000 0.0000000000 0.0000000000 -1293.4252279958 0.0747935834 -0.0673558968
0.1774012548 -0.5567143194 0.0000000000 0.0000000000 0.0000000000 -1300.0423094185 0.0747935834 -0.0673558968
0.1975363273 -0.5520560297 0.0000000000 0.0000000000 0.0000000000 -1300.3700068286 0.0747935834 -0.0673558968
0.2174616958 -0.5465696380 0.0000000000 0.0000000000 0.0000000000 -1294.6366286486 0.0747935834 -0.0673558968
0.2371433183 -0.5402645176 0.0000000000 0.0000000000 0.0000000000 -1283.1302946348 0.0747935834 -0.0673558968
0.2565475690 -0.5331514408 0.0000000000 0.0000000000 0.0000000000 -1266.1951922074 0.0747935834 -0.0673558968
0.2756412960 -0.5252425600 0.0000000000 0.0000000000 0.0000000000 -1244.2239861314 0.0747935834 -0.0673558968
0.2943918781 -0.5165513876 0.0000000000 0.0000000000 0.0000000000 -1217.6699901019 0.0747935834 -0.0673558968
0.3127672802 -0.5070927723 0.0000000000 0.0000000000 0.0000000000 -1187.0015269690 0.0747935834 -0.0673558968
0.3307361082 -0.4968828739 0.0000000000 0.0000000000 0.0000000000 -1152.7316815064 0.0747935834 -0.0673558968
0.3482676627 -0.4859391358 0.0000000000 0.0000000000 0.0000000000 -1115.3934133364 0.0747935834 -0.0673558968
0.3653319914 -0.4742802553 0.0000000000 0.0000000000 0.0000000000 -1075.4107737861 0.0747935834 -0.0673558968
0.3818999400 -0.4619261513 0.0000000000 0.0000000000 0.0000000000 -1033.9296745182 0.0747935834 -0.0673558968
0.3979432026 -0.4488979307 0.0000000000 0.0000000000 0.0000000000 -989.3724330137 0.0747935834 -0.0673558968
0.4134343695 -0.4352178519 0.0000000000 0.0000000000 0.0000000000 -949.5619302543 0.0747935834 -0.0673558968
0.6258332913 -0.5790766050 0.0000000000 0.7259812755 0.1022276946 -427.8966139292 0.0760443870 -0.0689470521
0.6444315537 -0.5581732863 0.0000000000 0.6872293598 0.0971721571 -417.3932659828 0.0759527610 -0.0689577283
0.6622453910 -0.5366030781 0.0000000000 0.6459644468 0.0947495978 -407.9300676597 0.0758717789 -0.0689857271
0.6792367790 -0.5143826603 0.0000000000 0.6020816827 0.0954025988 -399.6417834901 0.0757884438 -0.0690175215
0.6953774466 -0.4915387274 0.0000000000 0.5556916687 0.0992753339 -392.5825531466 0.0756983656 -0.0690486843
0.7106430127 -0.4681016343 0.0000000000 0.5071347916 0.1062161666 -386.7355936170 0.0755998630 -0.0690775773
0.7250115960 -0.4441036551 0.0000000000 0.4569730209 0.1158001246 -382.0269694559 0.0754925429 -0.0691036555
0.7384633277 -0.4195783054 0.0000000000 0.4059571076 0.1273739291 -378.3439121840 0.0753767823 -0.0691268345
0.7509800976 -0.3945600109 0.0000000000 0.3549709244 0.1401220585 -375.5572710043 0.0752534465 -0.0691472070
0.7625453951 -0.3690839231 0.0000000000 0.3049575574 0.1531494791 -373.5447864971 0.0751237030 -0.0691649052
0.7731442068 -0.3431858030 0.0000000000 0.2568352345 0.1655734371 -372.2115538612 0.0749888952 -0.0691800351
0.7827629565 -0.3169019396 0.0000000000 0.2114137976 0.1766136479 -371.5042855153 0.0748504586 -0.0691926435
0.7913894691 -0.2902690819 0.0000000000 0.1693231076 0.1856692379 -371.4172590475 0.0747098647 -0.0692027014
0.7990129499 -0.2633243778 0.0000000000 0.1309631588 0.1923726343 -371.9897461859 0.0745685801 -0.0692100943
0.8056239694 -0.2361053173 0.0000000000 0.0964823712 0.1966145947 -373.2966684409 0.0744280351 -0.0692146172
0.8112144521 -0.2086496785 0.0000000000 0.0657863860 0.1985393176 -375.4355542220 0.0742895971 -0.0692159735
0.8157776687 -0.1809954777 0.0000000000 0.0385752971 0.1985129485 -378.5131712276 0.0741545490 -0.0692137784
0.8193082289 -0.1531809226 0.0000000000 0.0144028762 0.1970722677 -382.6344884155 0.0740240714 -0.0692075659
0.8218020775 -0.1252443707 0.0000000000 -0.0072523872 0.1948626940 -387.8952891302 0.0738992296 -0.0691968009
0.8232564924 -0.0972242910 0.0000000000 -0.0269165474 0.1925756094 -394.3783893401 0.0737809638 -0.0691808956
0.8236700839 -0.0691592300 0.0000000000 -0.0450608393 0.1908939683 -402.1524662039 0.0736700839 -0.0691592303
0.8230427954 -0.0410877800 0.0000000000 -0.0620606672 0.1904521689 -411.2721081676 0.0735672669 -0.0691311760
0.8213759070 -0.0130485509 0.0000000000 -0.0781742670 0.1918120008 -421.7777084065 0.0734730591 -0.0690961214
0.8186720393 0.0149198578 0.0000000000 -0.0935375259 0.1954524757 -433.6940065533 0.0733878819 -0.0690534995
0.8149351609 0.0427788845 0.0000000000 -0.1081691832 0.2017687270 -447.0263143718 0.0733120413 -0.0690028154
0.8101705977 0.0704900338 0.0000000000 -0.1219811590 0.2110744075 -461.7537553071 0.0732457428 -0.0689436719
0.8043850433 0.0980149073 0.0000000000 -0.1347908909 0.2236027393 -477.8192652143 0.0731891093 -0.0688757934
0.7975865728 0.1253152390 0.0000000000 -0.1463348118 0.2395027295 -495.1166485403 0.0731422032 -0.0687990450
0.7897846552 0.1523529363 0.0000000000 -0.1562835542 0.2588282943 -513.4756075874 0.0731050509 -0.0687134447
0.7809901666 0.1790901286 0.0000000000 -0.1642599940 0.2815187489 -532.6463059473 0.0730776689 -0.0686191680
0.7712154002 0.2054892273 0.0000000000 -0.1698611357 0.3073693340 -552.2856704588 0.0730600888 -0.0685165411
0.7604740706 0.2315129966 0.0000000000 -0.1726843895 0.3359904138 -571.9482806183 0.0730523787 -0.0684060218
0.7487813056 0.2571246380 0.0000000000 -0.1723581131 0.3667541612 -591.0853223732 0.0730546547 -0.0682881665
0.7361536164 0.2822878881 0.0000000000 -0.1685754297 0.3987287694 -609.0556227224 0.0730670713 -0.0681635832
0.7226088331 0.3069671226 0.0000000000 -0.1611293402 0.4306039267 -625.1530484496 0.0730897803 -0.0680328776
0.7081659919 0.3311274563 0.0000000000 -0.1499461255 0.4606194345 -638.6541314273 0.0731228425 -0.0678966012
0.6928451718 0.3547348164 0.0000000000 -0.1351130521 0.4865230168 -648.8878405165 0.0731660911 -0.0677552273
0.6766672911 0.3777559578 0.0000000000 -0.1168953227 0.5056024521 -655.3247522861 0.0732189563 -0.0676091815
0.6596538671 0.4001583806 0.0000000000 -0.0957363975 0.5148536715 -657.6744177069 0.0732802553 -0.0674589709
0.6418265977 0.4219100248 0.0000000000 -0.0722344509 0.5113447468 -655.9684458165 0.0733478054 -0.0673055337
0.6232062493 0.4429785072 0.0000000000 -0.0470843358 0.4927966119 -650.6010158821 0.0734173454 -0.0671510462
0.5814931815 0.4849401950 0.0000000000 0.0079841642 0.4028242348 -630.7958026898 0.0735320028 -0.0668527381
0.5583169643 0.5055861763 0.0000000000 0.0366155422 0.3341378402 -617.9776463486 0.0735925360 -0.0667268749
0.5343243748 0.5252428281 0.0000000000 0.0643079832 0.2595893085 -604.8334196934 0.0736648403 -0.0666125540
0.5095562686 0.5438796129 0.0000000000 0.0906451612 0.1872732263 -591.8565151665 0.0737486571 -0.0665069251
0.4840535321 0.5614660231 0.0000000000 0.1151786835 0.1236879602 -579.1212090903 0.0738424136 -0.0664088357
0.4578578045 0.5779722991 0.0000000000 0.1374074677 0.0723446236 -566.4358411283 0.0739440178 -0.0663181667
0.4310118823 0.5933698847 0.0000000000 0.1569125041 0.0338272105 -553.5240789830 0.0740513377 -0.0662354287
0.4035598333 0.6076317286 0.0000000000 0.1735411938 0.0068637520 -540.1691974438 0.0741623918 -0.0661615079
0.3755469877 0.6207325369 0.0000000000 0.1874968820 -0.0104945990 -526.2821373178 0.0742754194 -0.0660974581
0.3470198669 0.6326489571 0.0000000000 0.1992870246 -0.0201453791 -511.8908766678 0.0743888891 -0.0660443590
0.3180260910 0.6433597001 0.0000000000 0.2095888070 -0.0236728715 -497.0856398644 0.0745014892 -0.0660032312
0.2886142854 0.6528456237 0.0000000000 0.2191148324 -0.0223299302 -481.9609990361 0.0746121173 -0.0659749881
0.2588339920 0.6610897977 0.0000000000 0.2285268897 -0.0170837894 -466.5771480052 0.0747198768 -0.0659604018
0.2287355837 0.6680775580 0.0000000000 0.2384062245 -0.0086522174 -450.9434355162 0.0748240772 -0.0659600760
0.1983701760 0.6737965540 0.0000000000 0.2492677010 0.0024821969 -435.0180537507 0.0749242335 -0.0659744235
0.1677895345 0.6782367831 0.0000000000 0.2616001128 0.0160742782 -418.7160587027 0.0750200612 -0.0660036518
0.1370459722 0.6813906136 0.0000000000 0.2759157754 0.0321294256 -401.9194675037 0.0751114632 -0.0660477562
0.1061922374 0.6832527960 0.0000000000 0.2927920424 0.0509220501 -384.4857622191 0.0751985069 -0.0661065228
0.0752813914 0.6838204638 0.0000000000 0.3128832040 0.0730070239 -366.2537316489 0.0752813915 -0.0661795362
0.0443666777 0.6830931284 0.0000000000 0.3368764942 0.0991989079 -347.0478605295 0.0753604086 -0.0662661904
0.0135013869 0.6810726705 0.0000000000 0.3653686430 0.1304813776 -326.6842492410 0.0754358961 -0.0663656992
-0.0172612813 0.6777633285 0.0000000000 0.3986591123 0.1678109025 -304.9814542520 0.0755081923 -0.0664771062
-0.0478683534 0.6731716842 0.0000000000 0.4364959966 0.2118081433 -281.7768514700 0.0755775895 -0.0665992933
-0.0782672150 0.6673066437 0.0000000000 0.4778575695 0.2623887479 -256.9429173761 0.0756442919 -0.0667309903
-0.1084057369 0.6601794130 0.0000000000 0.5208767589 0.3184485467 -230.3938147835 0.0757083786 -0.0668707864
-0.1382323960 0.6518034669 0.0000000000 0.5629887068 0.3777436418 -202.0792163267 0.0757697723 -0.0670171449
-0.1676963880 0.6421945118 0.0000000000 0.6013026872 0.4370615639 -171.9770504810 0.0758282141 -0.0671684194
-0.1967477341 0.6313704435 0.0000000000 0.6331061408 0.4926763463 -140.1027471664 0.0758832440 -0.0673228724
-0.2253373807 0.6193513030 0.0000000000 0.6563515105 0.5409702579 -106.5382959426 0.0759341880 -0.0674786919
-0.2534172949 0.6061592317 0.0000000000 0.6699846516 0.5790443978 -71.4630612080 0.0759801469 -0.0676340047
-0.2809405582 0.5918184322 0.0000000000 0.6740366929 0.6051526996 -35.1625946042 0.0760199867 -0.0677868811
-0.3078614712 0.5763551448 0.0000000000 0.6694837263 0.6188629725 1.9938871914 0.0760523158 -0.0679353208
-0.3341356911 0.5597976612 0.0000000000 0.6579450545 0.6209383406 39.5979607255 0.0760754277 -0.0680771974
-0.3597204668 0.5421764354 0.0000000000 0.6413216828 0.6130090162 77.2508148531 0.0760871449 -0.0682101024
-0.3845751535 0.5235244698 0.0000000000 0.6214709151 0.5971470268 114.6025631621 0.0760843812 -0.0683309121
-0.4086626856 0.5038786735 0.0000000000 0.5999818531 0.5754593206 151.3749344291 0.0760617429 -0.0684343775
-0.4319549961 0.4832853779 0.0000000000 0.5780778143 0.5497788333 187.3731500089 0.0760061828 -0.0685075549
-0.4758647314 0.4392384153 0.0000000000 0.5357775420 0.4918265138 256.5229914391 0.0759282018 -0.0687227632
-0.4964061778 0.4158477347 0.0000000000 0.5161635750 0.4610842339 289.5925950366 0.0759068735 -0.0688766935
-0.5160040219 0.3916541798 0.0000000000 0.4978888604 0.4296208856 321.6237719529 0.0758513603 -0.0690053545
-0.5346123190 0.3666889337 0.0000000000 0.4810225995 0.3975707010 352.5855465941 0.0757742191 -0.0691186776
-0.5521944530 0.3409906343 0.0000000000 0.4656120532 0.3649769424 382.4420770454 0.0756804059 -0.0692204840
-0.5687176446 0.3146009726 0.0000000000 0.4517024381 0.3318493717 411.1454680036 0.0755728213 -0.0693128140
-0.5841515742 0.2875635300 0.0000000000 0.4393433661 0.2981970345 438.6339308649 0.0754537393 -0.0693970145
-0.5984679924 0.2599233758 0.0000000000 0.4285901667 0.2640419402 464.8326284724 0.0753252441 -0.0694740656
-0.6116406145 0.2317268749 0.0000000000 0.4195023738 0.2294225272 489.6555539194 0.0751893806 -0.0695446933
-0.6236451151 0.2030215674 0.0000000000 0.4121415543 0.1943926750 513.0076302883 0.0750482010 -0.0696094103
-0.6344591644 0.1738560721 0.0000000000 0.4065692092 0.1590196123 534.7866758550 0.0749037669 -0.0696685296
-0.6440624801 0.1442799951 0.0000000000 0.4028448854 0.1233821410 554.8851774584 0.0747581318 -0.0697221728
-0.6524368855 0.1143438375 0.0000000000 0.4010244119 0.0875694980 573.1919453524 0.0746133140 -0.0697702776
-0.6595663660 0.0840988972 0.0000000000 0.4011581882 0.0516806978 589.5937490392 0.0744712681 -0.0698126092
-0.6654371202 0.0535971650 0.0000000000 0.4032895379 0.0158240978 603.9770095777 0.0743338574 -0.0698487774
-0.6700376034 0.0228912140 0.0000000000 0.4074532170 -0.0198830294 616.2295858886 0.0742028315 -0.0698782592
-0.6733585601 -0.0079659192 0.0000000000 0.4136741955 -0.0553150522 626.2426559748 0.0740798097 -0.0699004280
-0.6753930477 -0.0389208597 0.0000000000 0.4219668042 -0.0903387448 633.9126612286 0.0739662711 -0.0699145901
-0.6761364496 -0.0699200270 0.0000000000 0.4323342552 -0.1248143065 639.1432522300 0.0738635504 -0.0699200267
-0.6755864798 -0.1009097732 0.0000000000 0.4447684389 -0.1585966564 641.8471505125 0.0737728389 -0.0699160422
-0.6737431792 -0.1318365242 0.0000000000 0.4592498059 -0.1915369863 641.9478312131 0.0736951905 -0.0699020148
-0.6706089013 -0.1626469226 0.0000000000 0.4757471126 -0.2234844999 639.3809466509 0.0736315334 -0.0698774488
-0.6661882872 -0.1932879682 0.0000000000 0.4942168785 -0.2542882117 634.0954543815 0.0735826903 -0.0698420251
-0.6604882233 -0.2237071540 0.0000000000 0.5146025687 -0.2837986492 626.0544746476 0.0735494107 -0.0697956470