 TITLE = "Tecplot data"
 VARIABLES = "X", "Y", "Z" "U", "V", "p", "dispX", "dispY"
 ZONE SOLUTIONTIME=10.900000, NODES=26114 , ELEMENTS=25916, DATAPACKING=POINT, ZONETYPE=FEQUADRILATERAL
0.4245067932 0.3529946315 0.0000000000 0.0000000000 0.0000000000 -284.0896899838 0.0709534027 -0.0005587592
0.4245067935 -0.3541121495 0.0000000000 0.0000000000 0.0000000000 -279.1773063864 0.0709534027 -0.0005587592
-0.2825999880 0.3529946313 0.0000000000 0.0000000000 0.0000000000 -95.4658925267 0.0709534027 -0.0005587592
-0.2825999878 -0.3541121499 0.0000000000 0.0000000000 0.0000000000 -110.5734175921 0.0709534027 -0.0005587592
0.6000732009 0.5300316108 0.0000000000 0.0832556577 0.1024288277 -273.3708695450 0.0697431150 -0.0002984751
0.6031031902 -0.5302766798 0.0000000000 0.0835555151 -0.0999012191 -267.9639031686 0.0727731039 0.0000534058
-0.4574209235 0.5304719280 0.0000000000 0.8257387377 0.5009499694 65.2316635434 0.0729091626 0.0001418423
-0.4594295898 -0.5308347397 0.0000000000 0.8246637559 -0.4992100138 67.7622096413 0.0709004958 -0.0005046535
1.1315470607 1.0602701671 0.0000000000 1.3096358647 0.1046324792 -320.4131863889 0.0708868891 -0.0003900048
1.1321260462 -1.0603384172 0.0000000000 1.3067822860 -0.1104034874 -315.9756634057 0.0714658736 0.0003217538
-0.9857497134 1.0617080571 0.0000000000 0.9300232717 0.1856283790 82.6820299258 0.0749104587 0.0010478856
-0.9904470289 -1.0604989892 0.0000000000 0.9293119262 -0.1846402565 83.7882675992 0.0702131423 0.0001611831
4.2671310567 3.3000018871 0.0000000000 1.0318576552 -0.0539501925 -26.6012163936 0.0671310567 0.0000018871
4.2649301408 -3.2999028867 0.0000000000 1.0315909512 0.0541588440 -26.7642524780 0.0649301408 0.0000971133
20.0000000000 4.7000000000 0.0000000000 0.9995435047 -0.0013250457 0.0032162831 0.0000000000 0.0000000000
20.0000000000 -4.7000000000 0.0000000000 0.9995414671 0.0013210817 0.0035133059 0.0000000000 0.0000000000
-10.0000000000 15.0000000000 0.0000000000 1.0000000000 0.0000000000 5.8860504487 0.0000000000 0.0000000000
20.0000000000 15.0000000000 0.0000000000 1.0008336930 0.0000000000 0.0003705883 0.0000000000 0.0000000000
20.0000000000 -15.0000000000 0.0000000000 1.0008325860 0.0000000000 0.0005989515 0.0000000000 0.0000000000
-10.0000000000 -15.0000000000 0.0000000000 1.0000000000 0.0000000000 5.9964601384 0.0000000000 0.0000000000
0.4374793388 -0.3406451278 0.0000000000 0.0000000000 0.0000000000 -278.8196659653 0.0709534027 -0.0005587592
0.4499392645 -0.3267024645 0.0000000000 0.0000000000 0.0000000000 -279.8237381392 0.0709534027 -0.0005587592
0.4618691441 -0.3123036598 0.0000000000 0.0000000000 0.0000000000 -280.0238408233 0.0709534027 -0.0005587592
0.4732522927 -0.2974688517 0.0000000000 0.0000000000 0.0000000000 -280.2608935120 0.0709534027 -0.0005587592
0.4840727900 -0.2822187879 0.0000000000 0.0000000000 0.0000000000 -279.9537200549 0.0709534027 -0.0005587592
0.4943155024 -0.2665747972 0.0000000000 0.0000000000 0.0000000000 -279.1995975803 0.0709534027 -0.0005587592
0.5039661047 -0.2505587589 0.0000000000 0.0000000000 0.0000000000 -277.8012365384 0.0709534027 -0.0005587592
0.5130110996 -0.2341930730 0.0000000000 0.0000000000 0.0000000000 -275.7231962011 0.0709534027 -0.0005587592
0.5214378367 -0.2175006285 0.0000000000 0.0000000000 0.0000000000 -272.8918901859 0.0709534027 -0.0005587592
0.5292345307 -0.2005047711 0.0000000000 0.0000000000 0.0000000000 -269.3123740170 0.0709534027 -0.0005587592
0.5363902771 -0.1832292711 0.0000000000 0.0000000000 0.0000000000 -264.9923413711 0.0709534027 -0.0005587592
0.5428950679 -0.1656982899 0.0000000000 0.0000000000 0.0000000000 -260.1236463575 0.0709534027 -0.0005587592
0.5487398056 -0.1479363461 0.0000000000 0.0000000000 0.0000000000 -254.5130810866 0.0709534027 -0.0005587592
0.5539163159 -0.1299682815 0.0000000000 0.0000000000 0.0000000000 -249.6207723744 0.0709534027 -0.0005587592
0.5584173588 -0.1118192259 0.0000000000 0.0000000000 0.0000000000 -242.2353720333 0.0709534027 -0.0005587592
0.5622366393 -0.0935145625 0.0000000000 0.0000000000 0.0000000000 -237.4547191077 0.0709534027 -0.0005587592
0.5653688158 -0.0750798920 0.0000000000 0.0000000000 0.0000000000 -232.9333997644 0.0709534027 -0.0005587592
0.5678095076 -0.0565409970 0.0000000000 0.0000000000 0.0000000000 -228.8396678650 0.0709534027 -0.0005587592
0.5695553013 -0.0379238057 0.0000000000 0.0000000000 0.0000000000 -225.8561627332 0.0709534027 -0.0005587592
0.5706037551 -0.0192543561 0.0000000000 0.0000000000 0.0000000000 -224.1710955805 0.0709534027 -0.0005587592
0.5709534027 -0.0005587590 0.0000000000 0.0000000000 0.0000000000 -223.8358708184 0.0709534027 -0.0005587592
0.5706037550 0.0181368382 0.0000000000 0.0000000000 0.0000000000 -224.9287517697 0.0709534027 -0.0005587592
0.5695553012 0.0368062878 0.0000000000 0.0000000000 0.0000000000 -227.3797001717 0.0709534027 -0.0005587592
0.5678095076 0.0554234791 0.0000000000 0.0000000000 0.0000000000 -231.0627110611 0.0709534027 -0.0005587592
0.5653688157 0.0739623741 0.0000000000 0.0000000000 0.0000000000 -235.7727230918 0.0709534027 -0.0005587592
0.5622366392 0.0923970446 0.0000000000 0.0000000000 0.0000000000 -241.2544966988 0.0709534027 -0.0005587592
0.5584173587 0.1107017080 0.0000000000 0.0000000000 0.0000000000 -247.2208849302 0.0709534027 -0.0005587592
0.5539163158 0.1288507635 0.0000000000 0.0000000000 0.0000000000 -253.3760233727 0.0709534027 -0.0005587592
0.5487398055 0.1468188282 0.0000000000 0.0000000000 0.0000000000 -259.4369527617 0.0709534027 -0.0005587592
0.5428950678 0.1645807719 0.0000000000 0.0000000000 0.0000000000 -265.1552021572 0.0709534027 -0.0005587592
0.5363902769 0.1821117531 0.0000000000 0.0000000000 0.0000000000 -270.3266717995 0.0709534027 -0.0005587592
0.5292345305 0.1993872531 0.0000000000 0.0000000000 0.0000000000 -274.8095528171 0.0709534027 -0.0005587592
0.5214378366 0.2163831105 0.0000000000 0.0000000000 0.0000000000 -278.5109825019 0.0709534027 -0.0005587592
0.5130110994 0.2330755551 0.0000000000 0.0000000000 0.0000000000 -281.4129171584 0.0709534027 -0.0005587592
0.5039661045 0.2494412409 0.0000000000 0.0000000000 0.0000000000 -283.5152291402 0.0709534027 -0.0005587592
0.4943155022 0.2654572792 0.0000000000 0.0000000000 0.0000000000 -284.9107218151 0.0709534027 -0.0005587592
0.4840727898 0.2811012699 0.0000000000 0.0000000000 0.0000000000 -285.6256837202 0.0709534027 -0.0005587592
0.4732522925 0.2963513337 0.0000000000 0.0000000000 0.0000000000 -285.8881612973 0.0709534027 -0.0005587592
0.4618691438 0.3111861418 0.0000000000 0.0000000000 0.0000000000 -285.5658485588 0.0709534027 -0.0005587592
0.4499392642 0.3255849465 0.0000000000 0.0000000000 0.0000000000 -285.2512317086 0.0709534027 -0.0005587592
0.4374793385 0.3395276098 0.0000000000 0.0000000000 0.0000000000 -284.2679530648 0.0709534027 -0.0005587592
0.4095941884 0.3673031962 0.0000000000 0.0000000000 0.0000000000 -283.1275632502 0.0709534027 -0.0005587592
0.3941030215 0.3809832750 0.0000000000 0.0000000000 0.0000000000 -282.6907016679 0.0709534027 -0.0005587592
0.3780597590 0.3940114956 0.0000000000 0.0000000000 0.0000000000 -284.7773054836 0.0709534027 -0.0005587592
0.3614918103 0.4063655995 0.0000000000 0.0000000000 0.0000000000 -284.0678829964 0.0709534027 -0.0005587592
0.3444274817 0.4180244800 0.0000000000 0.0000000000 0.0000000000 -286.8403938504 0.0709534027 -0.0005587592
0.3268959271 0.4289682181 0.0000000000 0.0000000000 0.0000000000 -289.2007505825 0.0709534027 -0.0005587592
0.3089270991 0.4391781165 0.0000000000 0.0000000000 0.0000000000 -292.7035118376 0.0709534027 -0.0005587592
0.2905516970 0.4486367318 0.0000000000 0.0000000000 0.0000000000 -296.8515288022 0.0709534027 -0.0005587592
0.2718011149 0.4573279042 0.0000000000 0.0000000000 0.0000000000 -301.7201008397 0.0709534027 -0.0005587592
0.2527073879 0.4652367849 0.0000000000 0.0000000000 0.0000000000 -307.2886084120 0.0709534027 -0.0005587592
0.2333031372 0.4723498617 0.0000000000 0.0000000000 0.0000000000 -313.5608773338 0.0709534027 -0.0005587592
0.2136215147 0.4786549821 0.0000000000 0.0000000000 0.0000000000 -320.5443578315 0.0709534027 -0.0005587592
0.1936961461 0.4841413738 0.0000000000 0.0000000000 0.0000000000 -328.2139180116 0.0709534027 -0.0005587592
0.1735610737 0.4887996635 0.0000000000 0.0000000000 0.0000000000 -336.5137955537 0.0709534027 -0.0005587592
0.1532506977 0.4926218926 0.0000000000 0.0000000000 0.0000000000 -345.3396975376 0.0709534027 -0.0005587592
0.1327997182 0.4956015307 0.0000000000 0.0000000000 0.0000000000 -354.5410017807 0.0709534027 -0.0005587592
0.1122430753 0.4977334873 0.0000000000 0.0000000000 0.0000000000 -363.9159317598 0.0709534027 -0.0005587592
0.0916158897 0.4990141200 0.0000000000 0.0000000000 0.0000000000 -373.2141792199 0.0709534027 -0.0005587592
0.0709534026 0.4994412408 0.0000000000 0.0000000000 0.0000000000 -382.1390653536 0.0709534027 -0.0005587592
0.0502909154 0.4990141200 0.0000000000 0.0000000000 0.0000000000 -390.3543064413 0.0709534027 -0.0005587592
0.0296637298 0.4977334873 0.0000000000 0.0000000000 0.0000000000 -397.4928980906 0.0709534027 -0.0005587592
0.0091070869 0.4956015307 0.0000000000 0.0000000000 0.0000000000 -403.1690730997 0.0709534027 -0.0005587592
-0.0113438926 0.4926218925 0.0000000000 0.0000000000 0.0000000000 -406.9918571116 0.0709534027 -0.0005587592
-0.0316542686 0.4887996635 0.0000000000 0.0000000000 0.0000000000 -408.5796724783 0.0709534027 -0.0005587592
-0.0517893410 0.4841413738 0.0000000000 0.0000000000 0.0000000000 -407.5747922736 0.0709534027 -0.0005587592
-0.0717147096 0.4786549820 0.0000000000 0.0000000000 0.0000000000 -403.6568177793 0.0709534027 -0.0005587592
-0.0913963321 0.4723498616 0.0000000000 0.0000000000 0.0000000000 -396.5543578618 0.0709534027 -0.0005587592
-0.1108005827 0.4652367848 0.0000000000 0.0000000000 0.0000000000 -386.0544003748 0.0709534027 -0.0005587592
-0.1298943098 0.4573279041 0.0000000000 0.0000000000 0.0000000000 -372.0090818161 0.0709534027 -0.0005587592
-0.1486448919 0.4486367317 0.0000000000 0.0000000000 0.0000000000 -354.3398229099 0.0709534027 -0.0005587592
-0.1670202940 0.4391781164 0.0000000000 0.0000000000 0.0000000000 -333.0389795104 0.0709534027 -0.0005587592
-0.1849891220 0.4289682180 0.0000000000 0.0000000000 0.0000000000 -308.1692828678 0.0709534027 -0.0005587592
-0.2025206765 0.4180244799 0.0000000000 0.0000000000 0.0000000000 -279.8613858634 0.0709534027 -0.0005587592
-0.2195850052 0.4063655994 0.0000000000 0.0000000000 0.0000000000 -248.3098209440 0.0709534027 -0.0005587592
-0.2361529538 0.3940114954 0.0000000000 0.0000000000 0.0000000000 -213.7676424509 0.0709534027 -0.0005587592
-0.2521962164 0.3809832748 0.0000000000 0.0000000000 0.0000000000 -176.5400106005 0.0709534027 -0.0005587592
-0.2676873833 0.3673031961 0.0000000000 0.0000000000 0.0000000000 -136.9769925977 0.0709534027 -0.0005587592
-0.2969085528 0.3380820265 0.0000000000 0.0000000000 0.0000000000 -52.4234337125 0.0709534027 -0.0005587592
-0.3105886315 0.3225908596 0.0000000000 0.0000000000 0.0000000000 -8.2880950766 0.0709534027 -0.0005587592
-0.3236168521 0.3065475971 0.0000000000 0.0000000000 0.0000000000 36.4871723457 0.0709534027 -0.0005587592
-0.3359709561 0.2899796484 0.0000000000 0.0000000000 0.0000000000 81.4417145326 0.0709534027 -0.0005587592
-0.3476298366 0.2729153198 0.0000000000 0.0000000000 0.0000000000 126.1133788439 0.0709534027 -0.0005587592
-0.3585735746 0.2553837652 0.0000000000 0.0000000000 0.0000000000 170.0441738052 0.0709534027 -0.0005587592
-0.3687834730 0.2374149372 0.0000000000 0.0000000000 0.0000000000 212.7854368363 0.0709534027 -0.0005587592
-0.3782420884 0.2190395351 0.0000000000 0.0000000000 0.0000000000 253.9025678776 0.0709534027 -0.0005587592
-0.3869332607 0.2002889530 0.0000000000 0.0000000000 0.0000000000 292.9793861312 0.0709534027 -0.0005587592
-0.3948421414 0.1811952260 0.0000000000 0.0000000000 0.0000000000 329.6221357606 0.0709534027 -0.0005587592
-0.4019552183 0.1617909753 0.0000000000 0.0000000000 0.0000000000 363.4631714802 0.0709534027 -0.0005587592
-0.4082603386 0.1421093528 0.0000000000 0.0000000000 0.0000000000 394.1643011807 0.0709534027 -0.0005587592
-0.4137467304 0.1221839842 0.0000000000 0.0000000000 0.0000000000 421.4198308531 0.0709534027 -0.0005587592
-0.4184050200 0.1020489117 0.0000000000 0.0000000000 0.0000000000 444.9592084269 0.0709534027 -0.0005587592
-0.4222272491 0.0817385358 0.0000000000 0.0000000000 0.0000000000 464.5494413212 0.0709534027 -0.0005587592
-0.4252068872 0.0612875563 0.0000000000 0.0000000000 0.0000000000 479.9969349822 0.0709534027 -0.0005587592
-0.4273388439 0.0407309134 0.0000000000 0.0000000000 0.0000000000 491.1494035056 0.0709534027 -0.0005587592
-0.4286194765 0.0201037278 0.0000000000 0.0000000000 0.0000000000 497.8966210462 0.0709534027 -0.0005587592
-0.4290465973 -0.0005587594 0.0000000000 0.0000000000 0.0000000000 500.1723121281 0.0709534027 -0.0005587592
-0.4286194765 -0.0212212465 0.0000000000 0.0000000000 0.0000000000 497.9529067660 0.0709534027 -0.0005587592
-0.4273388438 -0.0418484321 0.0000000000 0.0000000000 0.0000000000 491.2610822958 0.0709534027 -0.0005587592
-0.4252068872 -0.0624050750 0.0000000000 0.0000000000 0.0000000000 480.1594680192 0.0709534027 -0.0005587592
-0.4222272490 -0.0828560545 0.0000000000 0.0000000000 0.0000000000 464.7614358932 0.0709534027 -0.0005587592
-0.4184050200 -0.1031664305 0.0000000000 0.0000000000 0.0000000000 445.2095325595 0.0709534027 -0.0005587592
-0.4137467303 -0.1233015029 0.0000000000 0.0000000000 0.0000000000 421.7121856034 0.0709534027 -0.0005587592
-0.4082603385 -0.1432268715 0.0000000000 0.0000000000 0.0000000000 394.4727639570 0.0709534027 -0.0005587592
-0.4019552181 -0.1629084940 0.0000000000 0.0000000000 0.0000000000 363.8145083223 0.0709534027 -0.0005587592
-0.3948421413 -0.1823127447 0.0000000000 0.0000000000 0.0000000000 329.9461307261 0.0709534027 -0.0005587592
-0.3869332606 -0.2014064717 0.0000000000 0.0000000000 0.0000000000 293.3844521635 0.0709534027 -0.0005587592
-0.3782420882 -0.2201570538 0.0000000000 0.0000000000 0.0000000000 254.1700087891 0.0709534027 -0.0005587592
-0.3687834728 -0.2385324559 0.0000000000 0.0000000000 0.0000000000 213.3059629907 0.0709534027 -0.0005587592
-0.3585735744 -0.2565012839 0.0000000000 0.0000000000 0.0000000000 170.0733130884 0.0709534027 -0.0005587592
-0.3476298363 -0.2740328384 0.0000000000 0.0000000000 0.0000000000 127.0634727061 0.0709534027 -0.0005587592
-0.3359709558 -0.2910971671 0.0000000000 0.0000000000 0.0000000000 80.5848158544 0.0709534027 -0.0005587592
-0.3236168519 -0.3076651157 0.0000000000 0.0000000000 0.0000000000 39.2992226828 0.0709534027 -0.0005587592
-0.3105886313 -0.3237083783 0.0000000000 0.0000000000 0.0000000000 -12.1599890223 0.0709534027 -0.0005587592
-0.2969085525 -0.3391995452 0.0000000000 0.0000000000 0.0000000000 -11.1126806072 0.0709534027 -0.0005587592
-0.2676873830 -0.3684207147 0.0000000000 0.0000000000 0.0000000000 -45.6200766077 0.0709534027 -0.0005587592
-0.2521962161 -0.3821007934 0.0000000000 0.0000000000 0.0000000000 -192.5454274489 0.0709534027 -0.0005587592
-0.2361529535 -0.3951290140 0.0000000000 0.0000000000 0.0000000000 -232.7210570469 0.0709534027 -0.0005587592
-0.2195850048 -0.4074831180 0.0000000000 0.0000000000 0.0000000000 -241.3122383864 0.0709534027 -0.0005587592
-0.2025206762 -0.4191419984 0.0000000000 0.0000000000 0.0000000000 -283.8323781904 0.0709534027 -0.0005587592
-0.1849891217 -0.4300857365 0.0000000000 0.0000000000 0.0000000000 -308.4496836572 0.0709534027 -0.0005587592
-0.1670202936 -0.4402956349 0.0000000000 0.0000000000 0.0000000000 -334.0437617803 0.0709534027 -0.0005587592
-0.1486448915 -0.4497542502 0.0000000000 0.0000000000 0.0000000000 -355.0586970675 0.0709534027 -0.0005587592
-0.1298943094 -0.4584454226 0.0000000000 0.0000000000 0.0000000000 -372.7644684611 0.0709534027 -0.0005587592
-0.1108005824 -0.4663543033 0.0000000000 0.0000000000 0.0000000000 -386.7828202399 0.0709534027 -0.0005587592
-0.0913963317 -0.4734673801 0.0000000000 0.0000000000 0.0000000000 -397.2548451727 0.0709534027 -0.0005587592
-0.0717147092 -0.4797725005 0.0000000000 0.0000000000 0.0000000000 -404.3091271668 0.0709534027 -0.0005587592
-0.0517893406 -0.4852588922 0.0000000000 0.0000000000 0.0000000000 -408.1455513154 0.0709534027 -0.0005587592
-0.0316542682 -0.4899171819 0.0000000000 0.0000000000 0.0000000000 -409.0373270301 0.0709534027 -0.0005587592
-0.0113438922 -0.4937394109 0.0000000000 0.0000000000 0.0000000000 -407.2981345077 0.0709534027 -0.0005587592
0.0091070873 -0.4967190491 0.0000000000 0.0000000000 0.0000000000 -403.2884978174 0.0709534027 -0.0005587592
0.0296637302 -0.4988510057 0.0000000000 0.0000000000 0.0000000000 -397.3902845144 0.0709534027 -0.0005587592
0.0502909158 -0.5001316384 0.0000000000 0.0000000000 0.0000000000 -389.9991141486 0.0709534027 -0.0005587592
0.0709534030 -0.5005587592 0.0000000000 0.0000000000 0.0000000000 -381.5053737938 0.0709534027 -0.0005587592
0.0916158901 -0.5001316383 0.0000000000 0.0000000000 0.0000000000 -372.2825618254 0.0709534027 -0.0005587592
0.1122430757 -0.4988510056 0.0000000000 0.0000000000 0.0000000000 -362.6737446278 0.0709534027 -0.0005587592
0.1327997186 -0.4967190490 0.0000000000 0.0000000000 0.0000000000 -352.9826937566 0.0709534027 -0.0005587592
0.1532506981 -0.4937394108 0.0000000000 0.0000000000 0.0000000000 -343.4667816095 0.0709534027 -0.0005587592
0.1735610741 -0.4899171818 0.0000000000 0.0000000000 0.0000000000 -334.3338103677 0.0709534027 -0.0005587592
0.1936961465 -0.4852588921 0.0000000000 0.0000000000 0.0000000000 -325.7405226335 0.0709534027 -0.0005587592
0.2136215151 -0.4797725003 0.0000000000 0.0000000000 0.0000000000 -317.7945306867 0.0709534027 -0.0005587592
0.2333031376 -0.4734673799 0.0000000000 0.0000000000 0.0000000000 -310.5560384241 0.0709534027 -0.0005587592
0.2527073883 -0.4663543031 0.0000000000 0.0000000000 0.0000000000 -304.0480042236 0.0709534027 -0.0005587592
0.2718011153 -0.4584454224 0.0000000000 0.0000000000 0.0000000000 -298.2620937212 0.0709534027 -0.0005587592
0.2905516974 -0.4497542500 0.0000000000 0.0000000000 0.0000000000 -293.1900798860 0.0709534027 -0.0005587592
0.3089270995 -0.4402956346 0.0000000000 0.0000000000 0.0000000000 -288.8143598022 0.0709534027 -0.0005587592
0.3268959275 -0.4300857362 0.0000000000 0.0000000000 0.0000000000 -285.1781019852 0.0709534027 -0.0005587592
0.3444274820 -0.4191419981 0.0000000000 0.0000000000 0.0000000000 -282.2564625008 0.0709534027 -0.0005587592
0.3614918106 -0.4074831176 0.0000000000 0.0000000000 0.0000000000 -280.2006874310 0.0709534027 -0.0005587592
0.3780597593 -0.3951290136 0.0000000000 0.0000000000 0.0000000000 -278.7470382217 0.0709534027 -0.0005587592
0.3941030219 -0.3821007930 0.0000000000 0.0000000000 0.0000000000 -278.3851231678 0.0709534027 -0.0005587592
0.4095941887 -0.3684207143 0.0000000000 0.0000000000 0.0000000000 -277.8381446520 0.0709534027 -0.0005587592
0.6224210137 -0.5100359525 0.0000000000 0.0671746535 -0.1170051722 -269.7678620799 0.0726321094 0.0000936004
0.6410163010 -0.4890962078 0.0000000000 0.0564789703 -0.1350466182 -271.9525638533 0.0725375083 0.0001193503
0.6588220705 -0.4674708458 0.0000000000 0.0480574854 -0.1525222823 -274.4476107269 0.0724484583 0.0001465052
0.6758035106 -0.4451911248 0.0000000000 0.0391993887 -0.1681942866 -277.1121669487 0.0723551755 0.0001740140
0.6919335818 -0.4222895038 0.0000000000 0.0281826067 -0.1812075388 -279.7858232524 0.0722545007 0.0002005393
0.7071887692 -0.3987989761 0.0000000000 0.0142198392 -0.1910794373 -282.2994364743 0.0721456195 0.0002250809
0.7215477992 -0.3747530879 0.0000000000 -0.0027877667 -0.1976092395 -284.4876530532 0.0720287462 0.0002469117
0.7349911494 -0.3501859601 0.0000000000 -0.0225240235 -0.2007695864 -286.2027883538 0.0719046041 0.0002655107
0.7475008289 -0.3251322873 0.0000000000 -0.0444642534 -0.2006196678 -287.3280031335 0.0717741778 0.0002805166
0.7590602747 -0.2996273237 0.0000000000 -0.0679967200 -0.1972528915 -287.7880555193 0.0716385827 0.0002916941
0.7696543077 -0.2737068605 0.0000000000 -0.0924800172 -0.1907750895 -287.5567317160 0.0714989961 0.0002989074
0.7792691162 -0.2474071937 0.0000000000 -0.1172648985 -0.1813027414 -286.6606704421 0.0713566183 0.0003021024
0.7878922524 -0.2207650856 0.0000000000 -0.1417019407 -0.1689708321 -285.1794389751 0.0712126480 0.0003012948
0.7955126323 -0.1938177207 0.0000000000 -0.1651471424 -0.1539430802 -283.2416448721 0.0710682625 0.0002965628
0.8021205360 -0.1666026587 0.0000000000 -0.1869707343 -0.1364206725 -281.0168920244 0.0709246017 0.0002880414
0.8077076089 -0.1391577869 0.0000000000 -0.2065706115 -0.1166480017 -278.7036540538 0.0707827539 0.0002759181
0.8122668645 -0.1115212722 0.0000000000 -0.2233898811 -0.0949150420 -276.5136150868 0.0706437448 0.0002604271
0.8157926877 -0.0837315128 0.0000000000 -0.2369370568 -0.0715563628 -274.6536063150 0.0705085302 0.0002418440
0.8182808390 -0.0558270914 0.0000000000 -0.2468068793 -0.0469468770 -273.3068063609 0.0703779911 0.0002204784
0.8197284597 -0.0278467289 0.0000000000 -0.2526994559 -0.0214945539 -272.6152311847 0.0702529311 0.0001966665
0.8201340754 0.0001707629 0.0000000000 -0.2544354591 0.0043694480 -272.6655970981 0.0701340754 0.0001707626
0.8194976004 0.0281865275 0.0000000000 -0.2519655237 0.0302025173 -273.4803459700 0.0700220718 0.0001431315
0.8178203410 0.0561617110 0.0000000000 -0.2453726544 0.0555632807 -275.0150140342 0.0699174932 0.0001141406
0.8151050000 0.0840575103 0.0000000000 -0.2348672891 0.0800242083 -277.1623147034 0.0698208426 0.0000841530
0.8113556817 0.1118352215 0.0000000000 -0.2207756198 0.1031830896 -279.7624039622 0.0697325621 0.0000535216
0.8065778982 0.1394562893 0.0000000000 -0.2035226304 0.1246724713 -282.6179991436 0.0696530433 0.0000225837
0.8007785760 0.1668823569 0.0000000000 -0.1836119325 0.1441663838 -285.5124650156 0.0695826419 -0.0000083438
0.7939660617 0.1940753171 0.0000000000 -0.1616047436 0.1613839561 -288.2287616079 0.0695216920 -0.0000389669
0.7861501253 0.2209973645 0.0000000000 -0.1381002469 0.1760897171 -290.5672771837 0.0694705211 -0.0000690165
0.7773419591 0.2476110503 0.0000000000 -0.1137191654 0.1880904896 -292.3609755757 0.0694294615 -0.0000982463
0.7675541684 0.2738793405 0.0000000000 -0.0890917590 0.1972289100 -293.4868444696 0.0693988570 -0.0001264280
0.7568007521 0.2997656779 0.0000000000 -0.0648504565 0.2033740740 -293.8731926950 0.0693790602 -0.0001533405
0.7450970659 0.3252340487 0.0000000000 -0.0416254618 0.2064110680 -293.5027667269 0.0693704151 -0.0001787557
0.7324597630 0.3502490501 0.0000000000 -0.0200380075 0.2062334645 -292.4118465797 0.0693732179 -0.0002024212
0.7189067041 0.3747759550 0.0000000000 -0.0006794641 0.2027459360 -290.6854813656 0.0693876514 -0.0002240452
0.7044568390 0.3987807637 0.0000000000 0.0159446257 0.1958867793 -288.4490876561 0.0694136896 -0.0002432938
0.6891300709 0.4222302335 0.0000000000 0.0295340784 0.1856802120 -285.8570798356 0.0694509903 -0.0002598102
0.6729471274 0.4450918809 0.0000000000 0.0401989601 0.1723225077 -283.0799875905 0.0694987926 -0.0002732584
0.6559294281 0.4673339703 0.0000000000 0.0487316859 0.1562902087 -280.2918668133 0.0695558163 -0.0002833812
0.6380987933 0.4889254944 0.0000000000 0.0568506379 0.1384319960 -277.6588669702 0.0696200010 -0.0002900642
0.6194764096 0.5098362482 0.0000000000 0.0672450641 0.1199804968 -275.3247750148 0.0696875058 -0.0002933052
0.5777939310 0.5514769178 0.0000000000 0.1118104031 0.0860263484 -271.8835148552 0.0698327524 -0.0003160152
0.5546487295 0.5719776745 0.0000000000 0.1550294650 0.0742475674 -271.0114361682 0.0699243012 -0.0003353767
0.5306869126 0.5915048769 0.0000000000 0.2145075263 0.0680140822 -270.7679925160 0.0700273781 -0.0003505052
0.5059493284 0.6100252761 0.0000000000 0.2896898706 0.0675150161 -271.1007968062 0.0701417169 -0.0003612619
0.4804769425 0.6275071185 0.0000000000 0.3782666953 0.0724675769 -271.9462887820 0.0702658239 -0.0003677403
0.4543116821 0.6439201015 0.0000000000 0.4767431022 0.0823825802 -273.2384393495 0.0703978953 -0.0003703644
0.4274967095 0.6592356143 0.0000000000 0.5809085630 0.0966830275 -274.9017726793 0.0705361648 -0.0003696992
0.4000764384 0.6734269292 0.0000000000 0.6862050319 0.1146871851 -276.8351157987 0.0706789968 -0.0003663073
0.3720964651 0.6864693183 0.0000000000 0.7881177556 0.1355670741 -278.8967344459 0.0708248967 -0.0003606767
0.3436034786 0.6983401039 0.0000000000 0.8826278313 0.1583700644 -280.9038388453 0.0709725008 -0.0003532122
0.3146451758 0.7090186757 0.0000000000 0.9666328329 0.1821138161 -282.6514512248 0.0711205740 -0.0003442556
0.2852701827 0.7184865016 0.0000000000 1.0382047281 0.2059095478 -283.9410928824 0.0712680146 -0.0003341103
0.2555279765 0.7267271418 0.0000000000 1.0966203162 0.2290617888 -284.6042638404 0.0714138613 -0.0003230577
0.2254688037 0.7337262691 0.0000000000 1.1421914511 0.2511167482 -284.5125030316 0.0715572971 -0.0003113649
0.1951435895 0.7394716935 0.0000000000 1.1759771822 0.2718583399 -283.5749241112 0.0716976469 -0.0002992841
0.1646038395 0.7439533901 0.0000000000 1.1994664855 0.2912665109 -281.7283963157 0.0718343661 -0.0002870447
0.1339015322 0.7471635271 0.0000000000 1.2142976350 0.3094568241 -278.9254793607 0.0719670233 -0.0002748427
0.1030890070 0.7490964932 0.0000000000 1.2220493102 0.3266178350 -275.1236175073 0.0720952765 -0.0002628256
0.0722188470 0.7497489210 0.0000000000 1.2241115793 0.3429574777 -270.2774788792 0.0722188471 -0.0002510790
0.0413437607 0.7491197042 0.0000000000 1.2216269153 0.3586638745 -264.3350547967 0.0723374916 -0.0002396146
0.0105164644 0.7472100053 0.0000000000 1.2154828543 0.3738812718 -257.2372306857 0.0724509736 -0.0002283645
-0.0202104356 0.7440232531 0.0000000000 1.2063366909 0.3886988674 -248.9200062881 0.0725590380 -0.0002171817
-0.0507845565 0.7395651298 0.0000000000 1.1946557598 0.4031490638 -239.3183543644 0.0726613864 -0.0002058477
-0.0811538501 0.7338435468 0.0000000000 1.1807616609 0.4172116842 -228.3707814042 0.0727576567 -0.0001940872
-0.1112667098 0.7268686122 0.0000000000 1.1648714533 0.4308213356 -216.0238731762 0.0728474057 -0.0001815872
-0.1410720726 0.7186525925 0.0000000000 1.1471324796 0.4438759500 -202.2363642403 0.0729300958 -0.0001680193
-0.1705195155 0.7092098676 0.0000000000 1.1276498939 0.4562453024 -186.9824935352 0.0730050866 -0.0001530636
-0.1995593469 0.6985568846 0.0000000000 1.1065073246 0.4677788817 -170.2545683359 0.0730716312 -0.0001364313
-0.2281426934 0.6867121073 0.0000000000 1.0837817128 0.4783128735 -152.0647556096 0.0731288753 -0.0001178876
-0.2562215836 0.6736959648 0.0000000000 1.0595535150 0.4876762282 -132.4461665777 0.0731758582 -0.0000972715
-0.2837490360 0.6595307972 0.0000000000 1.0339133640 0.4956958889 -111.4533136914 0.0732115090 -0.0000745161
-0.3106791602 0.6442407979 0.0000000000 1.0069660950 0.5022012845 -89.1620115787 0.0732346268 -0.0000496677
-0.3369673014 0.6278519493 0.0000000000 0.9788328269 0.5070281785 -65.6687731795 0.0732438173 -0.0000229092
-0.3625702931 0.6103919440 0.0000000000 0.9496515838 0.5100219077 -41.0896985830 0.0732373186 0.0000054062
-0.3874470128 0.5918900768 0.0000000000 0.9195767404 0.5110399117 -15.5587755991 0.0732125219 0.0000346949
-0.4115598962 0.5723771484 0.0000000000 0.8887772373 0.5099529228 10.7750182655 0.0731645324 0.0000640974
-0.4348800007 0.5518860083 0.0000000000 0.8574332146 0.5066418166 37.7532580781 0.0730811781 0.0000930755
-0.4788541202 0.5081293174 0.0000000000 0.7940255706 0.4930998242 92.7836476506 0.0729388130 0.0001681388
-0.4994291729 0.4849360700 0.0000000000 0.7623706403 0.4827874109 120.4419116912 0.0728838784 0.0002116418
-0.5190602606 0.4609113263 0.0000000000 0.7310185202 0.4700303931 147.9629264789 0.0727951216 0.0002517920
-0.5377018841 0.4360959359 0.0000000000 0.7001979676 0.4548419046 175.1274060503 0.0726846540 0.0002883245
-0.5553171486 0.4105320524 0.0000000000 0.6701357310 0.4372496671 201.7210757383 0.0725577102 0.0003209340
-0.5718730705 0.3842629643 0.0000000000 0.6410537044 0.4173029560 227.5338279706 0.0724173954 0.0003491777
-0.5873392435 0.3573331446 0.0000000000 0.6131678923 0.3950726024 252.3607293022 0.0722660700 0.0003726000
-0.6016874292 0.3297882492 0.0000000000 0.5866863177 0.3706505898 276.0038762394 0.0721058074 0.0003908078
-0.6148914351 0.3016750722 0.0000000000 0.5618070229 0.3441490727 298.2743517842 0.0719385600 0.0004035039
-0.6269270987 0.2730414789 0.0000000000 0.5387161538 0.3156991240 318.9941167501 0.0717662174 0.0004105012
-0.6377723117 0.2439363275 0.0000000000 0.5175862282 0.2854492651 337.9977535021 0.0715906197 0.0004117258
-0.6474070596 0.2144093823 0.0000000000 0.4985746110 0.2535638323 355.1340278902 0.0714135524 0.0004072143
-0.6558134654 0.1845112220 0.0000000000 0.4818222103 0.2202212180 370.2672523538 0.0712367342 0.0003971069
-0.6629758303 0.1542931447 0.0000000000 0.4674523907 0.1856120136 383.2784439253 0.0710618038 0.0003816384
-0.6688806664 0.1238070696 0.0000000000 0.4555700811 0.1499370790 394.0662759285 0.0708903112 0.0003611271
-0.6735167202 0.0931054363 0.0000000000 0.4462610442 0.1134055607 402.5478225797 0.0707237147 0.0003359632
-0.6768749844 0.0622411018 0.0000000000 0.4395912795 0.0762328887 408.6590949296 0.0705633853 0.0003065930
-0.6789487022 0.0312672329 0.0000000000 0.4356065610 0.0386387873 412.3553710429 0.0704106166 0.0002735025
-0.6797333628 0.0002371967 0.0000000000 0.4343321410 0.0008453343 413.6113325594 0.0702666372 0.0002371970
-0.6792266950 -0.0307955516 0.0000000000 0.4357726723 -0.0369249168 412.4210313713 0.0701326237 0.0001981794
-0.6774286585 -0.0617775822 0.0000000000 0.4399123692 -0.0744507439 408.7977043766 0.0700097112 0.0001569273
-0.6743414333 -0.0926556018 0.0000000000 0.4467154160 -0.1115139934 402.7734530861 0.0698990015 0.0001138720
-0.6699694059 -0.1233765617 0.0000000000 0.4561266137 -0.1479012579 394.3988032167 0.0698015716 0.0000693814
-0.6643191460 -0.1538877604 0.0000000000 0.4680722024 -0.1834055119 383.7421409255 0.0697184879 0.0000237465