 TITLE = "Tecplot data"
 VARIABLES = "X", "Y", "Z" "U", "V", "p", "dispX", "dispY"
 ZONE SOLUTIONTIME=31.900000, NODES=26114 , ELEMENTS=25916, DATAPACKING=POINT, ZONETYPE=FEQUADRILATERAL
0.4221534912 0.3181351317 0.0000000000 0.0000000000 0.0000000000 -363.8754791983 0.0686001007 -0.0354182589
0.4221534915 -0.3889716492 0.0000000000 0.0000000000 0.0000000000 -420.3841147771 0.0686001007 -0.0354182589
-0.2849532900 0.3181351316 0.0000000000 0.0000000000 0.0000000000 -86.6421209934 0.0686001007 -0.0354182589
-0.2849532898 -0.3889716497 0.0000000000 0.0000000000 0.0000000000 -252.0592309832 0.0686001007 -0.0354182589
0.5977338238 0.4952001162 0.0000000000 0.0941779353 -0.0230907055 -362.7762179020 0.0674037379 -0.0351299698
0.6004304815 -0.5663660921 0.0000000000 0.2831732242 -0.0303332785 -400.3077257492 0.0701003952 -0.0360360066
-0.4603678370 0.4946179453 0.0000000000 0.8085485649 0.4601111199 69.2395448397 0.0699622490 -0.0357121404
-0.4614718821 -0.5662792089 0.0000000000 0.8970069056 -0.5212083283 -13.8783498071 0.0688582035 -0.0359491227
1.1286248320 1.0249512433 0.0000000000 1.1772254113 0.0588933407 -188.3635949778 0.0679646604 -0.0357089286
1.1300416881 -1.0961763512 0.0000000000 1.2534588549 0.0811134469 -301.7226814307 0.0693815155 -0.0355161802
-0.9897401135 1.0235132680 0.0000000000 0.9200588050 0.1641315898 78.9518449058 0.0709200586 -0.0371469035
-0.9918214993 -1.0979059048 0.0000000000 0.9590606353 -0.1811438173 44.0016319245 0.0688386720 -0.0372457324
4.2614830440 3.2690102128 0.0000000000 1.0107585868 0.0268676416 25.5995436349 0.0614830440 -0.0309897872
4.2661352143 -3.3308045502 0.0000000000 1.1072957036 -0.0330190962 -8.5045566682 0.0661352143 -0.0308045502
20.0000000000 4.7000000000 0.0000000000 1.0045526164 -0.0081902916 -0.0040716675 0.0000000000 0.0000000000
20.0000000000 -4.7000000000 0.0000000000 1.0051892173 0.0065519438 0.0083592381 0.0000000000 0.0000000000
-10.0000000000 15.0000000000 0.0000000000 1.0000000000 0.0000000000 17.3468108727 0.0000000000 0.0000000000
20.0000000000 15.0000000000 0.0000000000 1.0010964317 0.0000000000 0.0039258497 0.0000000000 0.0000000000
20.0000000000 -15.0000000000 0.0000000000 1.0012181379 0.0000000000 0.0050431842 0.0000000000 0.0000000000
-10.0000000000 -15.0000000000 0.0000000000 1.0000000000 0.0000000000 8.7206078575 0.0000000000 0.0000000000
0.4351260368 -0.3755046275 0.0000000000 0.0000000000 0.0000000000 -417.6742652129 0.0686001007 -0.0354182589
0.4475859625 -0.3615619643 0.0000000000 0.0000000000 0.0000000000 -416.2144690204 0.0686001007 -0.0354182589
0.4595158421 -0.3471631596 0.0000000000 0.0000000000 0.0000000000 -415.0615701165 0.0686001007 -0.0354182589
0.4708989907 -0.3323283514 0.0000000000 0.0000000000 0.0000000000 -414.4742709300 0.0686001007 -0.0354182589
0.4817194880 -0.3170782877 0.0000000000 0.0000000000 0.0000000000 -414.1760779061 0.0686001007 -0.0354182589
0.4919622004 -0.3014342969 0.0000000000 0.0000000000 0.0000000000 -414.1276227414 0.0686001007 -0.0354182589
0.5016128027 -0.2854182586 0.0000000000 0.0000000000 0.0000000000 -414.1965030347 0.0686001007 -0.0354182589
0.5106577976 -0.2690525728 0.0000000000 0.0000000000 0.0000000000 -414.3081975188 0.0686001007 -0.0354182589
0.5190845347 -0.2523601282 0.0000000000 0.0000000000 0.0000000000 -414.3767366372 0.0686001007 -0.0354182589
0.5268812287 -0.2353642708 0.0000000000 0.0000000000 0.0000000000 -414.3344045128 0.0686001007 -0.0354182589
0.5340369751 -0.2180887708 0.0000000000 0.0000000000 0.0000000000 -414.1167624046 0.0686001007 -0.0354182589
0.5405417659 -0.2005577896 0.0000000000 0.0000000000 0.0000000000 -413.6672083395 0.0686001007 -0.0354182589
0.5463865036 -0.1827958459 0.0000000000 0.0000000000 0.0000000000 -412.9512209335 0.0686001007 -0.0354182589
0.5515630139 -0.1648277812 0.0000000000 0.0000000000 0.0000000000 -411.8734855700 0.0686001007 -0.0354182589
0.5560640568 -0.1466787256 0.0000000000 0.0000000000 0.0000000000 -410.7475528056 0.0686001007 -0.0354182589
0.5598833373 -0.1283740623 0.0000000000 0.0000000000 0.0000000000 -408.7614480726 0.0686001007 -0.0354182589
0.5630155138 -0.1099393918 0.0000000000 0.0000000000 0.0000000000 -406.2578295885 0.0686001007 -0.0354182589
0.5654562056 -0.0914004967 0.0000000000 0.0000000000 0.0000000000 -404.0726033778 0.0686001007 -0.0354182589
0.5672019993 -0.0727833055 0.0000000000 0.0000000000 0.0000000000 -401.2875024215 0.0686001007 -0.0354182589
0.5682504531 -0.0541138558 0.0000000000 0.0000000000 0.0000000000 -398.1884479999 0.0686001007 -0.0354182589
0.5686001007 -0.0354182587 0.0000000000 0.0000000000 0.0000000000 -394.9233673021 0.0686001007 -0.0354182589
0.5682504530 -0.0167226616 0.0000000000 0.0000000000 0.0000000000 -391.4481568861 0.0686001007 -0.0354182589
0.5672019992 0.0019467881 0.0000000000 0.0000000000 0.0000000000 -387.8732385281 0.0686001007 -0.0354182589
0.5654562056 0.0205639793 0.0000000000 0.0000000000 0.0000000000 -384.2578850758 0.0686001007 -0.0354182589
0.5630155137 0.0391028744 0.0000000000 0.0000000000 0.0000000000 -380.6704435928 0.0686001007 -0.0354182589
0.5598833372 0.0575375448 0.0000000000 0.0000000000 0.0000000000 -377.1819447828 0.0686001007 -0.0354182589
0.5560640567 0.0758422082 0.0000000000 0.0000000000 0.0000000000 -373.8555339679 0.0686001007 -0.0354182589
0.5515630138 0.0939912638 0.0000000000 0.0000000000 0.0000000000 -370.7518884780 0.0686001007 -0.0354182589
0.5463865035 0.1119593284 0.0000000000 0.0000000000 0.0000000000 -367.9230454514 0.0686001007 -0.0354182589
0.5405417658 0.1297212722 0.0000000000 0.0000000000 0.0000000000 -365.4167788734 0.0686001007 -0.0354182589
0.5340369749 0.1472522534 0.0000000000 0.0000000000 0.0000000000 -363.2665135914 0.0686001007 -0.0354182589
0.5268812285 0.1645277534 0.0000000000 0.0000000000 0.0000000000 -361.5052009019 0.0686001007 -0.0354182589
0.5190845346 0.1815236108 0.0000000000 0.0000000000 0.0000000000 -360.1454445013 0.0686001007 -0.0354182589
0.5106577974 0.1982160553 0.0000000000 0.0000000000 0.0000000000 -359.1999342025 0.0686001007 -0.0354182589
0.5016128025 0.2145817412 0.0000000000 0.0000000000 0.0000000000 -358.6664134791 0.0686001007 -0.0354182589
0.4919622002 0.2305977794 0.0000000000 0.0000000000 0.0000000000 -358.5129230989 0.0686001007 -0.0354182589
0.4817194878 0.2462417702 0.0000000000 0.0000000000 0.0000000000 -358.7558686289 0.0686001007 -0.0354182589
0.4708989905 0.2614918339 0.0000000000 0.0000000000 0.0000000000 -359.2801236626 0.0686001007 -0.0354182589
0.4595158418 0.2763266421 0.0000000000 0.0000000000 0.0000000000 -360.1538812368 0.0686001007 -0.0354182589
0.4475859622 0.2907254468 0.0000000000 0.0000000000 0.0000000000 -361.1253904914 0.0686001007 -0.0354182589
0.4351260365 0.3046681100 0.0000000000 0.0000000000 0.0000000000 -362.6154099476 0.0686001007 -0.0354182589
0.4072408864 0.3324436965 0.0000000000 0.0000000000 0.0000000000 -365.7337428957 0.0686001007 -0.0354182589
0.3917497195 0.3461237752 0.0000000000 0.0000000000 0.0000000000 -367.4654322510 0.0686001007 -0.0354182589
0.3757064570 0.3591519958 0.0000000000 0.0000000000 0.0000000000 -369.4368986737 0.0686001007 -0.0354182589
0.3591385083 0.3715060998 0.0000000000 0.0000000000 0.0000000000 -371.4542611106 0.0686001007 -0.0354182589
0.3420741797 0.3831649803 0.0000000000 0.0000000000 0.0000000000 -373.7048007199 0.0686001007 -0.0354182589
0.3245426251 0.3941087183 0.0000000000 0.0000000000 0.0000000000 -376.1881577678 0.0686001007 -0.0354182589
0.3065737971 0.4043186167 0.0000000000 0.0000000000 0.0000000000 -379.0344211457 0.0686001007 -0.0354182589
0.2881983950 0.4137772321 0.0000000000 0.0000000000 0.0000000000 -382.3032929980 0.0686001007 -0.0354182589
0.2694478129 0.4224684045 0.0000000000 0.0000000000 0.0000000000 -386.0824315841 0.0686001007 -0.0354182589
0.2503540859 0.4303772851 0.0000000000 0.0000000000 0.0000000000 -390.4182442042 0.0686001007 -0.0354182589
0.2309498352 0.4374903620 0.0000000000 0.0000000000 0.0000000000 -395.3460593080 0.0686001007 -0.0354182589
0.2112682127 0.4437954823 0.0000000000 0.0000000000 0.0000000000 -400.8670742450 0.0686001007 -0.0354182589
0.1913428441 0.4492818741 0.0000000000 0.0000000000 0.0000000000 -406.9561978579 0.0686001007 -0.0354182589
0.1712077717 0.4539401638 0.0000000000 0.0000000000 0.0000000000 -413.5513474087 0.0686001007 -0.0354182589
0.1508973957 0.4577623928 0.0000000000 0.0000000000 0.0000000000 -420.5512273255 0.0686001007 -0.0354182589
0.1304464162 0.4607420310 0.0000000000 0.0000000000 0.0000000000 -427.8074961800 0.0686001007 -0.0354182589
0.1098897733 0.4628739876 0.0000000000 0.0000000000 0.0000000000 -435.1213606495 0.0686001007 -0.0354182589
0.0892625877 0.4641546203 0.0000000000 0.0000000000 0.0000000000 -442.2413143354 0.0686001007 -0.0354182589
0.0686001006 0.4645817411 0.0000000000 0.0000000000 0.0000000000 -448.8654381683 0.0686001007 -0.0354182589
0.0479376134 0.4641546203 0.0000000000 0.0000000000 0.0000000000 -454.6471637946 0.0686001007 -0.0354182589
0.0273104278 0.4628739876 0.0000000000 0.0000000000 0.0000000000 -459.2051258177 0.0686001007 -0.0354182589
0.0067537849 0.4607420309 0.0000000000 0.0000000000 0.0000000000 -462.1361534871 0.0686001007 -0.0354182589
-0.0136971946 0.4577623928 0.0000000000 0.0000000000 0.0000000000 -463.0307225016 0.0686001007 -0.0354182589
-0.0340075705 0.4539401637 0.0000000000 0.0000000000 0.0000000000 -461.4895947404 0.0686001007 -0.0354182589
-0.0541426430 0.4492818740 0.0000000000 0.0000000000 0.0000000000 -457.1404436593 0.0686001007 -0.0354182589
-0.0740680116 0.4437954823 0.0000000000 0.0000000000 0.0000000000 -449.6532383614 0.0686001007 -0.0354182589
-0.0937496341 0.4374903619 0.0000000000 0.0000000000 0.0000000000 -438.7534189703 0.0686001007 -0.0354182589
-0.1131538847 0.4303772851 0.0000000000 0.0000000000 0.0000000000 -424.2321820260 0.0686001007 -0.0354182589
-0.1322476118 0.4224684044 0.0000000000 0.0000000000 0.0000000000 -405.9535512313 0.0686001007 -0.0354182589
-0.1509981939 0.4137772320 0.0000000000 0.0000000000 0.0000000000 -383.8582278244 0.0686001007 -0.0354182589
-0.1693735960 0.4043186166 0.0000000000 0.0000000000 0.0000000000 -357.9644801632 0.0686001007 -0.0354182589
-0.1873424240 0.3941087182 0.0000000000 0.0000000000 0.0000000000 -328.3665069180 0.0686001007 -0.0354182589
-0.2048739785 0.3831649801 0.0000000000 0.0000000000 0.0000000000 -295.2307896534 0.0686001007 -0.0354182589
-0.2219383072 0.3715060996 0.0000000000 0.0000000000 0.0000000000 -258.7909400526 0.0686001007 -0.0354182589
-0.2385062558 0.3591519957 0.0000000000 0.0000000000 0.0000000000 -219.3414631334 0.0686001007 -0.0354182589
-0.2545495184 0.3461237751 0.0000000000 0.0000000000 0.0000000000 -177.2307335304 0.0686001007 -0.0354182589
-0.2700406853 0.3324436963 0.0000000000 0.0000000000 0.0000000000 -132.8533676460 0.0686001007 -0.0354182589
-0.2992618548 0.3032225268 0.0000000000 0.0000000000 0.0000000000 -39.0594699482 0.0686001007 -0.0354182589
-0.3129419335 0.2877313599 0.0000000000 0.0000000000 0.0000000000 9.4108616471 0.0686001007 -0.0354182589
-0.3259701541 0.2716880973 0.0000000000 0.0000000000 0.0000000000 58.2720956582 0.0686001007 -0.0354182589
-0.3383242581 0.2551201487 0.0000000000 0.0000000000 0.0000000000 107.0219843490 0.0686001007 -0.0354182589
-0.3499831386 0.2380558200 0.0000000000 0.0000000000 0.0000000000 155.1595656910 0.0686001007 -0.0354182589
-0.3609268766 0.2205242655 0.0000000000 0.0000000000 0.0000000000 202.1910497668 0.0686001007 -0.0354182589
-0.3711367750 0.2025554375 0.0000000000 0.0000000000 0.0000000000 247.6349408872 0.0686001007 -0.0354182589
-0.3805953904 0.1841800354 0.0000000000 0.0000000000 0.0000000000 291.0265608697 0.0686001007 -0.0354182589
-0.3892865627 0.1654294533 0.0000000000 0.0000000000 0.0000000000 331.9221517553 0.0686001007 -0.0354182589
-0.3971954434 0.1463357262 0.0000000000 0.0000000000 0.0000000000 369.9026580946 0.0686001007 -0.0354182589
-0.4043085202 0.1269314755 0.0000000000 0.0000000000 0.0000000000 404.5772649576 0.0686001007 -0.0354182589
-0.4106136406 0.1072498530 0.0000000000 0.0000000000 0.0000000000 435.5866628883 0.0686001007 -0.0354182589
-0.4161000324 0.0873244845 0.0000000000 0.0000000000 0.0000000000 462.6060908086 0.0686001007 -0.0354182589
-0.4207583220 0.0671894120 0.0000000000 0.0000000000 0.0000000000 485.3479978924 0.0686001007 -0.0354182589
-0.4245805511 0.0468790360 0.0000000000 0.0000000000 0.0000000000 503.5645490623 0.0686001007 -0.0354182589
-0.4275601892 0.0264280565 0.0000000000 0.0000000000 0.0000000000 517.0494778478 0.0686001007 -0.0354182589
-0.4296921459 0.0058714136 0.0000000000 0.0000000000 0.0000000000 525.6401732399 0.0686001007 -0.0354182589
-0.4309727785 -0.0147557720 0.0000000000 0.0000000000 0.0000000000 529.2183033975 0.0686001007 -0.0354182589
-0.4313998993 -0.0354182591 0.0000000000 0.0000000000 0.0000000000 527.7121386927 0.0686001007 -0.0354182589
-0.4309727785 -0.0560807462 0.0000000000 0.0000000000 0.0000000000 521.0946773231 0.0686001007 -0.0354182589
-0.4296921458 -0.0767079319 0.0000000000 0.0000000000 0.0000000000 509.3885360115 0.0686001007 -0.0354182589
-0.4275601892 -0.0972645748 0.0000000000 0.0000000000 0.0000000000 492.6573013192 0.0686001007 -0.0354182589
-0.4245805510 -0.1177155543 0.0000000000 0.0000000000 0.0000000000 471.0208989396 0.0686001007 -0.0354182589
-0.4207583220 -0.1380259302 0.0000000000 0.0000000000 0.0000000000 444.6256406678 0.0686001007 -0.0354182589
-0.4161000323 -0.1581610027 0.0000000000 0.0000000000 0.0000000000 413.6968870614 0.0686001007 -0.0354182589
-0.4106136405 -0.1780863712 0.0000000000 0.0000000000 0.0000000000 378.4383418601 0.0686001007 -0.0354182589
-0.4043085201 -0.1977679937 0.0000000000 0.0000000000 0.0000000000 339.2134779893 0.0686001007 -0.0354182589
-0.3971954433 -0.2171722444 0.0000000000 0.0000000000 0.0000000000 296.2044696853 0.0686001007 -0.0354182589
-0.3892865626 -0.2362659714 0.0000000000 0.0000000000 0.0000000000 250.0382920923 0.0686001007 -0.0354182589
-0.3805953902 -0.2550165535 0.0000000000 0.0000000000 0.0000000000 200.6137521992 0.0686001007 -0.0354182589
-0.3711367748 -0.2733919556 0.0000000000 0.0000000000 0.0000000000 149.2883353360 0.0686001007 -0.0354182589
-0.3609268764 -0.2913607837 0.0000000000 0.0000000000 0.0000000000 94.7482310290 0.0686001007 -0.0354182589
-0.3499831383 -0.3088923382 0.0000000000 0.0000000000 0.0000000000 40.8478061070 0.0686001007 -0.0354182589
-0.3383242578 -0.3259566668 0.0000000000 0.0000000000 0.0000000000 -18.4370967197 0.0686001007 -0.0354182589
-0.3259701539 -0.3425246154 0.0000000000 0.0000000000 0.0000000000 -69.8879650195 0.0686001007 -0.0354182589
-0.3129419333 -0.3585678780 0.0000000000 0.0000000000 0.0000000000 -137.1207702746 0.0686001007 -0.0354182589
-0.2992618545 -0.3740590449 0.0000000000 0.0000000000 0.0000000000 -165.3764510425 0.0686001007 -0.0354182589
-0.2700406850 -0.4032802144 0.0000000000 0.0000000000 0.0000000000 -317.0140343617 0.0686001007 -0.0354182589
-0.2545495181 -0.4169602932 0.0000000000 0.0000000000 0.0000000000 -359.4483348840 0.0686001007 -0.0354182589
-0.2385062555 -0.4299885138 0.0000000000 0.0000000000 0.0000000000 -395.2723561167 0.0686001007 -0.0354182589
-0.2219383068 -0.4423426177 0.0000000000 0.0000000000 0.0000000000 -449.1915379216 0.0686001007 -0.0354182589
-0.2048739782 -0.4540014982 0.0000000000 0.0000000000 0.0000000000 -488.3942773656 0.0686001007 -0.0354182589
-0.1873424236 -0.4649452362 0.0000000000 0.0000000000 0.0000000000 -530.3454471447 0.0686001007 -0.0354182589
-0.1693735956 -0.4751551346 0.0000000000 0.0000000000 0.0000000000 -564.5949579145 0.0686001007 -0.0354182589
-0.1509981935 -0.4846137500 0.0000000000 0.0000000000 0.0000000000 -596.5871011223 0.0686001007 -0.0354182589
-0.1322476114 -0.4933049223 0.0000000000 0.0000000000 0.0000000000 -622.8110853541 0.0686001007 -0.0354182589
-0.1131538844 -0.5012138030 0.0000000000 0.0000000000 0.0000000000 -645.0532032771 0.0686001007 -0.0354182589
-0.0937496337 -0.5083268798 0.0000000000 0.0000000000 0.0000000000 -662.1129238880 0.0686001007 -0.0354182589
-0.0740680112 -0.5146320002 0.0000000000 0.0000000000 0.0000000000 -674.6811965809 0.0686001007 -0.0354182589
-0.0541426426 -0.5201183919 0.0000000000 0.0000000000 0.0000000000 -682.4640093018 0.0686001007 -0.0354182589
-0.0340075701 -0.5247766816 0.0000000000 0.0000000000 0.0000000000 -685.8863499432 0.0686001007 -0.0354182589
-0.0136971942 -0.5285989107 0.0000000000 0.0000000000 0.0000000000 -685.0834708764 0.0686001007 -0.0354182589
0.0067537853 -0.5315785488 0.0000000000 0.0000000000 0.0000000000 -680.4880294174 0.0686001007 -0.0354182589
0.0273104282 -0.5337105054 0.0000000000 0.0000000000 0.0000000000 -672.4730604785 0.0686001007 -0.0354182589
0.0479376138 -0.5349911381 0.0000000000 0.0000000000 0.0000000000 -661.5420124989 0.0686001007 -0.0354182589
0.0686001010 -0.5354182589 0.0000000000 0.0000000000 0.0000000000 -648.1949991246 0.0686001007 -0.0354182589
0.0892625881 -0.5349911381 0.0000000000 0.0000000000 0.0000000000 -632.9780352660 0.0686001007 -0.0354182589
0.1098897737 -0.5337105054 0.0000000000 0.0000000000 0.0000000000 -616.4244097130 0.0686001007 -0.0354182589
0.1304464166 -0.5315785487 0.0000000000 0.0000000000 0.0000000000 -599.0567658265 0.0686001007 -0.0354182589
0.1508973961 -0.5285989106 0.0000000000 0.0000000000 0.0000000000 -581.3563563631 0.0686001007 -0.0354182589
0.1712077721 -0.5247766815 0.0000000000 0.0000000000 0.0000000000 -563.7544537943 0.0686001007 -0.0354182589
0.1913428445 -0.5201183918 0.0000000000 0.0000000000 0.0000000000 -546.6169024649 0.0686001007 -0.0354182589
0.2112682131 -0.5146320000 0.0000000000 0.0000000000 0.0000000000 -530.2394875125 0.0686001007 -0.0354182589
0.2309498356 -0.5083268797 0.0000000000 0.0000000000 0.0000000000 -514.8437171478 0.0686001007 -0.0354182589
0.2503540863 -0.5012138028 0.0000000000 0.0000000000 0.0000000000 -500.5799644875 0.0686001007 -0.0354182589
0.2694478133 -0.4933049221 0.0000000000 0.0000000000 0.0000000000 -487.5287785184 0.0686001007 -0.0354182589
0.2881983954 -0.4846137497 0.0000000000 0.0000000000 0.0000000000 -475.7135902985 0.0686001007 -0.0354182589
0.3065737975 -0.4751551343 0.0000000000 0.0000000000 0.0000000000 -465.1000155722 0.0686001007 -0.0354182589
0.3245426255 -0.4649452359 0.0000000000 0.0000000000 0.0000000000 -455.6371402605 0.0686001007 -0.0354182589
0.3420741800 -0.4540014978 0.0000000000 0.0000000000 0.0000000000 -447.2276337589 0.0686001007 -0.0354182589
0.3591385086 -0.4423426173 0.0000000000 0.0000000000 0.0000000000 -439.8641153748 0.0686001007 -0.0354182589
0.3757064573 -0.4299885134 0.0000000000 0.0000000000 0.0000000000 -433.4028802781 0.0686001007 -0.0354182589
0.3917497199 -0.4169602928 0.0000000000 0.0000000000 0.0000000000 -428.0854309219 0.0686001007 -0.0354182589
0.4072408867 -0.4032802140 0.0000000000 0.0000000000 0.0000000000 -423.3888108802 0.0686001007 -0.0354182589
0.6197410422 -0.5461075118 0.0000000000 0.2102073258 -0.0421367024 -398.7408889534 0.0699521380 -0.0359779588
0.6383436960 -0.5251883775 0.0000000000 0.1529386534 -0.0569057571 -397.7941192316 0.0698649033 -0.0359728195
0.6561591512 -0.5035934954 0.0000000000 0.1106168308 -0.0740633098 -397.5381735905 0.0697855390 -0.0359761444
0.6731515192 -0.4813464436 0.0000000000 0.0811067995 -0.0928076122 -397.9605813666 0.0697031840 -0.0359813048
0.6892933112 -0.4584765878 0.0000000000 0.0613647965 -0.1122401023 -398.9835764388 0.0696142302 -0.0359865446
0.7045606099 -0.4350154813 0.0000000000 0.0482058947 -0.1315153665 -400.4824511018 0.0695174602 -0.0359914244
0.7189318111 -0.4109959613 0.0000000000 0.0389333544 -0.1499523259 -402.3091618217 0.0694127580 -0.0359959617
0.7323871669 -0.3864518005 0.0000000000 0.0316246863 -0.1670685936 -404.3108958022 0.0693006216 -0.0360003297
0.7449085637 -0.3614175308 0.0000000000 0.0251028761 -0.1825552715 -406.3397155442 0.0691819126 -0.0360047269
0.7564793972 -0.3359283382 0.0000000000 0.0187471507 -0.1962289892 -408.2565573023 0.0690577052 -0.0360093204
0.7670845027 -0.3100199899 0.0000000000 0.0122871844 -0.2079882416 -409.9337554879 0.0689291911 -0.0360142220
0.7767101177 -0.2837287749 0.0000000000 0.0056501052 -0.2177834777 -411.2580418859 0.0687976198 -0.0360194788
0.7853438632 -0.2570914494 0.0000000000 -0.0011324924 -0.2255996379 -412.1339881545 0.0686642587 -0.0360250690
0.7929747339 -0.2301451837 0.0000000000 -0.0079756391 -0.2314469783 -412.4872222630 0.0685303641 -0.0360309002
0.7995930917 -0.2029275094 0.0000000000 -0.0147689320 -0.2353567560 -412.2668987907 0.0683971575 -0.0360368093
0.8051906610 -0.1754762683 0.0000000000 -0.0213931380 -0.2373795731 -411.4471625232 0.0682658060 -0.0360425633
0.8097605264 -0.1478295628 0.0000000000 -0.0277313446 -0.2375849806 -410.0274889145 0.0681374067 -0.0360478636
0.8132971316 -0.1200257088 0.0000000000 -0.0336771953 -0.2360614116 -408.0318580388 0.0680129742 -0.0360523520
0.8157962794 -0.0921031902 0.0000000000 -0.0391412002 -0.2329158275 -405.5067885500 0.0678934315 -0.0360556204
0.8172551330 -0.0641006171 0.0000000000 -0.0440554552 -0.2282727287 -402.5183433872 0.0677796044 -0.0360572217
0.8176722176 -0.0360566842 0.0000000000 -0.0483768459 -0.2222723874 -399.1483072686 0.0676722176 -0.0360566845
0.8170474229 -0.0080101328 0.0000000000 -0.0520887006 -0.2150683173 -395.4898081387 0.0675718944 -0.0360535288
0.8153820065 0.0200002884 0.0000000000 -0.0552007881 -0.2068240755 -391.6426964068 0.0674791586 -0.0360472821
0.8126785971 0.0479358602 0.0000000000 -0.0577474684 -0.1977095154 -387.7090014472 0.0673944397 -0.0360374972
0.8089412012 0.0757579314 0.0000000000 -0.0597836748 -0.1878965887 -383.7887543011 0.0673180816 -0.0360237685
0.8041752094 0.1034279572 0.0000000000 -0.0613782286 -0.1775547673 -379.9764039865 0.0672503545 -0.0360057484
0.7983874047 0.1309075397 0.0000000000 -0.0626038160 -0.1668461581 -376.3579694293 0.0671914706 -0.0359831610
0.7915859714 0.1581584707 0.0000000000 -0.0635228773 -0.1559204555 -373.0089672534 0.0671416018 -0.0359558134
0.7837805022 0.1851427781 0.0000000000 -0.0641688346 -0.1449100397 -369.9930442628 0.0671008979 -0.0359236030
0.7749820036 0.2118227777 0.0000000000 -0.0645227319 -0.1339257810 -367.3611292716 0.0670695059 -0.0358865189
0.7652028970 0.2381611318 0.0000000000 -0.0644866387 -0.1230543631 -365.1508141696 0.0670475855 -0.0358446367
0.7544570108 0.2641209151 0.0000000000 -0.0638570646 -0.1123580856 -363.3856043046 0.0670353190 -0.0357981033
0.7427595609 0.2896656898 0.0000000000 -0.0623037319 -0.1018779561 -362.0736930533 0.0670329100 -0.0357471147
0.7301271078 0.3147595881 0.0000000000 -0.0593604322 -0.0916403547 -361.2060835121 0.0670405628 -0.0356918832
0.7165774852 0.3393673962 0.0000000000 -0.0544341234 -0.0816666348 -360.7542497578 0.0670584325 -0.0356326039
0.7021296895 0.3634546316 0.0000000000 -0.0468349669 -0.0719839347 -360.6680536469 0.0670865401 -0.0355694259
0.6868037368 0.3869875956 0.0000000000 -0.0358238226 -0.0626344684 -360.8751166498 0.0671246562 -0.0355024480
0.6706205011 0.4099333866 0.0000000000 -0.0206665005 -0.0536798449 -361.2830082875 0.0671721663 -0.0354317527
0.6536015316 0.4322598537 0.0000000000 -0.0006787292 -0.0451965802 -361.7852356834 0.0672279198 -0.0353574978
0.6357687114 0.4539354328 0.0000000000 0.0247547477 -0.0372588579 -362.2711895870 0.0672899191 -0.0352801258
0.6171432434 0.4749287808 0.0000000000 0.0561944351 -0.0299057783 -362.6354692190 0.0673543396 -0.0352007726
0.5754358616 0.5167385408 0.0000000000 0.1446075467 -0.0159259645 -362.7181130403 0.0674746829 -0.0350543922
0.5522688332 0.5373163502 0.0000000000 0.2046257329 -0.0086538119 -362.2876323392 0.0675444049 -0.0349967010
0.5282846081 0.5569121046 0.0000000000 0.2749905636 -0.0004631555 -361.5543707318 0.0676250737 -0.0349432775
0.5035240547 0.5754939628 0.0000000000 0.3559338539 0.0096208138 -360.5740842073 0.0677164433 -0.0348925752
0.4780281890 0.5930308278 0.0000000000 0.4466769727 0.0225236365 -359.4083549170 0.0678170705 -0.0348440309
0.4518388986 0.6094927069 0.0000000000 0.5450767450 0.0388633547 -358.1095201957 0.0679251119 -0.0347977589
0.4249992632 0.6248510525 0.0000000000 0.6476325845 0.0587612038 -356.7063035378 0.0680387185 -0.0347542610
0.3975536162 0.6390790023 0.0000000000 0.7499189531 0.0817961082 -355.1881412235 0.0681561747 -0.0347142342
0.3695475069 0.6521515628 0.0000000000 0.8473054816 0.1071081551 -353.4955703896 0.0682759385 -0.0346784323
0.3410276204 0.6640457286 0.0000000000 0.9357151689 0.1335979217 -351.5272344524 0.0683966426 -0.0346475875
0.3120416894 0.6747405558 0.0000000000 1.0121944277 0.1601496458 -349.1629827800 0.0685170876 -0.0346223755
0.2826384072 0.6842172124 0.0000000000 1.0751762194 0.1858183440 -346.2902910527 0.0686362392 -0.0346033995
0.2528673441 0.6924590195 0.0000000000 1.1244357455 0.2099454222 -342.8211395185 0.0687532289 -0.0345911800
0.2227788626 0.6994514905 0.0000000000 1.1608213468 0.2321936104 -338.6952845233 0.0688673561 -0.0345861435
0.1924240289 0.7051823669 0.0000000000 1.1858768992 0.2525140385 -333.8734023973 0.0689780863 -0.0345886107
0.1618545178 0.7096416494 0.0000000000 1.2014627692 0.2710710666 -328.3258086674 0.0690850444 -0.0345987854
0.1311225091 0.7128216230 0.0000000000 1.2094478900 0.2881526859 -322.0213448071 0.0691880001 -0.0346167467
0.1002805768 0.7147168745 0.0000000000 1.2115047141 0.3040884808 -314.9191669632 0.0692868462 -0.0346424443
0.0693815708 0.7153243032 0.0000000000 1.2090053791 0.3191876975 -306.9645870402 0.0693815710 -0.0346756968
0.0384784943 0.7146431264 0.0000000000 1.2029975407 0.3337009378 -298.0889312171 0.0694722252 -0.0347161924
0.0076243779 0.7126748774 0.0000000000 1.1942316483 0.3478027426 -288.2125971315 0.0695588872 -0.0347634923
-0.0231278463 0.7094233991 0.0000000000 1.1832139545 0.3615893884 -277.2501284294 0.0696416273 -0.0348170357
-0.0537254686 0.7048948300 0.0000000000 1.1702664384 0.3750858906 -265.1161359741 0.0697204742 -0.0348761475
-0.0841161229 0.6990975844 0.0000000000 1.1555823498 0.3882573373 -251.7311467113 0.0697953839 -0.0349400496
-0.1142479024 0.6920423246 0.0000000000 1.1392721653 0.4010212819 -237.0267987132 0.0698662132 -0.0350078748
-0.1440694705 0.6837419281 0.0000000000 1.1213987716 0.4132593723 -220.9501066619 0.0699326979 -0.0350786837
-0.1735301658 0.6742114482 0.0000000000 1.1020028593 0.4248274458 -203.4667392016 0.0699944363 -0.0351514831
-0.2025801008 0.6634680709 0.0000000000 1.0811203737 0.4355639535 -184.5633721598 0.0700508773 -0.0352252451
-0.2311702554 0.6515310695 0.0000000000 1.0587939674 0.4452968909 -164.2492309907 0.0701013133 -0.0352989254
-0.2592525672 0.6384217578 0.0000000000 1.0350801323 0.4538495204 -142.5569401391 0.0701448747 -0.0353714786
-0.2867800216 0.6241634446 0.0000000000 1.0100533143 0.4610451618 -119.5427792318 0.0701805234 -0.0354418687
-0.3137067544 0.6087813955 0.0000000000 0.9838079519 0.4667112709 -95.2864217387 0.0702070326 -0.0355090701
-0.3399881879 0.5923028105 0.0000000000 0.9564590861 0.4706829465 -69.8901988989 0.0702229308 -0.0355720481
-0.3655812646 0.5747568463 0.0000000000 0.9281419772 0.4728059094 -43.4779227275 0.0702263471 -0.0356296915
-0.3904449511 0.5561747704 0.0000000000 0.8990109790 0.4729387852 -16.1930850456 0.0702145836 -0.0356806115
-0.4145416429 0.5365906274 0.0000000000 0.8692380912 0.4709540805 11.8032120723 0.0701827857 -0.0357224237
-0.4378421070 0.5160443423 0.0000000000 0.8390107592 0.4667334839 40.3395648684 0.0701190719 -0.0357485905
-0.4817738462 0.4721314059 0.0000000000 0.7780243461 0.4514127809 98.1509652367 0.0700190870 -0.0358297726
-0.5023279683 0.4488323495 0.0000000000 0.7476658504 0.4402290782 127.0292805557 0.0699850830 -0.0358920787
-0.5219362368 0.4247169546 0.0000000000 0.7177011110 0.4266048233 155.6195813990 0.0699191454 -0.0359425797
-0.5405536641 0.3998210372 0.0000000000 0.6883570861 0.4105629584 183.6918212286 0.0698328740 -0.0359865741
-0.5581438223 0.3741849334 0.0000000000 0.6598604294 0.3921395164 211.0198165529 0.0697310366 -0.0360261850
-0.5746740255 0.3478511241 0.0000000000 0.6324332658 0.3713919153 237.3819064669 0.0696164404 -0.0360626625
-0.5901140576 0.3208636448 0.0000000000 0.6062914006 0.3483992449 262.5624188147 0.0694912559 -0.0360968998
-0.6044358020 0.2932678689 0.0000000000 0.5816419825 0.3232618189 286.3537960899 0.0693574346 -0.0361295725
-0.6176131378 0.2651103847 0.0000000000 0.5586814018 0.2961000849 308.5587230623 0.0692168573 -0.0361611835
-0.6296219337 0.2364388991 0.0000000000 0.5375933540 0.2670532358 328.9921288286 0.0690713824 -0.0361920786
-0.6404400785 0.2073021496 0.0000000000 0.5185471269 0.2362775992 347.4829949668 0.0689228528 -0.0362224520
-0.6500475277 0.1777498159 0.0000000000 0.5016961223 0.2039448715 363.8759409664 0.0687730842 -0.0362523520
-0.6584263534 0.1478324274 0.0000000000 0.4871766233 0.1702402451 378.0325731769 0.0686238462 -0.0362816877
-0.6655607923 0.1176012676 0.0000000000 0.4751068106 0.1353604625 389.8325953597 0.0684768418 -0.0363102387
-0.6714372881 0.0871082737 0.0000000000 0.4655860110 0.0995118202 399.1746861637 0.0683336895 -0.0363376687
-0.6760445246 0.0564059310 0.0000000000 0.4586941400 0.0629081404 405.9771492004 0.0681959102 -0.0363635422
-0.6793734494 0.0255471628 0.0000000000 0.4544912884 0.0257687344 410.1783371737 0.0680649204 -0.0363873460
-0.6814172878 -0.0054147851 0.0000000000 0.4530174263 -0.0116835994 411.7368532663 0.0679420310 -0.0364085155
-0.6821715494 -0.0364264652 0.0000000000 0.4542922386 -0.0492244970 410.6315428655 0.0678284506 -0.0364264649
-0.6816340276 -0.0674343526 0.0000000000 0.4583151557 -0.0866298421 406.8613100881 0.0677252911 -0.0364406216
-0.6798047941 -0.0983849715 0.0000000000 0.4650656068 -0.1236774641 400.4447880692 0.0676335756 -0.0364504620
-0.6766861873 -0.1292250214 0.0000000000 0.4745035088 -0.1601487213 391.4198881690 0.0675542474 -0.0364555477
-0.6722827929 -0.1599015018 0.0000000000 0.4865700065 -0.1958299927 379.8432556585 0.0674881846 -0.0364555588
-0.6666014115 -0.1903618306 0.0000000000 0.5011884087 -0.2305141120 365.7896312508 0.0674362225 -0.0364503236