 TITLE = "Tecplot data"
 VARIABLES = "X", "Y", "Z" "U", "V", "p", "dispX", "dispY"
 ZONE SOLUTIONTIME=91.900000, NODES=26114 , ELEMENTS=25916, DATAPACKING=POINT, ZONETYPE=FEQUADRILATERAL
0.7972668124 -2.2400609348 0.0000000000 0.0000000000 0.0000000000 24.6421701781 0.4437134218 -2.5936143254
0.7972668127 -2.9471677158 0.0000000000 0.0000000000 0.0000000000 -1983.4983679633 0.4437134218 -2.5936143254
0.0901600311 -2.2400609349 0.0000000000 0.0000000000 0.0000000000 297.6084756225 0.4437134218 -2.5936143254
0.0901600314 -2.9471677162 0.0000000000 0.0000000000 0.0000000000 -1563.5790625474 0.4437134218 -2.5936143254
0.9645279664 -2.0589357159 0.0000000000 0.1842104741 -0.1796890143 24.2962591827 0.4341978805 -2.5892658019
0.9661853240 -3.2099444331 0.0000000000 1.2498047221 0.4433437051 -649.2939563964 0.4358552377 -2.6796143476
-0.1136519307 -2.1310298661 0.0000000000 0.1702922734 0.0278857809 340.5026913505 0.4166781554 -2.6613599518
-0.0639815649 -3.1669139198 0.0000000000 1.4513899677 -0.9021469112 -611.6404978226 0.4663485207 -2.6365838336
1.4615440582 -1.5656010349 0.0000000000 0.3818097994 -0.2078221508 -5.8799842000 0.4008838865 -2.6262612067
1.5288129892 -3.7192600894 0.0000000000 1.1364247699 -0.0429584128 -248.7408519627 0.4681528166 -2.6585999184
-0.7040290792 -1.7666356100 0.0000000000 0.5145784711 -0.2201008883 280.7648917200 0.3566310929 -2.8272957814
-0.5507091180 -3.8371757775 0.0000000000 1.1728526784 -0.3792784624 -139.0226201672 0.5099510532 -2.7765156052
4.3657229040 0.9985059297 0.0000000000 0.3003709216 0.1309169336 -205.8720249701 0.1657229040 -2.3014940703
4.8554637174 -5.5939796157 0.0000000000 1.2298755180 -0.0382816684 -146.5635450755 0.6554637174 -2.2939796157
20.0000000000 4.7000000000 0.0000000000 1.0273405228 -0.0909083705 -0.2973191220 0.0000000000 0.0000000000
20.0000000000 -4.7000000000 0.0000000000 1.0405552563 -0.0763038852 1.0501479307 0.0000000000 0.0000000000
-10.0000000000 15.0000000000 0.0000000000 1.0000000000 0.0000000000 42.7213429298 0.0000000000 0.0000000000
20.0000000000 15.0000000000 0.0000000000 1.0482656321 0.0000000000 0.0084527659 0.0000000000 0.0000000000
20.0000000000 -15.0000000000 0.0000000000 1.0402945740 0.0000000000 0.0496090032 0.0000000000 0.0000000000
-10.0000000000 -15.0000000000 0.0000000000 1.0000000000 0.0000000000 -19.8838010274 0.0000000000 0.0000000000
0.8102393580 -2.9337006941 0.0000000000 0.0000000000 0.0000000000 -1360.2375449908 0.4437134218 -2.5936143254
0.8226992836 -2.9197580308 0.0000000000 0.0000000000 0.0000000000 -1341.6192461039 0.4437134218 -2.5936143254
0.8346291632 -2.9053592261 0.0000000000 0.0000000000 0.0000000000 -1286.3655072053 0.4437134218 -2.5936143254
0.8460123119 -2.8905244179 0.0000000000 0.0000000000 0.0000000000 -1187.5945811873 0.4437134218 -2.5936143254
0.8568328091 -2.8752743542 0.0000000000 0.0000000000 0.0000000000 -1130.0386205556 0.4437134218 -2.5936143254
0.8670755216 -2.8596303634 0.0000000000 0.0000000000 0.0000000000 -1049.9679659630 0.4437134218 -2.5936143254
0.8767261238 -2.8436143252 0.0000000000 0.0000000000 0.0000000000 -985.6399532959 0.4437134218 -2.5936143254
0.8857711187 -2.8272486393 0.0000000000 0.0000000000 0.0000000000 -914.5905762917 0.4437134218 -2.5936143254
0.8941978559 -2.8105561947 0.0000000000 0.0000000000 0.0000000000 -850.8950861692 0.4437134218 -2.5936143254
0.9019945499 -2.7935603373 0.0000000000 0.0000000000 0.0000000000 -786.0269230261 0.4437134218 -2.5936143254
0.9091502962 -2.7762848374 0.0000000000 0.0000000000 0.0000000000 -725.7435148369 0.4437134218 -2.5936143254
0.9156550870 -2.7587538561 0.0000000000 0.0000000000 0.0000000000 -667.2988706620 0.4437134218 -2.5936143254
0.9214998248 -2.7409919124 0.0000000000 0.0000000000 0.0000000000 -604.6029802140 0.4437134218 -2.5936143254
0.9266763350 -2.7230238477 0.0000000000 0.0000000000 0.0000000000 -567.9989254555 0.4437134218 -2.5936143254
0.9311773779 -2.7048747922 0.0000000000 0.0000000000 0.0000000000 -499.0976884857 0.4437134218 -2.5936143254
0.9349966585 -2.6865701288 0.0000000000 0.0000000000 0.0000000000 -468.1987675175 0.4437134218 -2.5936143254
0.9381288350 -2.6681354583 0.0000000000 0.0000000000 0.0000000000 -415.8709786824 0.4437134218 -2.5936143254
0.9405695268 -2.6495965633 0.0000000000 0.0000000000 0.0000000000 -374.0379545240 0.4437134218 -2.5936143254
0.9423153204 -2.6309793720 0.0000000000 0.0000000000 0.0000000000 -332.5888851207 0.4437134218 -2.5936143254
0.9433637742 -2.6123099224 0.0000000000 0.0000000000 0.0000000000 -297.4672267208 0.4437134218 -2.5936143254
0.9437134218 -2.5936143252 0.0000000000 0.0000000000 0.0000000000 -263.5247316720 0.4437134218 -2.5936143254
0.9433637742 -2.5749187281 0.0000000000 0.0000000000 0.0000000000 -233.1747934551 0.4437134218 -2.5936143254
0.9423153204 -2.5562492784 0.0000000000 0.0000000000 0.0000000000 -205.4145479841 0.4437134218 -2.5936143254
0.9405695267 -2.5376320872 0.0000000000 0.0000000000 0.0000000000 -180.0187752645 0.4437134218 -2.5936143254
0.9381288349 -2.5190931922 0.0000000000 0.0000000000 0.0000000000 -156.5889337916 0.4437134218 -2.5936143254
0.9349966584 -2.5006585217 0.0000000000 0.0000000000 0.0000000000 -135.1847899497 0.4437134218 -2.5936143254
0.9311773779 -2.4823538583 0.0000000000 0.0000000000 0.0000000000 -115.6488503041 0.4437134218 -2.5936143254
0.9266763349 -2.4642048027 0.0000000000 0.0000000000 0.0000000000 -97.4544205702 0.4437134218 -2.5936143254
0.9214998247 -2.4462367381 0.0000000000 0.0000000000 0.0000000000 -81.3085537749 0.4437134218 -2.5936143254
0.9156550869 -2.4284747943 0.0000000000 0.0000000000 0.0000000000 -66.3110846269 0.4437134218 -2.5936143254
0.9091502961 -2.4109438131 0.0000000000 0.0000000000 0.0000000000 -50.2764342811 0.4437134218 -2.5936143254
0.9019945497 -2.3936683132 0.0000000000 0.0000000000 0.0000000000 -40.8646215708 0.4437134218 -2.5936143254
0.8941978557 -2.3766724558 0.0000000000 0.0000000000 0.0000000000 -28.5907711886 0.4437134218 -2.5936143254
0.8857711185 -2.3599800112 0.0000000000 0.0000000000 0.0000000000 -18.4368253386 0.4437134218 -2.5936143254
0.8767261236 -2.3436143253 0.0000000000 0.0000000000 0.0000000000 -10.8938519564 0.4437134218 -2.5936143254
0.8670755214 -2.3275982871 0.0000000000 0.0000000000 0.0000000000 -2.1801135374 0.4437134218 -2.5936143254
0.8568328089 -2.3119542963 0.0000000000 0.0000000000 0.0000000000 3.0828036028 0.4437134218 -2.5936143254
0.8460123116 -2.2967042326 0.0000000000 0.0000000000 0.0000000000 10.3431171925 0.4437134218 -2.5936143254
0.8346291630 -2.2818694244 0.0000000000 0.0000000000 0.0000000000 13.1958135936 0.4437134218 -2.5936143254
0.8226992833 -2.2674706197 0.0000000000 0.0000000000 0.0000000000 19.1969537780 0.4437134218 -2.5936143254
0.8102393577 -2.2535279565 0.0000000000 0.0000000000 0.0000000000 20.6002965565 0.4437134218 -2.5936143254
0.7823542076 -2.2257523701 0.0000000000 0.0000000000 0.0000000000 26.3888547649 0.4437134218 -2.5936143254
0.7668630407 -2.2120722913 0.0000000000 0.0000000000 0.0000000000 29.1448119581 0.4437134218 -2.5936143254
0.7508197781 -2.1990440707 0.0000000000 0.0000000000 0.0000000000 30.9605219182 0.4437134218 -2.5936143254
0.7342518295 -2.1866899668 0.0000000000 0.0000000000 0.0000000000 33.4065520316 0.4437134218 -2.5936143254
0.7171875008 -2.1750310863 0.0000000000 0.0000000000 0.0000000000 35.7113277270 0.4437134218 -2.5936143254
0.6996559463 -2.1640873482 0.0000000000 0.0000000000 0.0000000000 38.5939422028 0.4437134218 -2.5936143254
0.6816871183 -2.1538774498 0.0000000000 0.0000000000 0.0000000000 41.6766662900 0.4437134218 -2.5936143254
0.6633117162 -2.1444188344 0.0000000000 0.0000000000 0.0000000000 45.2772773912 0.4437134218 -2.5936143254
0.6445611341 -2.1357276621 0.0000000000 0.0000000000 0.0000000000 49.2090298837 0.4437134218 -2.5936143254
0.6254674070 -2.1278187814 0.0000000000 0.0000000000 0.0000000000 53.6056271481 0.4437134218 -2.5936143254
0.6060631563 -2.1207057046 0.0000000000 0.0000000000 0.0000000000 58.3694251053 0.4437134218 -2.5936143254
0.5863815338 -2.1144005842 0.0000000000 0.0000000000 0.0000000000 63.5530543134 0.4437134218 -2.5936143254
0.5664561653 -2.1089141924 0.0000000000 0.0000000000 0.0000000000 69.1053428192 0.4437134218 -2.5936143254
0.5463210928 -2.1042559027 0.0000000000 0.0000000000 0.0000000000 75.0451671412 0.4437134218 -2.5936143254
0.5260107169 -2.1004336737 0.0000000000 0.0000000000 0.0000000000 81.3450991144 0.4437134218 -2.5936143254
0.5055597373 -2.0974540355 0.0000000000 0.0000000000 0.0000000000 88.0095407944 0.4437134218 -2.5936143254
0.4850030944 -2.0953220789 0.0000000000 0.0000000000 0.0000000000 95.0222145592 0.4437134218 -2.5936143254
0.4643759088 -2.0940414462 0.0000000000 0.0000000000 0.0000000000 102.3807620394 0.4437134218 -2.5936143254
0.4437134217 -2.0936143254 0.0000000000 0.0000000000 0.0000000000 110.0734120894 0.4437134218 -2.5936143254
0.4230509346 -2.0940414462 0.0000000000 0.0000000000 0.0000000000 118.0940165017 0.4437134218 -2.5936143254
0.4024237490 -2.0953220789 0.0000000000 0.0000000000 0.0000000000 126.4317721161 0.4437134218 -2.5936143254
0.3818671061 -2.0974540356 0.0000000000 0.0000000000 0.0000000000 135.0775632238 0.4437134218 -2.5936143254
0.3614161266 -2.1004336737 0.0000000000 0.0000000000 0.0000000000 144.0193867113 0.4437134218 -2.5936143254
0.3411057506 -2.1042559028 0.0000000000 0.0000000000 0.0000000000 153.2448562684 0.4437134218 -2.5936143254
0.3209706781 -2.1089141925 0.0000000000 0.0000000000 0.0000000000 162.7390455895 0.4437134218 -2.5936143254
0.3010453096 -2.1144005842 0.0000000000 0.0000000000 0.0000000000 172.4852885850 0.4437134218 -2.5936143254
0.2813636871 -2.1207057046 0.0000000000 0.0000000000 0.0000000000 182.4639856472 0.4437134218 -2.5936143254
0.2619594364 -2.1278187814 0.0000000000 0.0000000000 0.0000000000 192.6526299864 0.4437134218 -2.5936143254
0.2428657094 -2.1357276622 0.0000000000 0.0000000000 0.0000000000 203.0249117918 0.4437134218 -2.5936143254
0.2241151273 -2.1444188345 0.0000000000 0.0000000000 0.0000000000 213.5504007900 0.4437134218 -2.5936143254
0.2057397252 -2.1538774499 0.0000000000 0.0000000000 0.0000000000 224.1935663087 0.4437134218 -2.5936143254
0.1877708971 -2.1640873483 0.0000000000 0.0000000000 0.0000000000 234.9134713424 0.4437134218 -2.5936143254
0.1702393426 -2.1750310864 0.0000000000 0.0000000000 0.0000000000 245.6621180431 0.4437134218 -2.5936143254
0.1531750140 -2.1866899669 0.0000000000 0.0000000000 0.0000000000 256.3855116880 0.4437134218 -2.5936143254
0.1366070653 -2.1990440708 0.0000000000 0.0000000000 0.0000000000 267.0169317546 0.4437134218 -2.5936143254
0.1205638028 -2.2120722914 0.0000000000 0.0000000000 0.0000000000 277.4925138803 0.4437134218 -2.5936143254
0.1050726359 -2.2257523702 0.0000000000 0.0000000000 0.0000000000 287.7006220866 0.4437134218 -2.5936143254
0.0758514664 -2.2549735397 0.0000000000 0.0000000000 0.0000000000 306.9840878685 0.4437134218 -2.5936143254
0.0621713876 -2.2704647066 0.0000000000 0.0000000000 0.0000000000 315.8417123593 0.4437134218 -2.5936143254
0.0491431670 -2.2865079692 0.0000000000 0.0000000000 0.0000000000 323.2474669823 0.4437134218 -2.5936143254
0.0367890631 -2.3030759179 0.0000000000 0.0000000000 0.0000000000 331.5552493826 0.4437134218 -2.5936143254
0.0251301826 -2.3201402465 0.0000000000 0.0000000000 0.0000000000 337.3674974861 0.4437134218 -2.5936143254
0.0141864445 -2.3376718010 0.0000000000 0.0000000000 0.0000000000 342.3373209758 0.4437134218 -2.5936143254
0.0039765461 -2.3556406291 0.0000000000 0.0000000000 0.0000000000 345.9621948395 0.4437134218 -2.5936143254
-0.0054820692 -2.3740160312 0.0000000000 0.0000000000 0.0000000000 347.9376120680 0.4437134218 -2.5936143254
-0.0141732416 -2.3927666133 0.0000000000 0.0000000000 0.0000000000 348.0640034182 0.4437134218 -2.5936143254
-0.0220821223 -2.4118603403 0.0000000000 0.0000000000 0.0000000000 346.7275348679 0.4437134218 -2.5936143254
-0.0291951991 -2.4312645910 0.0000000000 0.0000000000 0.0000000000 340.9392797815 0.4437134218 -2.5936143254
-0.0355003195 -2.4509462135 0.0000000000 0.0000000000 0.0000000000 336.1347662128 0.4437134218 -2.5936143254
-0.0409867112 -2.4708715820 0.0000000000 0.0000000000 0.0000000000 324.6502013872 0.4437134218 -2.5936143254
-0.0456450009 -2.4910066545 0.0000000000 0.0000000000 0.0000000000 311.4070819237 0.4437134218 -2.5936143254
-0.0494672299 -2.5113170305 0.0000000000 0.0000000000 0.0000000000 293.6013109013 0.4437134218 -2.5936143254
-0.0524468681 -2.5317680100 0.0000000000 0.0000000000 0.0000000000 271.2960907015 0.4437134218 -2.5936143254
-0.0545788247 -2.5523246529 0.0000000000 0.0000000000 0.0000000000 244.0149263421 0.4437134218 -2.5936143254
-0.0558594574 -2.5729518385 0.0000000000 0.0000000000 0.0000000000 211.6281142667 0.4437134218 -2.5936143254
-0.0562865782 -2.5936143256 0.0000000000 0.0000000000 0.0000000000 173.7844561144 0.4437134218 -2.5936143254
-0.0558594574 -2.6142768128 0.0000000000 0.0000000000 0.0000000000 130.7575404772 0.4437134218 -2.5936143254
-0.0545788247 -2.6349039984 0.0000000000 0.0000000000 0.0000000000 82.1590199863 0.4437134218 -2.5936143254
-0.0524468680 -2.6554606413 0.0000000000 0.0000000000 0.0000000000 28.7358332476 0.4437134218 -2.5936143254
-0.0494672299 -2.6759116208 0.0000000000 0.0000000000 0.0000000000 -30.2849882500 0.4437134218 -2.5936143254
-0.0456450008 -2.6962219967 0.0000000000 0.0000000000 0.0000000000 -93.3074450410 0.4437134218 -2.5936143254
-0.0409867111 -2.7163570692 0.0000000000 0.0000000000 0.0000000000 -162.3968912576 0.4437134218 -2.5936143254
-0.0355003194 -2.7362824378 0.0000000000 0.0000000000 0.0000000000 -232.9405273545 0.4437134218 -2.5936143254
-0.0291951990 -2.7559640602 0.0000000000 0.0000000000 0.0000000000 -314.0779848514 0.4437134218 -2.5936143254
-0.0220821221 -2.7753683109 0.0000000000 0.0000000000 0.0000000000 -383.5729614594 0.4437134218 -2.5936143254
-0.0141732414 -2.7944620380 0.0000000000 0.0000000000 0.0000000000 -478.6470736520 0.4437134218 -2.5936143254
-0.0054820690 -2.8132126201 0.0000000000 0.0000000000 0.0000000000 -567.2533745858 0.4437134218 -2.5936143254
0.0039765463 -2.8315880222 0.0000000000 0.0000000000 0.0000000000 -653.3472693503 0.4437134218 -2.5936143254
0.0141864447 -2.8495568502 0.0000000000 0.0000000000 0.0000000000 -567.0137423811 0.4437134218 -2.5936143254
0.0251301828 -2.8670884047 0.0000000000 0.0000000000 0.0000000000 -834.9491866858 0.4437134218 -2.5936143254
0.0367890633 -2.8841527333 0.0000000000 0.0000000000 0.0000000000 -1766.7284358150 0.4437134218 -2.5936143254
0.0491431673 -2.9007206820 0.0000000000 0.0000000000 0.0000000000 -3410.9758832169 0.4437134218 -2.5936143254
0.0621713879 -2.9167639445 0.0000000000 0.0000000000 0.0000000000 1344.2531615783 0.4437134218 -2.5936143254
0.0758514666 -2.9322551114 0.0000000000 0.0000000000 0.0000000000 -3163.7258529906 0.4437134218 -2.5936143254
0.1050726362 -2.9614762809 0.0000000000 0.0000000000 0.0000000000 1481.1485834574 0.4437134218 -2.5936143254
0.1205638031 -2.9751563597 0.0000000000 0.0000000000 0.0000000000 -2270.9873770503 0.4437134218 -2.5936143254
0.1366070657 -2.9881845803 0.0000000000 0.0000000000 0.0000000000 -2014.6260660917 0.4437134218 -2.5936143254
0.1531750143 -3.0005386842 0.0000000000 0.0000000000 0.0000000000 -3020.1905702033 0.4437134218 -2.5936143254
0.1702393430 -3.0121975647 0.0000000000 0.0000000000 0.0000000000 -2165.0872449318 0.4437134218 -2.5936143254
0.1877708975 -3.0231413028 0.0000000000 0.0000000000 0.0000000000 -2247.2174446407 0.4437134218 -2.5936143254
0.2057397255 -3.0333512012 0.0000000000 0.0000000000 0.0000000000 -1890.0077466512 0.4437134218 -2.5936143254
0.2241151276 -3.0428098165 0.0000000000 0.0000000000 0.0000000000 -2032.7656579229 0.4437134218 -2.5936143254
0.2428657097 -3.0515009889 0.0000000000 0.0000000000 0.0000000000 -1973.1747800978 0.4437134218 -2.5936143254
0.2619594368 -3.0594098696 0.0000000000 0.0000000000 0.0000000000 -2121.3833962276 0.4437134218 -2.5936143254
0.2813636875 -3.0665229464 0.0000000000 0.0000000000 0.0000000000 -2143.6066189154 0.4437134218 -2.5936143254
0.3010453100 -3.0728280667 0.0000000000 0.0000000000 0.0000000000 -2254.3827564765 0.4437134218 -2.5936143254
0.3209706785 -3.0783144585 0.0000000000 0.0000000000 0.0000000000 -2291.3182652891 0.4437134218 -2.5936143254
0.3411057510 -3.0829727482 0.0000000000 0.0000000000 0.0000000000 -2366.3131002846 0.4437134218 -2.5936143254
0.3614161270 -3.0867949772 0.0000000000 0.0000000000 0.0000000000 -2397.9710117051 0.4437134218 -2.5936143254
0.3818671065 -3.0897746153 0.0000000000 0.0000000000 0.0000000000 -2444.4950987480 0.4437134218 -2.5936143254
0.4024237494 -3.0919065720 0.0000000000 0.0000000000 0.0000000000 -2464.5555552327 0.4437134218 -2.5936143254
0.4230509350 -3.0931872046 0.0000000000 0.0000000000 0.0000000000 -2488.2125374894 0.4437134218 -2.5936143254
0.4437134221 -3.0936143254 0.0000000000 0.0000000000 0.0000000000 -2494.5153781034 0.4437134218 -2.5936143254
0.4643759092 -3.0931872046 0.0000000000 0.0000000000 0.0000000000 -2498.8571550479 0.4437134218 -2.5936143254
0.4850030949 -3.0919065719 0.0000000000 0.0000000000 0.0000000000 -2490.7852647214 0.4437134218 -2.5936143254
0.5055597378 -3.0897746153 0.0000000000 0.0000000000 0.0000000000 -2478.1249546229 0.4437134218 -2.5936143254
0.5260107173 -3.0867949771 0.0000000000 0.0000000000 0.0000000000 -2455.8441641204 0.4437134218 -2.5936143254
0.5463210932 -3.0829727480 0.0000000000 0.0000000000 0.0000000000 -2427.9314908768 0.4437134218 -2.5936143254
0.5664561657 -3.0783144583 0.0000000000 0.0000000000 0.0000000000 -2392.1419764879 0.4437134218 -2.5936143254
0.5863815342 -3.0728280666 0.0000000000 0.0000000000 0.0000000000 -2350.5661363919 0.4437134218 -2.5936143254
0.6060631567 -3.0665229462 0.0000000000 0.0000000000 0.0000000000 -2302.4018715002 0.4437134218 -2.5936143254
0.6254674074 -3.0594098693 0.0000000000 0.0000000000 0.0000000000 -2248.7747734137 0.4437134218 -2.5936143254
0.6445611344 -3.0515009886 0.0000000000 0.0000000000 0.0000000000 -2189.7898483737 0.4437134218 -2.5936143254
0.6633117165 -3.0428098162 0.0000000000 0.0000000000 0.0000000000 -2125.7527158765 0.4437134218 -2.5936143254
0.6816871186 -3.0333512009 0.0000000000 0.0000000000 0.0000000000 -2057.9430597583 0.4437134218 -2.5936143254
0.6996559466 -3.0231413024 0.0000000000 0.0000000000 0.0000000000 -1984.6945723882 0.4437134218 -2.5936143254
0.7171875012 -3.0121975644 0.0000000000 0.0000000000 0.0000000000 -1911.7024549478 0.4437134218 -2.5936143254
0.7342518298 -3.0005386839 0.0000000000 0.0000000000 0.0000000000 -1832.0959494092 0.4437134218 -2.5936143254
0.7508197784 -2.9881845799 0.0000000000 0.0000000000 0.0000000000 -1751.1654934790 0.4437134218 -2.5936143254
0.7668630410 -2.9751563593 0.0000000000 0.0000000000 0.0000000000 -1664.4254370948 0.4437134218 -2.5936143254
0.7823542079 -2.9614762805 0.0000000000 0.0000000000 0.0000000000 -1441.0408196628 0.4437134218 -2.5936143254
0.9838758006 -3.1880677258 0.0000000000 1.2124977413 0.4584688256 -627.4704565820 0.4340868964 -2.6779381728
1.0022881297 -3.1684598605 0.0000000000 1.1746832212 0.4670233540 -600.7087721625 0.4338093370 -2.6792443024
1.0201260200 -3.1488884557 0.0000000000 1.1369251912 0.4730658129 -573.6718211202 0.4337524079 -2.6812711047
1.0371991558 -3.1288225530 0.0000000000 1.0990492212 0.4773643529 -546.6538820037 0.4337508207 -2.6834574143
1.0534227764 -3.1080751933 0.0000000000 1.0609885819 0.4802475628 -519.8993379133 0.4337436954 -2.6855851501
1.0687371760 -3.0865801749 0.0000000000 1.0227063721 0.4818598515 -493.5068800232 0.4336940263 -2.6875561179
1.0830981942 -3.0643239892 0.0000000000 0.9841858725 0.4822657926 -467.5374658578 0.4335791411 -2.6893239896
1.0964751480 -3.0413189153 0.0000000000 0.9454224191 0.4814808145 -442.0246760327 0.4333886027 -2.6908674445
1.1088485310 -3.0175903649 0.0000000000 0.9064231783 0.4794874922 -416.9869400256 0.4331218799 -2.6921775610
1.1202073147 -2.9931703362 0.0000000000 0.8672092796 0.4762454249 -392.4353081144 0.4327856226 -2.6932513184
1.1305464786 -2.9680938917 0.0000000000 0.8278185178 0.4716983544 -368.3789522466 0.4323911670 -2.6940881238
1.1398651220 -2.9423972177 0.0000000000 0.7883077740 0.4657796884 -344.8285841473 0.4319526241 -2.6946879217
1.1481651612 -2.9161165101 0.0000000000 0.7487549148 0.4584171172 -321.7982918116 0.4314855567 -2.6950501297
1.1554504460 -2.8892872939 0.0000000000 0.7092601451 0.4495368343 -299.3063215052 0.4310060762 -2.6951730105
1.1617261171 -2.8619439924 0.0000000000 0.6699468274 0.4390677439 -277.3752256414 0.4305301829 -2.6950532923
1.1669980835 -2.8341196674 0.0000000000 0.6309617385 0.4269459185 -256.0316556113 0.4300732285 -2.6946859624
1.1712725652 -2.8058459062 0.0000000000 0.5924746359 0.4131194400 -235.3059676305 0.4296494455 -2.6940642069
1.1745556878 -2.7771528485 0.0000000000 0.5546769458 0.3975536412 -215.2317138412 0.4292715303 -2.6931794917
1.1768531379 -2.7480693570 0.0000000000 0.5177793589 0.3802367164 -195.8450183850 0.4289502900 -2.6920217871
1.1781698950 -2.7186233314 0.0000000000 0.4820080145 0.3611855422 -177.1838162687 0.4286943664 -2.6905799360
1.1785100479 -2.6888421628 0.0000000000 0.4475989020 0.3404512607 -159.2869092956 0.4285100479 -2.6888421631
1.1778766947 -2.6587533164 0.0000000000 0.4147903422 0.3181239346 -142.1927513496 0.4284011661 -2.6867967124
1.1762719195 -2.6283850204 0.0000000000 0.3838138180 0.2943355630 -125.9379215554 0.4283690716 -2.6844325908
1.1736968323 -2.5977670291 0.0000000000 0.3548837250 0.2692607980 -110.5553886756 0.4284126749 -2.6817403864
1.1701516679 -2.5669314169 0.0000000000 0.3281867816 0.2431147533 -96.0727654338 0.4285285482 -2.6787131168
1.1656359421 -2.5359133539 0.0000000000 0.3038720213 0.2161475572 -82.5107278870 0.4287110872 -2.6753470595
1.1601486806 -2.5047518076 0.0000000000 0.2820423465 0.1886358187 -69.8817464948 0.4289527465 -2.6716425083
1.1536887392 -2.4734901170 0.0000000000 0.2627484557 0.1608716375 -58.1892426774 0.4292443695 -2.6676044010
1.1462552443 -2.4421763852 0.0000000000 0.2459857059 0.1331499824 -47.4271703214 0.4295756400 -2.6632427662
1.1378481771 -2.4108636403 0.0000000000 0.2316935796 0.1057544025 -37.5800851683 0.4299356794 -2.6585729369
1.1284691186 -2.3796097161 0.0000000000 0.2197574872 0.0789399721 -28.6234261985 0.4303138072 -2.6536154846
1.1181221508 -2.3484768043 0.0000000000 0.2100134899 0.0529126604 -20.5235484704 0.4307004590 -2.6483958227
1.1068148674 -2.3175306263 0.0000000000 0.2022552179 0.0278041066 -13.2380988455 0.4310882165 -2.6429434308
1.0945593557 -2.2868391822 0.0000000000 0.1962443214 0.0036434663 -6.7166773424 0.4314728106 -2.6372906535
1.0813728564 -2.2564710833 0.0000000000 0.1917258519 -0.0196655909 -0.9021750895 0.4318538036 -2.6314710835
1.0672775987 -2.2264936307 0.0000000000 0.1884478653 -0.0423491711 4.2663855674 0.4322344493 -2.6255176883
1.0522992192 -2.1969711392 0.0000000000 0.1861809016 -0.0647355353 8.8488040572 0.4326201385 -2.6194611828
1.0364634487 -2.1679645793 0.0000000000 0.1847336320 -0.0871866932 12.8979706690 0.4330151139 -2.6133297186
1.0197914560 -2.1395345269 0.0000000000 0.1839582142 -0.1099916853 16.4544702414 0.4334178442 -2.6071518784
1.0022938160 -2.1117524641 0.0000000000 0.1837443695 -0.1332346761 19.5443683737 0.4338150237 -2.6009680226
0.9839632929 -2.0847330938 0.0000000000 0.1839680999 -0.1566671717 22.1786146051 0.4341743891 -2.5948626472
0.9415522588 -2.0307106402 0.0000000000 0.1852101919 -0.2032612860 26.2389341159 0.4335910802 -2.5825035733
0.9174925981 -2.0046371793 0.0000000000 0.1862459359 -0.2213192072 27.6901014201 0.4327681698 -2.5769502305
0.8926621055 -1.9801358989 0.0000000000 0.1874707170 -0.2313145513 28.8344286596 0.4320025710 -2.5719912810
0.8671010904 -1.9571344235 0.0000000000 0.1888026413 -0.2313664734 29.8883635066 0.4312934789 -2.5675209615
0.8408427328 -1.9356164684 0.0000000000 0.1901460479 -0.2210472244 31.0813398470 0.4306316143 -2.5634913272
0.8139120965 -1.9155925989 0.0000000000 0.1914183121 -0.2017568689 32.6234330595 0.4299983098 -2.5598830647
0.7863325819 -1.8970910979 0.0000000000 0.1925624470 -0.1764987034 34.6851015612 0.4293720373 -2.5566964113
0.7581300244 -1.8801530220 0.0000000000 0.1935666659 -0.1490277024 37.3863794737 0.4287325829 -2.5539462585
0.7293349875 -1.8648265911 0.0000000000 0.1944718169 -0.1226976264 40.7873805083 0.4280634191 -2.5516565861
0.6999833530 -1.8511619359 0.0000000000 0.1953501318 -0.0995556812 44.8838545069 0.4273523752 -2.5498552520
0.6701159437 -1.8392070838 0.0000000000 0.1962606311 -0.0801164953 49.6194623683 0.4265913419 -2.5485700152
0.6397778907 -1.8290051856 0.0000000000 0.1972129877 -0.0638135202 54.9161583631 0.4257757226 -2.5478257974
0.6090181505 -1.8205926013 0.0000000000 0.1981682663 -0.0497117458 60.7072076573 0.4249040353 -2.5476428008
0.5778892908 -1.8139975562 0.0000000000 0.1990692189 -0.0370166156 66.9539210110 0.4239777843 -2.5480351902
0.5464474918 -1.8092392799 0.0000000000 0.1998675567 -0.0252188811 73.6420036969 0.4230015492 -2.5490102575
0.5147526295 -1.8063276521 0.0000000000 0.2005304571 -0.0140210957 80.7697566628 0.4219831561 -2.5505680870
0.4828682930 -1.8052633534 0.0000000000 0.2010353029 -0.0032382478 88.3402400574 0.4209337840 -2.5527017231
0.4508616141 -1.8060384306 0.0000000000 0.2013652730 0.0072560544 96.3588636647 0.4198678836 -2.5553977494
0.4188028436 -1.8086370921 0.0000000000 0.2015077746 0.0175522123 104.8327534255 0.4188028438 -2.5586370921
0.3867646742 -1.8130365106 0.0000000000 0.2014534950 0.0277165882 113.7700701328 0.4177584051 -2.5623958294
0.3548213613 -1.8192074506 0.0000000000 0.2011955131 0.0377992260 123.1792888789 0.4167558705 -2.5666458203
0.3230477243 -1.8271146185 0.0000000000 0.2007287898 0.0478390568 133.0685211567 0.4158171980 -2.5713550532
0.2915181144 -1.8367167406 0.0000000000 0.2000500150 0.0578675277 143.4448178051 0.4149640572 -2.5764877181
0.2603054112 -1.8479664443 0.0000000000 0.1991574385 0.0679098222 154.3134597966 0.4142169180 -2.5820040783
0.2294800909 -1.8608100511 0.0000000000 0.1980506007 0.0779824694 165.6771726413 0.4135942064 -2.5878602505
0.1991093737 -1.8751873755 0.0000000000 0.1967312553 0.0880920205 177.5350308439 0.4131115420 -2.5940079873
0.1692564544 -1.8910315817 0.0000000000 0.1952079331 0.0982493713 189.8812258582 0.4127810565 -2.6003945129
0.1399798119 -1.9082690984 0.0000000000 0.1935043623 0.1085115063 202.7049480540 0.4126107900 -2.6069624144
0.1113326058 -1.9268195438 0.0000000000 0.1916649938 0.1190275690 215.9925301298 0.4126041745 -2.6136495387
0.0833621773 -1.9465955554 0.0000000000 0.1897441484 0.1300069106 229.7295351128 0.4127596191 -2.6203887917
0.0561096722 -1.9675023232 0.0000000000 0.1877691086 0.1414939326 243.8950868305 0.4130702171 -2.6271076365
0.0296097991 -1.9894363993 0.0000000000 0.1856883609 0.1528938765 258.4396214225 0.4135235861 -2.6337268650
0.0038907029 -2.0122827921 0.0000000000 0.1833456024 0.1623635212 273.2465413728 0.4141018217 -2.6401576506
-0.0210261277 -2.0359077905 0.0000000000 0.1805322957 0.1663846229 288.0958138826 0.4147814840 -2.6462943284
-0.0451263181 -2.0601401245 0.0000000000 0.1771456253 0.1599228764 302.6526970788 0.4155332165 -2.6519955064
-0.0684070950 -2.0847147225 0.0000000000 0.1734057831 0.1374252278 316.4960151876 0.4163173336 -2.6570277735
-0.0909118692 -2.1090774332 0.0000000000 0.1702462194 0.0944547960 329.0731770781 0.4170493096 -2.6608703660
-0.1328373226 -2.1638580222 0.0000000000 0.1664798322 -0.0557543509 350.4569804429 0.4189556106 -2.6718192008
-0.1522819326 -2.1945731858 0.0000000000 0.1686591687 -0.1547065698 358.2045534500 0.4200311187 -2.6792976140
-0.1709033227 -2.2250200694 0.0000000000 0.1759315750 -0.2582147995 363.2303409106 0.4209520595 -2.6856796037
-0.1886005119 -2.2555336582 0.0000000000 0.1881788963 -0.3574064217 365.5252568829 0.4217860262 -2.6913412696
-0.2053309071 -2.2862091524 0.0000000000 0.2048178895 -0.4455687410 365.0875081649 0.4225439518 -2.6964202708
-0.2210596616 -2.3170666326 0.0000000000 0.2249854559 -0.5194307722 361.9337173313 0.4232308043 -2.7009804192
-0.2357522747 -2.3480976421 0.0000000000 0.2478678347 -0.5791266951 356.0994886585 0.4238530389 -2.7050581866
-0.2493735580 -2.3792805307 0.0000000000 0.2729187805 -0.6270875246 347.6621473699 0.4244196785 -2.7086779721
-0.2618875720 -2.4105860871 0.0000000000 0.2998886908 -0.6665816798 336.7526670064 0.4249424231 -2.7118576553
-0.2732578809 -2.4419796549 0.0000000000 0.3287181495 -0.7005501923 323.5398208024 0.4254354352 -2.7146106326
-0.2834479789 -2.4734218961 0.0000000000 0.3593982022 -0.7310353658 308.2001363415 0.4259149525 -2.7169464978
-0.2924218324 -2.5048690621 0.0000000000 0.3918721923 -0.7591452697 290.8967820553 0.4263987795 -2.7188712300
-0.3001445128 -2.5362731506 0.0000000000 0.4260008057 -0.7853113642 271.7761073827 0.4269056867 -2.7203872657
-0.3065829037 -2.5675821261 0.0000000000 0.4615740395 -0.8096017897 250.9749450642 0.4274547303 -2.7214936324
-0.3117064697 -2.5987402827 0.0000000000 0.4983428955 -0.8319572024 228.6280958453 0.4280645079 -2.7221862251
-0.3154880599 -2.6296887847 0.0000000000 0.5360507246 -0.8523195428 204.8703285758 0.4287523750 -2.7224582578
-0.3179047101 -2.6603663861 0.0000000000 0.5744557083 -0.8706797654 179.8329195879 0.4295336597 -2.7223008949
-0.3189383843 -2.6907103229 0.0000000000 0.6133439729 -0.8870819355 153.6374476306 0.4304209345 -2.7217040533
-0.3185765850 -2.7206573585 0.0000000000 0.6525359682 -0.9016109906 126.3895036761 0.4314234150 -2.7206573582
-0.3168127594 -2.7501449648 0.0000000000 0.6918889000 -0.9143781197 98.1737564175 0.4325465594 -2.7191512338
-0.3136464356 -2.7791126160 0.0000000000 0.7312971728 -0.9255086290 69.0506621285 0.4337919342 -2.7171781066
-0.3090830518 -2.8075031693 0.0000000000 0.7706919820 -0.9351328172 39.0544937270 0.4351573830 -2.7147336955
-0.3031334680 -2.8352642977 0.0000000000 0.8100406434 -0.9433789290 8.1922390712 0.4366375095 -2.7118183547
-0.2958131791 -2.8623499271 0.0000000000 0.8493458798 -0.9503670937 -23.5569555419 0.4382244549 -2.7084384201