 TITLE = "Tecplot data"
 VARIABLES = "X", "Y", "Z" "U", "V", "p", "dispX", "dispY"
 ZONE SOLUTIONTIME=14.900000, NODES=26114 , ELEMENTS=25916, DATAPACKING=POINT, ZONETYPE=FEQUADRILATERAL
0.3671007976 0.3533980015 0.0000000000 0.0000000000 0.0000000000 -231.5376746366 0.0135474071 -0.0001553891
0.3671007979 -0.3537087794 0.0000000000 0.0000000000 0.0000000000 -239.0102543973 0.0135474071 -0.0001553891
-0.3400059836 0.3533980014 0.0000000000 0.0000000000 0.0000000000 -84.2860863212 0.0135474071 -0.0001553891
-0.3400059833 -0.3537087799 0.0000000000 0.0000000000 0.0000000000 -90.2119923013 0.0135474071 -0.0001553891
0.5436463714 0.5302244450 0.0000000000 0.0628606423 0.0507887999 -223.2089616937 0.0133162856 -0.0001056409
0.5442245742 -0.5303702807 0.0000000000 0.0732675246 -0.0510982837 -230.5250823194 0.0138944879 -0.0000401952
-0.5164099965 0.5303071089 0.0000000000 0.8203696736 0.4887726283 80.2197873458 0.0139200895 -0.0000229768
-0.5167923484 -0.5304759590 0.0000000000 0.8235763465 -0.4893125331 75.7088121578 0.0135377372 -0.0001458728
1.0741940815 1.0605363700 0.0000000000 1.2352434285 0.1691831334 -248.1386670046 0.0135339099 -0.0001238019
1.0743058270 -1.0606487659 0.0000000000 1.2352033189 -0.1634101544 -255.0476553053 0.0136456544 0.0000114052
-1.0463593318 1.0608069623 0.0000000000 0.9222912347 0.1839964101 91.1132995787 0.0143008403 0.0001467909
-1.0472527724 -1.0606816239 0.0000000000 0.9232308347 -0.1836170140 88.3593970176 0.0134073989 -0.0000214516
4.2128128141 3.2999570842 0.0000000000 1.0551530018 -0.0619316395 -44.5019501050 0.0128128141 -0.0000429158
4.2124020523 -3.3000246038 0.0000000000 1.0571827868 0.0609775497 -44.5836449881 0.0124020523 -0.0000246038
20.0000000000 4.7000000000 0.0000000000 0.9994902816 -0.0020909061 0.0049423239 0.0000000000 0.0000000000
20.0000000000 -4.7000000000 0.0000000000 0.9994796873 0.0020879352 0.0055427654 0.0000000000 0.0000000000
-10.0000000000 15.0000000000 0.0000000000 1.0000000000 0.0000000000 4.6687900032 0.0000000000 0.0000000000
20.0000000000 15.0000000000 0.0000000000 1.0009656555 0.0000000000 -0.0007987374 0.0000000000 0.0000000000
20.0000000000 -15.0000000000 0.0000000000 1.0009629873 0.0000000000 -0.0005359444 0.0000000000 0.0000000000
-10.0000000000 -15.0000000000 0.0000000000 1.0000000000 0.0000000000 4.1237243210 0.0000000000 0.0000000000
0.3800733432 -0.3402417577 0.0000000000 0.0000000000 0.0000000000 -237.4530524527 0.0135474071 -0.0001553891
0.3925332689 -0.3262990945 0.0000000000 0.0000000000 0.0000000000 -236.5354069253 0.0135474071 -0.0001553891
0.4044631485 -0.3119002898 0.0000000000 0.0000000000 0.0000000000 -235.5625999560 0.0135474071 -0.0001553891
0.4158462972 -0.2970654816 0.0000000000 0.0000000000 0.0000000000 -234.7372367640 0.0135474071 -0.0001553891
0.4266667944 -0.2818154179 0.0000000000 0.0000000000 0.0000000000 -233.8493396747 0.0135474071 -0.0001553891
0.4369095069 -0.2661714271 0.0000000000 0.0000000000 0.0000000000 -232.8875545982 0.0135474071 -0.0001553891
0.4465601091 -0.2501553888 0.0000000000 0.0000000000 0.0000000000 -231.7662908245 0.0135474071 -0.0001553891
0.4556051040 -0.2337897030 0.0000000000 0.0000000000 0.0000000000 -230.4551580603 0.0135474071 -0.0001553891
0.4640318412 -0.2170972584 0.0000000000 0.0000000000 0.0000000000 -228.9219518242 0.0135474071 -0.0001553891
0.4718285351 -0.2001014010 0.0000000000 0.0000000000 0.0000000000 -227.1605491625 0.0135474071 -0.0001553891
0.4789842815 -0.1828259010 0.0000000000 0.0000000000 0.0000000000 -225.1792262992 0.0135474071 -0.0001553891
0.4854890723 -0.1652949198 0.0000000000 0.0000000000 0.0000000000 -223.0069758911 0.0135474071 -0.0001553891
0.4913338101 -0.1475329760 0.0000000000 0.0000000000 0.0000000000 -220.6905839937 0.0135474071 -0.0001553891
0.4965103203 -0.1295649114 0.0000000000 0.0000000000 0.0000000000 -218.2945971067 0.0135474071 -0.0001553891
0.5010113632 -0.1114158558 0.0000000000 0.0000000000 0.0000000000 -215.8979187598 0.0135474071 -0.0001553891
0.5048306437 -0.0931111924 0.0000000000 0.0000000000 0.0000000000 -213.5897506536 0.0135474071 -0.0001553891
0.5079628202 -0.0746765220 0.0000000000 0.0000000000 0.0000000000 -211.4636950815 0.0135474071 -0.0001553891
0.5104035121 -0.0561376269 0.0000000000 0.0000000000 0.0000000000 -209.6111036305 0.0135474071 -0.0001553891
0.5121493057 -0.0375204357 0.0000000000 0.0000000000 0.0000000000 -208.1139824042 0.0135474071 -0.0001553891
0.5131977595 -0.0188509860 0.0000000000 0.0000000000 0.0000000000 -207.0383580062 0.0135474071 -0.0001553891
0.5135474071 -0.0001553889 0.0000000000 0.0000000000 0.0000000000 -206.4287590754 0.0135474071 -0.0001553891
0.5131977595 0.0185402082 0.0000000000 0.0000000000 0.0000000000 -206.3045066040 0.0135474071 -0.0001553891
0.5121493057 0.0372096579 0.0000000000 0.0000000000 0.0000000000 -206.6581921936 0.0135474071 -0.0001553891
0.5104035120 0.0558268491 0.0000000000 0.0000000000 0.0000000000 -207.4565921775 0.0135474071 -0.0001553891
0.5079628202 0.0743657442 0.0000000000 0.0000000000 0.0000000000 -208.6437711528 0.0135474071 -0.0001553891
0.5048306437 0.0928004147 0.0000000000 0.0000000000 0.0000000000 -210.1462217949 0.0135474071 -0.0001553891
0.5010113631 0.1111050780 0.0000000000 0.0000000000 0.0000000000 -211.8790136347 0.0135474071 -0.0001553891
0.4965103202 0.1292541336 0.0000000000 0.0000000000 0.0000000000 -213.7530137796 0.0135474071 -0.0001553891
0.4913338099 0.1472221982 0.0000000000 0.0000000000 0.0000000000 -215.6810009531 0.0135474071 -0.0001553891
0.4854890722 0.1649841420 0.0000000000 0.0000000000 0.0000000000 -217.5846541774 0.0135474071 -0.0001553891
0.4789842814 0.1825151232 0.0000000000 0.0000000000 0.0000000000 -219.3971784503 0.0135474071 -0.0001553891
0.4718285350 0.1997906232 0.0000000000 0.0000000000 0.0000000000 -221.0700307440 0.0135474071 -0.0001553891
0.4640318410 0.2167864806 0.0000000000 0.0000000000 0.0000000000 -222.5681393207 0.0135474071 -0.0001553891
0.4556051038 0.2334789251 0.0000000000 0.0000000000 0.0000000000 -223.8821531794 0.0135474071 -0.0001553891
0.4465601089 0.2498446110 0.0000000000 0.0000000000 0.0000000000 -225.0073398047 0.0135474071 -0.0001553891
0.4369095067 0.2658606492 0.0000000000 0.0000000000 0.0000000000 -225.9805485689 0.0135474071 -0.0001553891
0.4266667942 0.2815046400 0.0000000000 0.0000000000 0.0000000000 -226.8124159377 0.0135474071 -0.0001553891
0.4158462969 0.2967547038 0.0000000000 0.0000000000 0.0000000000 -227.6054636179 0.0135474071 -0.0001553891
0.4044631483 0.3115895119 0.0000000000 0.0000000000 0.0000000000 -228.3391693740 0.0135474071 -0.0001553891
0.3925332686 0.3259883166 0.0000000000 0.0000000000 0.0000000000 -229.2435845188 0.0135474071 -0.0001553891
0.3800733430 0.3399309798 0.0000000000 0.0000000000 0.0000000000 -230.1217653510 0.0135474071 -0.0001553891
0.3521881929 0.3677065663 0.0000000000 0.0000000000 0.0000000000 -233.0194449086 0.0135474071 -0.0001553891
0.3366970260 0.3813866450 0.0000000000 0.0000000000 0.0000000000 -235.2578325565 0.0135474071 -0.0001553891
0.3206537634 0.3944148656 0.0000000000 0.0000000000 0.0000000000 -237.7657898502 0.0135474071 -0.0001553891
0.3040858147 0.4067689696 0.0000000000 0.0000000000 0.0000000000 -240.8657802787 0.0135474071 -0.0001553891
0.2870214861 0.4184278501 0.0000000000 0.0000000000 0.0000000000 -244.4103682677 0.0135474071 -0.0001553891
0.2694899316 0.4293715881 0.0000000000 0.0000000000 0.0000000000 -248.5277174846 0.0135474071 -0.0001553891
0.2515211035 0.4395814865 0.0000000000 0.0000000000 0.0000000000 -253.2126121141 0.0135474071 -0.0001553891
0.2331457014 0.4490401019 0.0000000000 0.0000000000 0.0000000000 -258.5632725206 0.0135474071 -0.0001553891
0.2143951193 0.4577312743 0.0000000000 0.0000000000 0.0000000000 -264.6373616995 0.0135474071 -0.0001553891
0.1953013923 0.4656401550 0.0000000000 0.0000000000 0.0000000000 -271.5146354179 0.0135474071 -0.0001553891
0.1758971416 0.4727532318 0.0000000000 0.0000000000 0.0000000000 -279.2386516766 0.0135474071 -0.0001553891
0.1562155191 0.4790583522 0.0000000000 0.0000000000 0.0000000000 -287.8294812479 0.0135474071 -0.0001553891
0.1362901506 0.4845447439 0.0000000000 0.0000000000 0.0000000000 -297.2616192129 0.0135474071 -0.0001553891
0.1161550781 0.4892030336 0.0000000000 0.0000000000 0.0000000000 -307.4658398980 0.0135474071 -0.0001553891
0.0958447021 0.4930252626 0.0000000000 0.0000000000 0.0000000000 -318.3198748939 0.0135474071 -0.0001553891
0.0753937226 0.4960049008 0.0000000000 0.0000000000 0.0000000000 -329.6467963639 0.0135474071 -0.0001553891
0.0548370797 0.4981368574 0.0000000000 0.0000000000 0.0000000000 -341.2116838574 0.0135474071 -0.0001553891
0.0342098941 0.4994174901 0.0000000000 0.0000000000 0.0000000000 -352.7235517258 0.0135474071 -0.0001553891
0.0135474070 0.4998446109 0.0000000000 0.0000000000 0.0000000000 -363.8399919658 0.0135474071 -0.0001553891
-0.0071150801 0.4994174901 0.0000000000 0.0000000000 0.0000000000 -374.1763041649 0.0135474071 -0.0001553891
-0.0277422658 0.4981368574 0.0000000000 0.0000000000 0.0000000000 -383.3176980752 0.0135474071 -0.0001553891
-0.0482989087 0.4960049008 0.0000000000 0.0000000000 0.0000000000 -390.8342264404 0.0135474071 -0.0001553891
-0.0687498882 0.4930252626 0.0000000000 0.0000000000 0.0000000000 -396.2970863704 0.0135474071 -0.0001553891
-0.0890602641 0.4892030335 0.0000000000 0.0000000000 0.0000000000 -399.2952348016 0.0135474071 -0.0001553891
-0.1091953366 0.4845447438 0.0000000000 0.0000000000 0.0000000000 -399.4510990562 0.0135474071 -0.0001553891
-0.1291207052 0.4790583521 0.0000000000 0.0000000000 0.0000000000 -396.4344542243 0.0135474071 -0.0001553891
-0.1488023276 0.4727532317 0.0000000000 0.0000000000 0.0000000000 -389.9737502668 0.0135474071 -0.0001553891
-0.1682065783 0.4656401549 0.0000000000 0.0000000000 0.0000000000 -379.8645032215 0.0135474071 -0.0001553891
-0.1873003054 0.4577312742 0.0000000000 0.0000000000 0.0000000000 -365.9746407713 0.0135474071 -0.0001553891
-0.2060508875 0.4490401018 0.0000000000 0.0000000000 0.0000000000 -348.2469408301 0.0135474071 -0.0001553891
-0.2244262896 0.4395814864 0.0000000000 0.0000000000 0.0000000000 -326.6988716005 0.0135474071 -0.0001553891
-0.2423951176 0.4293715880 0.0000000000 0.0000000000 0.0000000000 -301.4202434187 0.0135474071 -0.0001553891
-0.2599266721 0.4184278500 0.0000000000 0.0000000000 0.0000000000 -272.5691163580 0.0135474071 -0.0001553891
-0.2769910007 0.4067689695 0.0000000000 0.0000000000 0.0000000000 -240.3663911985 0.0135474071 -0.0001553891
-0.2935589494 0.3944148655 0.0000000000 0.0000000000 0.0000000000 -205.0894620365 0.0135474071 -0.0001553891
-0.3096022120 0.3813866449 0.0000000000 0.0000000000 0.0000000000 -167.0652466034 0.0135474071 -0.0001553891
-0.3250933788 0.3677065661 0.0000000000 0.0000000000 0.0000000000 -126.6628517434 0.0135474071 -0.0001553891
-0.3543145484 0.3384853966 0.0000000000 0.0000000000 0.0000000000 -40.3660026486 0.0135474071 -0.0001553891
-0.3679946271 0.3229942297 0.0000000000 0.0000000000 0.0000000000 4.6463746607 0.0135474071 -0.0001553891
-0.3810228477 0.3069509671 0.0000000000 0.0000000000 0.0000000000 50.2869999385 0.0135474071 -0.0001553891
-0.3933769516 0.2903830185 0.0000000000 0.0000000000 0.0000000000 96.0853396866 0.0135474071 -0.0001553891
-0.4050358321 0.2733186898 0.0000000000 0.0000000000 0.0000000000 141.5704318600 0.0135474071 -0.0001553891
-0.4159795702 0.2557871353 0.0000000000 0.0000000000 0.0000000000 186.2764587448 0.0135474071 -0.0001553891
-0.4261894686 0.2378183073 0.0000000000 0.0000000000 0.0000000000 229.7478534021 0.0135474071 -0.0001553891
-0.4356480839 0.2194429052 0.0000000000 0.0000000000 0.0000000000 271.5439768151 0.0135474071 -0.0001553891
-0.4443392563 0.2006923231 0.0000000000 0.0000000000 0.0000000000 311.2434063931 0.0135474071 -0.0001553891
-0.4522481370 0.1815985960 0.0000000000 0.0000000000 0.0000000000 348.4478669765 0.0135474071 -0.0001553891
-0.4593612138 0.1621943453 0.0000000000 0.0000000000 0.0000000000 382.7858264410 0.0135474071 -0.0001553891
-0.4656663342 0.1425127229 0.0000000000 0.0000000000 0.0000000000 413.9157618651 0.0135474071 -0.0001553891
-0.4711527259 0.1225873543 0.0000000000 0.0000000000 0.0000000000 441.5291032605 0.0135474071 -0.0001553891
-0.4758110156 0.1024522818 0.0000000000 0.0000000000 0.0000000000 465.3528397317 0.0135474071 -0.0001553891
-0.4796332446 0.0821419059 0.0000000000 0.0000000000 0.0000000000 485.1518048839 0.0135474071 -0.0001553891
-0.4826128828 0.0616909263 0.0000000000 0.0000000000 0.0000000000 500.7305944687 0.0135474071 -0.0001553891
-0.4847448394 0.0411342834 0.0000000000 0.0000000000 0.0000000000 511.9351923215 0.0135474071 -0.0001553891
-0.4860254721 0.0205070978 0.0000000000 0.0000000000 0.0000000000 518.6541518936 0.0135474071 -0.0001553891
-0.4864525929 -0.0001553893 0.0000000000 0.0000000000 0.0000000000 520.8196154922 0.0135474071 -0.0001553891
-0.4860254721 -0.0208178764 0.0000000000 0.0000000000 0.0000000000 518.4076412792 0.0135474071 -0.0001553891
-0.4847448394 -0.0414450620 0.0000000000 0.0000000000 0.0000000000 511.4388274208 0.0135474071 -0.0001553891
-0.4826128828 -0.0620017049 0.0000000000 0.0000000000 0.0000000000 499.9773925090 0.0135474071 -0.0001553891
-0.4796332446 -0.0824526844 0.0000000000 0.0000000000 0.0000000000 484.1321306244 0.0135474071 -0.0001553891
-0.4758110155 -0.1027630604 0.0000000000 0.0000000000 0.0000000000 464.0529040803 0.0135474071 -0.0001553891
-0.4711527258 -0.1228981329 0.0000000000 0.0000000000 0.0000000000 439.9344007080 0.0135474071 -0.0001553891
-0.4656663341 -0.1428235014 0.0000000000 0.0000000000 0.0000000000 412.0054673868 0.0135474071 -0.0001553891
-0.4593612137 -0.1625051239 0.0000000000 0.0000000000 0.0000000000 380.5441071979 0.0135474071 -0.0001553891
-0.4522481369 -0.1819093746 0.0000000000 0.0000000000 0.0000000000 345.8440306867 0.0135474071 -0.0001553891
-0.4443392561 -0.2010031016 0.0000000000 0.0000000000 0.0000000000 308.2698526650 0.0135474071 -0.0001553891
-0.4356480838 -0.2197536837 0.0000000000 0.0000000000 0.0000000000 268.1470142930 0.0135474071 -0.0001553891
-0.4261894684 -0.2381290858 0.0000000000 0.0000000000 0.0000000000 225.9576212729 0.0135474071 -0.0001553891
-0.4159795700 -0.2560979138 0.0000000000 0.0000000000 0.0000000000 181.9657004870 0.0135474071 -0.0001553891
-0.4050358319 -0.2736294684 0.0000000000 0.0000000000 0.0000000000 136.9067418778 0.0135474071 -0.0001553891
-0.3933769514 -0.2906937970 0.0000000000 0.0000000000 0.0000000000 90.6864062528 0.0135474071 -0.0001553891
-0.3810228475 -0.3072617456 0.0000000000 0.0000000000 0.0000000000 44.8067286584 0.0135474071 -0.0001553891
-0.3679946269 -0.3233050082 0.0000000000 0.0000000000 0.0000000000 -2.0439171243 0.0135474071 -0.0001553891
-0.3543145481 -0.3387961751 0.0000000000 0.0000000000 0.0000000000 -44.8174364891 0.0135474071 -0.0001553891
-0.3250933785 -0.3680173446 0.0000000000 0.0000000000 0.0000000000 -143.2528686914 0.0135474071 -0.0001553891
-0.3096022116 -0.3816974234 0.0000000000 0.0000000000 0.0000000000 -176.1884472064 0.0135474071 -0.0001553891
-0.2935589490 -0.3947256440 0.0000000000 0.0000000000 0.0000000000 -214.3766303570 0.0135474071 -0.0001553891
-0.2769910004 -0.4070797479 0.0000000000 0.0000000000 0.0000000000 -250.5571342380 0.0135474071 -0.0001553891
-0.2599266717 -0.4187386284 0.0000000000 0.0000000000 0.0000000000 -283.1773624213 0.0135474071 -0.0001553891
-0.2423951172 -0.4296823664 0.0000000000 0.0000000000 0.0000000000 -312.7871847298 0.0135474071 -0.0001553891
-0.2244262892 -0.4398922648 0.0000000000 0.0000000000 0.0000000000 -338.5867399722 0.0135474071 -0.0001553891
-0.2060508871 -0.4493508802 0.0000000000 0.0000000000 0.0000000000 -360.7496170084 0.0135474071 -0.0001553891
-0.1873003050 -0.4580420525 0.0000000000 0.0000000000 0.0000000000 -378.9699231612 0.0135474071 -0.0001553891
-0.1682065779 -0.4659509332 0.0000000000 0.0000000000 0.0000000000 -393.3371580388 0.0135474071 -0.0001553891
-0.1488023272 -0.4730640100 0.0000000000 0.0000000000 0.0000000000 -403.8264801101 0.0135474071 -0.0001553891
-0.1291207048 -0.4793691304 0.0000000000 0.0000000000 0.0000000000 -410.6001010928 0.0135474071 -0.0001553891
-0.1091953362 -0.4848555221 0.0000000000 0.0000000000 0.0000000000 -413.8298086537 0.0135474071 -0.0001553891
-0.0890602637 -0.4895138118 0.0000000000 0.0000000000 0.0000000000 -413.7947021327 0.0135474071 -0.0001553891
-0.0687498878 -0.4933360408 0.0000000000 0.0000000000 0.0000000000 -410.8138589970 0.0135474071 -0.0001553891
-0.0482989083 -0.4963156790 0.0000000000 0.0000000000 0.0000000000 -405.2697983293 0.0135474071 -0.0001553891
-0.0277422653 -0.4984476356 0.0000000000 0.0000000000 0.0000000000 -397.5750099063 0.0135474071 -0.0001553891
-0.0071150797 -0.4997282683 0.0000000000 0.0000000000 0.0000000000 -388.1674579697 0.0135474071 -0.0001553891
0.0135474074 -0.5001553891 0.0000000000 0.0000000000 0.0000000000 -377.4872038948 0.0135474071 -0.0001553891
0.0342098945 -0.4997282683 0.0000000000 0.0000000000 0.0000000000 -365.9630595166 0.0135474071 -0.0001553891
0.0548370801 -0.4984476356 0.0000000000 0.0000000000 0.0000000000 -353.9948421135 0.0135474071 -0.0001553891
0.0753937230 -0.4963156789 0.0000000000 0.0000000000 0.0000000000 -341.9412018437 0.0135474071 -0.0001553891
0.0958447025 -0.4933360407 0.0000000000 0.0000000000 0.0000000000 -330.1090356495 0.0135474071 -0.0001553891
0.1161550785 -0.4895138117 0.0000000000 0.0000000000 0.0000000000 -318.7478536085 0.0135474071 -0.0001553891
0.1362901510 -0.4848555220 0.0000000000 0.0000000000 0.0000000000 -308.0474800724 0.0135474071 -0.0001553891
0.1562155195 -0.4793691302 0.0000000000 0.0000000000 0.0000000000 -298.1398549507 0.0135474071 -0.0001553891
0.1758971420 -0.4730640098 0.0000000000 0.0000000000 0.0000000000 -289.1025437811 0.0135474071 -0.0001553891
0.1953013927 -0.4659509330 0.0000000000 0.0000000000 0.0000000000 -280.9650563717 0.0135474071 -0.0001553891
0.2143951197 -0.4580420523 0.0000000000 0.0000000000 0.0000000000 -273.7135748738 0.0135474071 -0.0001553891
0.2331457018 -0.4493508799 0.0000000000 0.0000000000 0.0000000000 -267.3033154412 0.0135474071 -0.0001553891
0.2515211039 -0.4398922645 0.0000000000 0.0000000000 0.0000000000 -261.6625632239 0.0135474071 -0.0001553891
0.2694899319 -0.4296823661 0.0000000000 0.0000000000 0.0000000000 -256.7235448306 0.0135474071 -0.0001553891
0.2870214864 -0.4187386280 0.0000000000 0.0000000000 0.0000000000 -252.4017215069 0.0135474071 -0.0001553891
0.3040858151 -0.4070797475 0.0000000000 0.0000000000 0.0000000000 -248.6783650678 0.0135474071 -0.0001553891
0.3206537637 -0.3947256436 0.0000000000 0.0000000000 0.0000000000 -245.4445309527 0.0135474071 -0.0001553891
0.3366970263 -0.3816974230 0.0000000000 0.0000000000 0.0000000000 -242.8285879947 0.0135474071 -0.0001553891
0.3521881932 -0.3680173442 0.0000000000 0.0000000000 0.0000000000 -240.4667807600 0.0135474071 -0.0001553891
0.5636564549 -0.5101620468 0.0000000000 0.0422478949 -0.0569634293 -230.0900645871 0.0138675506 -0.0000324938
0.5823282867 -0.4892431630 0.0000000000 0.0211934011 -0.0651162209 -229.8300179921 0.0138494940 -0.0000276049
0.6002061129 -0.4676398124 0.0000000000 0.0079401896 -0.0749447933 -229.7862695717 0.0138325007 -0.0000224614
0.6172630359 -0.4453823922 0.0000000000 -0.0000459334 -0.0856258227 -229.9270895577 0.0138147008 -0.0000172534
0.6334745713 -0.4225022751 0.0000000000 -0.0052288180 -0.0962402304 -230.1952275983 0.0137954903 -0.0000122319
0.6488178627 -0.3990316431 0.0000000000 -0.0096391207 -0.1059191020 -230.5193732113 0.0137747131 -0.0000075861
0.6632714626 -0.3750034533 0.0000000000 -0.0146856348 -0.1139531187 -230.8244665602 0.0137524096 -0.0000034536
0.6768152630 -0.3504514045 0.0000000000 -0.0211508926 -0.1198418067 -231.0392683530 0.0137287177 0.0000000663
0.6894304763 -0.3254098989 0.0000000000 -0.0293061338 -0.1232901902 -231.1018249981 0.0137038252 0.0000029051
0.7010996372 -0.2999140001 0.0000000000 -0.0390652606 -0.1241747352 -230.9641861530 0.0136779451 0.0000050177
0.7118066139 -0.2739993895 0.0000000000 -0.0501234201 -0.1224994410 -230.5965683420 0.0136513023 0.0000063784
0.7215366239 -0.2477023193 0.0000000000 -0.0620594236 -0.1183554484 -229.9902926860 0.0136241261 0.0000069768
0.7302762498 -0.2210595646 0.0000000000 -0.0744029614 -0.1118901994 -229.1588262585 0.0135966454 0.0000068159
0.7380134551 -0.1941083729 0.0000000000 -0.0866758485 -0.1032872060 -228.1366888258 0.0135690853 0.0000059106
0.7447375977 -0.1668864133 0.0000000000 -0.0984169833 -0.0927547322 -226.9763756710 0.0135416635 0.0000042868
0.7504394430 -0.1394317246 0.0000000000 -0.1091983114 -0.0805205789 -225.7436569127 0.0135145880 0.0000019804
0.7551111746 -0.1117826631 0.0000000000 -0.1186363702 -0.0668301411 -224.5117090505 0.0134880549 -0.0000009638
0.7587464041 -0.0839778499 0.0000000000 -0.1264017946 -0.0519455043 -223.3545947352 0.0134622466 -0.0000044931
0.7613401795 -0.0560561181 0.0000000000 -0.1322276549 -0.0361441574 -222.3406594389 0.0134373316 -0.0000085483
0.7628889919 -0.0280564603 0.0000000000 -0.1359166254 -0.0197166490 -221.5264443952 0.0134134633 -0.0000130649
0.7633907802 -0.0000179748 0.0000000000 -0.1373465887 -0.0029630824 -220.9516959470 0.0133907802 -0.0000179751
0.7628449347 0.0280201869 0.0000000000 -0.1364742290 0.0138113048 -220.6359637624 0.0133694061 -0.0000232091
0.7612522980 0.0560188739 0.0000000000 -0.1333363021 0.0303010382 -220.5771266622 0.0133494502 -0.0000286966
0.7586151659 0.0839389893 0.0000000000 -0.1280484831 0.0462052748 -220.7519868169 0.0133310085 -0.0000343681
0.7549372849 0.1117415438 0.0000000000 -0.1208019289 0.0612321461 -221.1188550798 0.0133141653 -0.0000401561
0.7502238502 0.1393877093 0.0000000000 -0.1118578945 0.0751021666 -221.6218479084 0.0132989953 -0.0000459963
0.7444815002 0.1668388726 0.0000000000 -0.1015408503 0.0875504972 -222.1964552622 0.0132855661 -0.0000518281
0.7377183110 0.1940566885 0.0000000000 -0.0902304835 0.0983282040 -222.7758361848 0.0132739413 -0.0000575955
0.7299437876 0.2210031335 0.0000000000 -0.0783525969 0.1072031965 -223.2972548754 0.0132641833 -0.0000632475
0.7211688529 0.2476405595 0.0000000000 -0.0663681012 0.1139622580 -223.7080695096 0.0132563552 -0.0000687372
0.7114058339 0.2739317470 0.0000000000 -0.0547578583 0.1184163669 -223.9707095831 0.0132505225 -0.0000740215
0.7006684441 0.2998399597 0.0000000000 -0.0439989474 0.1204121148 -224.0661254494 0.0132467522 -0.0000790587
0.6889717607 0.3253289987 0.0000000000 -0.0345250046 0.1198520833 -223.9953164993 0.0132451099 -0.0000838058
0.6763321970 0.3503632561 0.0000000000 -0.0266603226 0.1167261031 -223.7788488856 0.0132456520 -0.0000882153
0.6627674660 0.3749077681 0.0000000000 -0.0205169284 0.1111527856 -223.4548106622 0.0132484133 -0.0000922321
0.6482965383 0.3989282645 0.0000000000 -0.0158517494 0.1034257069 -223.0761247298 0.0132533889 -0.0000957931
0.6329395944 0.4223912129 0.0000000000 -0.0119045231 0.0940504918 -222.7077526047 0.0132605138 -0.0000988308
0.6167179774 0.4452638577 0.0000000000 -0.0072752069 0.0837498294 -222.4225683714 0.0132696427 -0.0001012816
0.5996541431 0.4675142544 0.0000000000 0.0000706830 0.0734110702 -222.2929309794 0.0132805313 -0.0001030970
0.5817715785 0.4891113025 0.0000000000 0.0125994788 0.0639669646 -222.3764385961 0.0132927862 -0.0001042560
0.5630945778 0.5100247938 0.0000000000 0.0328246940 0.0562362816 -222.6964032558 0.0133056740 -0.0001047596
0.5212945571 0.5516840724 0.0000000000 0.1093500724 0.0478395210 -224.1006703769 0.0133333784 -0.0001088607
0.4980752603 0.5722006005 0.0000000000 0.1704041649 0.0481609925 -225.1124271755 0.0133508320 -0.0001124507
0.4740300208 0.5917401378 0.0000000000 0.2456473709 0.0517593073 -226.2619751681 0.0133704863 -0.0001152443
0.4491999022 0.6102693252 0.0000000000 0.3336883014 0.0586917020 -227.5678296507 0.0133922907 -0.0001172128
0.4236270784 0.6277564856 0.0000000000 0.4320961993 0.0690744102 -229.0870175666 0.0134159599 -0.0001183732
0.3973549361 0.6441716598 0.0000000000 0.5373627503 0.0829268019 -230.8865811113 0.0134411494 -0.0001188060
0.3704280663 0.6594866943 0.0000000000 0.6450643168 0.0999966867 -233.0051801229 0.0134675216 -0.0001186192
0.3428922058 0.6736753162 0.0000000000 0.7503470877 0.1196929384 -235.4169260841 0.0134947643 -0.0001179203
0.3147941602 0.6867131922 0.0000000000 0.8486257742 0.1411589326 -238.0162146549 0.0135225918 -0.0001168028
0.2861817215 0.6985779715 0.0000000000 0.9362471625 0.1634363365 -240.6339387869 0.0135507437 -0.0001153446
0.2571035859 0.7092493200 0.0000000000 1.0109037228 0.1856417441 -243.0743586904 0.0135789842 -0.0001136113
0.2276092709 0.7187089504 0.0000000000 1.0717178613 0.2070973034 -245.1511664746 0.0136071029 -0.0001116615
0.1977490316 0.7269406505 0.0000000000 1.1190471634 0.2273906765 -246.7086864181 0.0136349164 -0.0001095490
0.1675737754 0.7339303088 0.0000000000 1.1541282890 0.2463687728 -247.6267151435 0.0136622689 -0.0001073252
0.1371349741 0.7396659393 0.0000000000 1.1786816430 0.2640858914 -247.8142945341 0.0136890316 -0.0001050383
0.1064845740 0.7441377027 0.0000000000 1.1945663421 0.2807309916 -247.1985695470 0.0137151007 -0.0001027321
0.0756749030 0.7473379259 0.0000000000 1.2035314638 0.2965549704 -245.7134120714 0.0137403941 -0.0001004439
0.0447585774 0.7492611172 0.0000000000 1.2070718704 0.3118113054 -243.2907134920 0.0137648468 -0.0000982016
0.0137884059 0.7499039790 0.0000000000 1.2063725068 0.3267155860 -239.8556463602 0.0137884061 -0.0000960210
-0.0171827051 0.7492654147 0.0000000000 1.2023145589 0.3414234639 -235.3258977556 0.0138110257 -0.0000939041
-0.0481018482 0.7473465324 0.0000000000 1.1955167838 0.3560232142 -229.6140245825 0.0138326611 -0.0000918373
-0.0789162097 0.7441506428 0.0000000000 1.1863909364 0.3705380847 -222.6317297882 0.0138532639 -0.0000897920
-0.1095731653 0.7396832517 0.0000000000 1.1751974918 0.3849340967 -214.2949136299 0.0138727776 -0.0000877258
-0.1400203733 0.7339520485 0.0000000000 1.1620943086 0.3991300966 -204.5286352692 0.0138911335 -0.0000855854
-0.1702058682 0.7269668891 0.0000000000 1.1471754999 0.4130080522 -193.2714567574 0.0139082473 -0.0000833103
-0.2000781515 0.7187397748 0.0000000000 1.1305005350 0.4264225430 -180.4789268196 0.0139240169 -0.0000808370
-0.2295862819 0.7092848279 0.0000000000 1.1121149248 0.4392090390 -166.1261556741 0.0139383201 -0.0000781033
-0.2586799634 0.6986182629 0.0000000000 1.0920642546 0.4511909281 -150.2095391183 0.0139510147 -0.0000750531
-0.2873096310 0.6867583546 0.0000000000 1.0704032461 0.4621854246 -132.7477343162 0.0139619377 -0.0000716404
-0.3154265361 0.6737254031 0.0000000000 1.0472012463 0.4720085436 -113.7819969846 0.0139709057 -0.0000678332
-0.3429828306 0.6595416959 0.0000000000 1.0225452096 0.4804793186 -93.3759796237 0.0139777143 -0.0000636174
-0.3699316529 0.6442314653 0.0000000000 0.9965409479 0.4874234058 -71.6150746854 0.0139821341 -0.0000590004
-0.3962272201 0.6278208432 0.0000000000 0.9693131894 0.4926761787 -48.6053706684 0.0139838987 -0.0000540154
-0.4218249403 0.6103378101 0.0000000000 0.9410048099 0.4960853772 -24.4722702682 0.0139826714 -0.0000487277
-0.4466815808 0.5918121357 0.0000000000 0.9117754719 0.4975133304 0.6412013765 0.0139779539 -0.0000432462
-0.4707556171 0.5722753207 0.0000000000 0.8817997839 0.4968386592 26.5764703060 0.0139688115 -0.0000377303
-0.4940082590 0.5517606598 0.0000000000 0.8512649807 0.4939569342 53.1621060618 0.0139529199 -0.0000322731
-0.5378671430 0.5079430229 0.0000000000 0.7893451945 0.4812778125 107.5118682607 0.0139257902 -0.0000181557
-0.5583977233 0.4847144330 0.0000000000 0.7583801257 0.4713837337 134.8797092806 0.0139153280 -0.0000099952
-0.5779569731 0.4606570804 0.0000000000 0.7276977029 0.4590791167 162.1098631020 0.0138984090 -0.0000024539
-0.5965091924 0.4358120220 0.0000000000 0.6975193928 0.4443695894 188.9914503330 0.0138773457 0.0000044107
-0.6140217218 0.4102216560 0.0000000000 0.6680657256 0.4272811537 215.3144639680 0.0138531370 0.0000105376
-0.6304640903 0.3839296278 0.0000000000 0.6395539702 0.4078612428 240.8713964001 0.0138263756 0.0000158412
-0.6458078016 0.3569807784 0.0000000000 0.6121962280 0.3861783047 265.4591524741 0.0137975119 0.0000202339
-0.6600262947 0.3294210815 0.0000000000 0.5861974042 0.3623211604 288.8810449053 0.0137669419 0.0000236401
-0.6730949569 0.3012975712 0.0000000000 0.5617532865 0.3363981120 310.9487234300 0.0137350382 0.0000260030
-0.6849911545 0.2726582641 0.0000000000 0.5390487389 0.3085358687 331.4839976981 0.0137021617 0.0000272864
-0.6956942676 0.2435520778 0.0000000000 0.5182560396 0.2788783125 350.3205307946 0.0136686638 0.0000274762
-0.7051857264 0.2140287470 0.0000000000 0.4995333749 0.2475851220 367.3053902161 0.0136348856 0.0000265791
-0.7134490442 0.1841387370 0.0000000000 0.4830235023 0.2148302706 382.3004475035 0.0136011553 0.0000246219
-0.7204698480 0.1539331559 0.0000000000 0.4688525787 0.1808004077 395.1836201546 0.0135677861 0.0000216495
-0.7262359036 0.1234636650 0.0000000000 0.4571291380 0.1456931306 405.8499487276 0.0135350740 0.0000177226
-0.7307371373 0.0927823889 0.0000000000 0.4479431895 0.1097151636 414.2124985377 0.0135032976 0.0000129158
-0.7339656510 0.0619418232 0.0000000000 0.4413654152 0.0730804738 420.2030735990 0.0134727188 0.0000073144
-0.7359157341 0.0309947418 0.0000000000 0.4374464750 0.0360083659 423.7727373296 0.0134435847 0.0000010114
-0.7365838700 -0.0000058968 0.0000000000 0.4362164660 -0.0012784069 424.8921489734 0.0134161300 -0.0000058965
-0.7359687396 -0.0310070444 0.0000000000 0.4376845969 -0.0385555040 423.5517387265 0.0133905791 -0.0000133134
-0.7340712209 -0.0619556573 0.0000000000 0.4418391025 -0.0755988312 419.7617346969 0.0133671488 -0.0000211479
-0.7308943855 -0.0927987913 0.0000000000 0.4486474154 -0.1121863556 413.5520508615 0.0133460493 -0.0000293176
-0.7264434916 -0.1234836953 0.0000000000 0.4580566034 -0.1480999192 404.9720399386 0.0133274859 -0.0000377523
-0.7207259719 -0.1539579036 0.0000000000 0.4699940190 -0.1831270653 394.0900921258 0.0133116620 -0.0000463966