 TITLE = "Tecplot data"
 VARIABLES = "X", "Y", "Z" "U", "V", "p", "dispX", "dispY"
 ZONE SOLUTIONTIME=54.900000, NODES=26114 , ELEMENTS=25916, DATAPACKING=POINT, ZONETYPE=FEQUADRILATERAL
0.4590906303 -0.2114925599 0.0000000000 0.0000000000 0.0000000000 -185.1808957739 0.1055372398 -0.5650459505
0.4590906306 -0.9185993408 0.0000000000 0.0000000000 0.0000000000 -1148.8615988344 0.1055372398 -0.5650459505
-0.2480161509 -0.2114925600 0.0000000000 0.0000000000 0.0000000000 247.7279754040 0.1055372398 -0.5650459505
-0.2480161506 -0.9185993413 0.0000000000 0.0000000000 0.0000000000 -646.3929059949 0.1055372398 -0.5650459505
0.6336430243 -0.0337360295 0.0000000000 0.0549269966 0.0852065424 -190.8170763233 0.1033129384 -0.5640661154
0.6343833320 -1.1140330914 0.0000000000 1.0452757517 0.5114791045 -539.2500043497 0.1040532457 -0.5837030059
-0.4304372195 -0.0493854317 0.0000000000 0.4289558713 0.3298475981 281.4774566068 0.0998928665 -0.5797155174
-0.4198687863 -1.1047294610 0.0000000000 1.1064400607 -0.6150852269 -144.6819041305 0.1104612993 -0.5743993749
1.1568593793 0.4885237618 0.0000000000 0.3241949051 0.5027603447 -789.6472806114 0.0961992077 -0.5721364101
1.1715852792 -1.6397519403 0.0000000000 0.9874560361 0.0354132171 -156.8903404190 0.1109251066 -0.5790917693
-0.9735970529 0.4449116906 0.0000000000 0.7811645422 0.1787336926 211.3931665847 0.0870631192 -0.6157484808
-0.9407868206 -1.6654580243 0.0000000000 1.0221036983 -0.2032478020 7.6081785111 0.1198733507 -0.6047978520
4.2445031379 2.7986577973 0.0000000000 1.0476163237 0.0462798811 42.9823387619 0.0445031379 -0.5013422027
4.3509095785 -3.7996933831 0.0000000000 1.0432397878 0.0204445732 -22.9393833395 0.1509095785 -0.4996933831
20.0000000000 4.7000000000 0.0000000000 1.0170322986 0.0311376843 -0.1012717361 0.0000000000 0.0000000000
20.0000000000 -4.7000000000 0.0000000000 1.0455486764 -0.0618686830 0.6434376393 0.0000000000 0.0000000000
-10.0000000000 15.0000000000 0.0000000000 1.0000000000 0.0000000000 58.8602981832 0.0000000000 0.0000000000
20.0000000000 15.0000000000 0.0000000000 1.0408674795 0.0000000000 0.0657258183 0.0000000000 0.0000000000
20.0000000000 -15.0000000000 0.0000000000 1.0403684290 0.0000000000 0.0263196300 0.0000000000 0.0000000000
-10.0000000000 -15.0000000000 0.0000000000 1.0000000000 0.0000000000 16.0673683700 0.0000000000 0.0000000000
0.4720631759 -0.9051323191 0.0000000000 0.0000000000 0.0000000000 -1129.6059523538 0.1055372398 -0.5650459505
0.4845231016 -0.8911896559 0.0000000000 0.0000000000 0.0000000000 -1054.9431363963 0.1055372398 -0.5650459505
0.4964529812 -0.8767908512 0.0000000000 0.0000000000 0.0000000000 -1012.5204317817 0.1055372398 -0.5650459505
0.5078361299 -0.8619560430 0.0000000000 0.0000000000 0.0000000000 -954.5002847373 0.1055372398 -0.5650459505
0.5186566271 -0.8467059793 0.0000000000 0.0000000000 0.0000000000 -906.3662649574 0.1055372398 -0.5650459505
0.5288993396 -0.8310619885 0.0000000000 0.0000000000 0.0000000000 -854.6491203974 0.1055372398 -0.5650459505
0.5385499418 -0.8150459502 0.0000000000 0.0000000000 0.0000000000 -806.8874102512 0.1055372398 -0.5650459505
0.5475949367 -0.7986802644 0.0000000000 0.0000000000 0.0000000000 -759.4127880439 0.1055372398 -0.5650459505
0.5560216739 -0.7819878198 0.0000000000 0.0000000000 0.0000000000 -714.4453310761 0.1055372398 -0.5650459505
0.5638183678 -0.7649919624 0.0000000000 0.0000000000 0.0000000000 -671.0747874527 0.1055372398 -0.5650459505
0.5709741142 -0.7477164624 0.0000000000 0.0000000000 0.0000000000 -629.9682714021 0.1055372398 -0.5650459505
0.5774789050 -0.7301854812 0.0000000000 0.0000000000 0.0000000000 -590.9933207252 0.1055372398 -0.5650459505
0.5833236428 -0.7124235374 0.0000000000 0.0000000000 0.0000000000 -554.1123038572 0.1055372398 -0.5650459505
0.5885001530 -0.6944554728 0.0000000000 0.0000000000 0.0000000000 -520.1558019680 0.1055372398 -0.5650459505
0.5930011959 -0.6763064172 0.0000000000 0.0000000000 0.0000000000 -485.8730373640 0.1055372398 -0.5650459505
0.5968204765 -0.6580017538 0.0000000000 0.0000000000 0.0000000000 -461.6047626378 0.1055372398 -0.5650459505
0.5999526529 -0.6395670834 0.0000000000 0.0000000000 0.0000000000 -429.7543052992 0.1055372398 -0.5650459505
0.6023933448 -0.6210281883 0.0000000000 0.0000000000 0.0000000000 -407.1291017454 0.1055372398 -0.5650459505
0.6041391384 -0.6024109971 0.0000000000 0.0000000000 0.0000000000 -382.4394403317 0.1055372398 -0.5650459505
0.6051875922 -0.5837415474 0.0000000000 0.0000000000 0.0000000000 -361.5933181045 0.1055372398 -0.5650459505
0.6055372398 -0.5650459503 0.0000000000 0.0000000000 0.0000000000 -342.3211449856 0.1055372398 -0.5650459505
0.6051875922 -0.5463503532 0.0000000000 0.0000000000 0.0000000000 -325.0788433390 0.1055372398 -0.5650459505
0.6041391384 -0.5276809035 0.0000000000 0.0000000000 0.0000000000 -309.6091581085 0.1055372398 -0.5650459505
0.6023933447 -0.5090637123 0.0000000000 0.0000000000 0.0000000000 -295.8060527388 0.1055372398 -0.5650459505
0.5999526529 -0.4905248172 0.0000000000 0.0000000000 0.0000000000 -283.5382171494 0.1055372398 -0.5650459505
0.5968204764 -0.4720901467 0.0000000000 0.0000000000 0.0000000000 -272.6605490747 0.1055372398 -0.5650459505
0.5930011958 -0.4537854834 0.0000000000 0.0000000000 0.0000000000 -263.0426513722 0.1055372398 -0.5650459505
0.5885001529 -0.4356364278 0.0000000000 0.0000000000 0.0000000000 -254.5090368332 0.1055372398 -0.5650459505
0.5833236426 -0.4176683631 0.0000000000 0.0000000000 0.0000000000 -247.0226055327 0.1055372398 -0.5650459505
0.5774789049 -0.3999064194 0.0000000000 0.0000000000 0.0000000000 -240.1599742407 0.1055372398 -0.5650459505
0.5709741141 -0.3823754382 0.0000000000 0.0000000000 0.0000000000 -234.4439074394 0.1055372398 -0.5650459505
0.5638183677 -0.3650999382 0.0000000000 0.0000000000 0.0000000000 -228.4495616825 0.1055372398 -0.5650459505
0.5560216737 -0.3481040808 0.0000000000 0.0000000000 0.0000000000 -223.5468660671 0.1055372398 -0.5650459505
0.5475949365 -0.3314116363 0.0000000000 0.0000000000 0.0000000000 -218.7660069148 0.1055372398 -0.5650459505
0.5385499416 -0.3150459504 0.0000000000 0.0000000000 0.0000000000 -214.2730332131 0.1055372398 -0.5650459505
0.5288993394 -0.2990299122 0.0000000000 0.0000000000 0.0000000000 -209.9539384226 0.1055372398 -0.5650459505
0.5186566269 -0.2833859214 0.0000000000 0.0000000000 0.0000000000 -205.7144939385 0.1055372398 -0.5650459505
0.5078361296 -0.2681358576 0.0000000000 0.0000000000 0.0000000000 -201.6038029446 0.1055372398 -0.5650459505
0.4964529810 -0.2533010495 0.0000000000 0.0000000000 0.0000000000 -197.4187095742 0.1055372398 -0.5650459505
0.4845231013 -0.2389022448 0.0000000000 0.0000000000 0.0000000000 -193.4204321775 0.1055372398 -0.5650459505
0.4720631757 -0.2249595816 0.0000000000 0.0000000000 0.0000000000 -189.1425099930 0.1055372398 -0.5650459505
0.4441780256 -0.1971839951 0.0000000000 0.0000000000 0.0000000000 -180.4500453447 0.1055372398 -0.5650459505
0.4286868587 -0.1835039164 0.0000000000 0.0000000000 0.0000000000 -175.8701923243 0.1055372398 -0.5650459505
0.4126435961 -0.1704756958 0.0000000000 0.0000000000 0.0000000000 -171.1079107455 0.1055372398 -0.5650459505
0.3960756474 -0.1581215918 0.0000000000 0.0000000000 0.0000000000 -166.3302822477 0.1055372398 -0.5650459505
0.3790113188 -0.1464627113 0.0000000000 0.0000000000 0.0000000000 -161.3978454129 0.1055372398 -0.5650459505
0.3614797643 -0.1355189733 0.0000000000 0.0000000000 0.0000000000 -156.3450922284 0.1055372398 -0.5650459505
0.3435109362 -0.1253090749 0.0000000000 0.0000000000 0.0000000000 -151.0968693926 0.1055372398 -0.5650459505
0.3251355342 -0.1158504595 0.0000000000 0.0000000000 0.0000000000 -145.6410864258 0.1055372398 -0.5650459505
0.3063849521 -0.1071592871 0.0000000000 0.0000000000 0.0000000000 -139.9276431322 0.1055372398 -0.5650459505
0.2872912250 -0.0992504064 0.0000000000 0.0000000000 0.0000000000 -133.9316288075 0.1055372398 -0.5650459505
0.2678869743 -0.0921373296 0.0000000000 0.0000000000 0.0000000000 -127.6161389120 0.1055372398 -0.5650459505
0.2482053518 -0.0858322092 0.0000000000 0.0000000000 0.0000000000 -120.9550040619 0.1055372398 -0.5650459505
0.2282799833 -0.0803458175 0.0000000000 0.0000000000 0.0000000000 -113.9186101695 0.1055372398 -0.5650459505
0.2081449108 -0.0756875278 0.0000000000 0.0000000000 0.0000000000 -106.4818514189 0.1055372398 -0.5650459505
0.1878345348 -0.0718652988 0.0000000000 0.0000000000 0.0000000000 -98.6186818427 0.1055372398 -0.5650459505
0.1673835553 -0.0688856606 0.0000000000 0.0000000000 0.0000000000 -90.3048754255 0.1055372398 -0.5650459505
0.1468269124 -0.0667537040 0.0000000000 0.0000000000 0.0000000000 -81.5159805813 0.1055372398 -0.5650459505
0.1261997268 -0.0654730713 0.0000000000 0.0000000000 0.0000000000 -72.2282864685 0.1055372398 -0.5650459505
0.1055372397 -0.0650459505 0.0000000000 0.0000000000 0.0000000000 -62.4180934781 0.1055372398 -0.5650459505
0.0848747526 -0.0654730713 0.0000000000 0.0000000000 0.0000000000 -52.0620797007 0.1055372398 -0.5650459505
0.0642475669 -0.0667537040 0.0000000000 0.0000000000 0.0000000000 -41.1370968214 0.1055372398 -0.5650459505
0.0436909240 -0.0688856606 0.0000000000 0.0000000000 0.0000000000 -29.6203756353 0.1055372398 -0.5650459505
0.0232399445 -0.0718652988 0.0000000000 0.0000000000 0.0000000000 -17.4895689650 0.1055372398 -0.5650459505
0.0029295686 -0.0756875279 0.0000000000 0.0000000000 0.0000000000 -4.7229713420 0.1055372398 -0.5650459505
-0.0172055039 -0.0803458176 0.0000000000 0.0000000000 0.0000000000 8.7002687662 0.1055372398 -0.5650459505
-0.0371308724 -0.0858322093 0.0000000000 0.0000000000 0.0000000000 22.7998233106 0.1055372398 -0.5650459505
-0.0568124949 -0.0921373297 0.0000000000 0.0000000000 0.0000000000 37.5937958828 0.1055372398 -0.5650459505
-0.0762167456 -0.0992504065 0.0000000000 0.0000000000 0.0000000000 53.0982249117 0.1055372398 -0.5650459505
-0.0953104727 -0.1071592872 0.0000000000 0.0000000000 0.0000000000 69.3264916378 0.1055372398 -0.5650459505
-0.1140610547 -0.1158504596 0.0000000000 0.0000000000 0.0000000000 86.2886194696 0.1055372398 -0.5650459505
-0.1324364568 -0.1253090750 0.0000000000 0.0000000000 0.0000000000 103.9904672526 0.1055372398 -0.5650459505
-0.1504052849 -0.1355189734 0.0000000000 0.0000000000 0.0000000000 122.4328033424 0.1055372398 -0.5650459505
-0.1679368394 -0.1464627114 0.0000000000 0.0000000000 0.0000000000 141.6102407792 0.1055372398 -0.5650459505
-0.1850011680 -0.1581215919 0.0000000000 0.0000000000 0.0000000000 161.5099935176 0.1055372398 -0.5650459505
-0.2015691167 -0.1704756959 0.0000000000 0.0000000000 0.0000000000 182.1104137514 0.1055372398 -0.5650459505
-0.2176123793 -0.1835039165 0.0000000000 0.0000000000 0.0000000000 203.3792424989 0.1055372398 -0.5650459505
-0.2331035461 -0.1971839953 0.0000000000 0.0000000000 0.0000000000 225.2716535895 0.1055372398 -0.5650459505
-0.2623247156 -0.2264051648 0.0000000000 0.0000000000 0.0000000000 270.6723685095 0.1055372398 -0.5650459505
-0.2760047944 -0.2418963317 0.0000000000 0.0000000000 0.0000000000 294.0104079506 0.1055372398 -0.5650459505
-0.2890330150 -0.2579395943 0.0000000000 0.0000000000 0.0000000000 317.6365856876 0.1055372398 -0.5650459505
-0.3013871189 -0.2745075429 0.0000000000 0.0000000000 0.0000000000 341.4336256322 0.1055372398 -0.5650459505
-0.3130459994 -0.2915718716 0.0000000000 0.0000000000 0.0000000000 365.3257050183 0.1055372398 -0.5650459505
-0.3239897375 -0.3091034261 0.0000000000 0.0000000000 0.0000000000 389.3091579615 0.1055372398 -0.5650459505
-0.3341996359 -0.3270722541 0.0000000000 0.0000000000 0.0000000000 411.1556816946 0.1055372398 -0.5650459505
-0.3436582512 -0.3454476562 0.0000000000 0.0000000000 0.0000000000 433.9703063368 0.1055372398 -0.5650459505
-0.3523494236 -0.3641982383 0.0000000000 0.0000000000 0.0000000000 454.0974600030 0.1055372398 -0.5650459505
-0.3602583043 -0.3832919654 0.0000000000 0.0000000000 0.0000000000 473.0596484341 0.1055372398 -0.5650459505
-0.3673713811 -0.4026962161 0.0000000000 0.0000000000 0.0000000000 490.3333974081 0.1055372398 -0.5650459505
-0.3736765015 -0.4223778385 0.0000000000 0.0000000000 0.0000000000 505.5189113573 0.1055372398 -0.5650459505
-0.3791628932 -0.4423032071 0.0000000000 0.0000000000 0.0000000000 518.2194895400 0.1055372398 -0.5650459505
-0.3838211829 -0.4624382796 0.0000000000 0.0000000000 0.0000000000 528.0619701018 0.1055372398 -0.5650459505
-0.3876434119 -0.4827486555 0.0000000000 0.0000000000 0.0000000000 534.6880944007 0.1055372398 -0.5650459505
-0.3906230501 -0.5031996351 0.0000000000 0.0000000000 0.0000000000 537.7657932425 0.1055372398 -0.5650459505
-0.3927550067 -0.5237562780 0.0000000000 0.0000000000 0.0000000000 536.9792131651 0.1055372398 -0.5650459505
-0.3940356394 -0.5443834636 0.0000000000 0.0000000000 0.0000000000 532.0600162274 0.1055372398 -0.5650459505
-0.3944627602 -0.5650459507 0.0000000000 0.0000000000 0.0000000000 522.7436240939 0.1055372398 -0.5650459505
-0.3940356394 -0.5857084378 0.0000000000 0.0000000000 0.0000000000 508.8590164390 0.1055372398 -0.5650459505
-0.3927550067 -0.6063356234 0.0000000000 0.0000000000 0.0000000000 490.1782140630 0.1055372398 -0.5650459505
-0.3906230500 -0.6268922663 0.0000000000 0.0000000000 0.0000000000 466.6916093148 0.1055372398 -0.5650459505
-0.3876434119 -0.6473432458 0.0000000000 0.0000000000 0.0000000000 438.1257965570 0.1055372398 -0.5650459505
-0.3838211828 -0.6676536218 0.0000000000 0.0000000000 0.0000000000 404.8055219450 0.1055372398 -0.5650459505
-0.3791628931 -0.6877886943 0.0000000000 0.0000000000 0.0000000000 366.1196064020 0.1055372398 -0.5650459505
-0.3736765014 -0.7077140628 0.0000000000 0.0000000000 0.0000000000 323.2994989055 0.1055372398 -0.5650459505
-0.3673713810 -0.7273956853 0.0000000000 0.0000000000 0.0000000000 274.2847280178 0.1055372398 -0.5650459505
-0.3602583041 -0.7467999360 0.0000000000 0.0000000000 0.0000000000 223.6931007080 0.1055372398 -0.5650459505
-0.3523494234 -0.7658936630 0.0000000000 0.0000000000 0.0000000000 162.1025439077 0.1055372398 -0.5650459505
-0.3436582511 -0.7846442451 0.0000000000 0.0000000000 0.0000000000 114.3216729900 0.1055372398 -0.5650459505
-0.3341996357 -0.8030196472 0.0000000000 0.0000000000 0.0000000000 19.6607257620 0.1055372398 -0.5650459505
-0.3239897373 -0.8209884752 0.0000000000 0.0000000000 0.0000000000 -1.4650450980 0.1055372398 -0.5650459505
-0.3130459992 -0.8385200298 0.0000000000 0.0000000000 0.0000000000 -158.2044989155 0.1055372398 -0.5650459505
-0.3013871187 -0.8555843584 0.0000000000 0.0000000000 0.0000000000 -51.0827309802 0.1055372398 -0.5650459505
-0.2890330148 -0.8721523070 0.0000000000 0.0000000000 0.0000000000 -493.3813793143 0.1055372398 -0.5650459505
-0.2760047941 -0.8881955696 0.0000000000 0.0000000000 0.0000000000 -13.0850673051 0.1055372398 -0.5650459505
-0.2623247154 -0.9036867365 0.0000000000 0.0000000000 0.0000000000 -954.2144901318 0.1055372398 -0.5650459505
-0.2331035458 -0.9329079060 0.0000000000 0.0000000000 0.0000000000 354.1585280796 0.1055372398 -0.5650459505
-0.2176123789 -0.9465879848 0.0000000000 0.0000000000 0.0000000000 -1499.7952228246 0.1055372398 -0.5650459505
-0.2015691163 -0.9596162054 0.0000000000 0.0000000000 0.0000000000 -582.7213235138 0.1055372398 -0.5650459505
-0.1850011677 -0.9719703093 0.0000000000 0.0000000000 0.0000000000 -1027.0504291348 0.1055372398 -0.5650459505
-0.1679368390 -0.9836291898 0.0000000000 0.0000000000 0.0000000000 -816.2634528331 0.1055372398 -0.5650459505
-0.1504052845 -0.9945729278 0.0000000000 0.0000000000 0.0000000000 -1058.2439881128 0.1055372398 -0.5650459505
-0.1324364565 -1.0047828262 0.0000000000 0.0000000000 0.0000000000 -1037.7059977489 0.1055372398 -0.5650459505
-0.1140610544 -1.0142414416 0.0000000000 0.0000000000 0.0000000000 -1179.5763344256 0.1055372398 -0.5650459505
-0.0953104723 -1.0229326139 0.0000000000 0.0000000000 0.0000000000 -1214.0121568012 0.1055372398 -0.5650459505
-0.0762167452 -1.0308414946 0.0000000000 0.0000000000 0.0000000000 -1311.9945836311 0.1055372398 -0.5650459505
-0.0568124945 -1.0379545714 0.0000000000 0.0000000000 0.0000000000 -1362.0117688918 0.1055372398 -0.5650459505
-0.0371308721 -1.0442596918 0.0000000000 0.0000000000 0.0000000000 -1435.8494442657 0.1055372398 -0.5650459505
-0.0172055035 -1.0497460835 0.0000000000 0.0000000000 0.0000000000 -1486.1513111972 0.1055372398 -0.5650459505
0.0029295690 -1.0544043732 0.0000000000 0.0000000000 0.0000000000 -1543.3319315516 0.1055372398 -0.5650459505
0.0232399449 -1.0582266022 0.0000000000 0.0000000000 0.0000000000 -1587.1172977464 0.1055372398 -0.5650459505
0.0436909245 -1.0612062404 0.0000000000 0.0000000000 0.0000000000 -1630.3497009229 0.1055372398 -0.5650459505
0.0642475674 -1.0633381970 0.0000000000 0.0000000000 0.0000000000 -1664.3561262692 0.1055372398 -0.5650459505
0.0848747530 -1.0646188297 0.0000000000 0.0000000000 0.0000000000 -1694.5065337780 0.1055372398 -0.5650459505
0.1055372401 -1.0650459505 0.0000000000 0.0000000000 0.0000000000 -1717.1347327803 0.1055372398 -0.5650459505
0.1261997272 -1.0646188297 0.0000000000 0.0000000000 0.0000000000 -1734.4743822196 0.1055372398 -0.5650459505
0.1468269128 -1.0633381970 0.0000000000 0.0000000000 0.0000000000 -1745.0385493962 0.1055372398 -0.5650459505
0.1673835557 -1.0612062403 0.0000000000 0.0000000000 0.0000000000 -1749.7897950433 0.1055372398 -0.5650459505
0.1878345352 -1.0582266021 0.0000000000 0.0000000000 0.0000000000 -1748.2086757159 0.1055372398 -0.5650459505
0.2081449112 -1.0544043731 0.0000000000 0.0000000000 0.0000000000 -1740.7835916947 0.1055372398 -0.5650459505
0.2282799837 -1.0497460834 0.0000000000 0.0000000000 0.0000000000 -1727.4451979817 0.1055372398 -0.5650459505
0.2482053522 -1.0442596916 0.0000000000 0.0000000000 0.0000000000 -1708.5421606950 0.1055372398 -0.5650459505
0.2678869747 -1.0379545712 0.0000000000 0.0000000000 0.0000000000 -1684.2322091990 0.1055372398 -0.5650459505
0.2872912254 -1.0308414944 0.0000000000 0.0000000000 0.0000000000 -1654.8625358059 0.1055372398 -0.5650459505
0.3063849524 -1.0229326137 0.0000000000 0.0000000000 0.0000000000 -1620.7084980103 0.1055372398 -0.5650459505
0.3251355345 -1.0142414413 0.0000000000 0.0000000000 0.0000000000 -1582.1860651808 0.1055372398 -0.5650459505
0.3435109366 -1.0047828259 0.0000000000 0.0000000000 0.0000000000 -1539.6008313181 0.1055372398 -0.5650459505
0.3614797646 -0.9945729275 0.0000000000 0.0000000000 0.0000000000 -1493.4771595247 0.1055372398 -0.5650459505
0.3790113191 -0.9836291894 0.0000000000 0.0000000000 0.0000000000 -1444.2348992183 0.1055372398 -0.5650459505
0.3960756478 -0.9719703089 0.0000000000 0.0000000000 0.0000000000 -1391.7370427221 0.1055372398 -0.5650459505
0.4126435964 -0.9596162050 0.0000000000 0.0000000000 0.0000000000 -1339.4506592595 0.1055372398 -0.5650459505
0.4286868590 -0.9465879844 0.0000000000 0.0000000000 0.0000000000 -1277.5674827389 0.1055372398 -0.5650459505
0.4441780259 -0.9329079056 0.0000000000 0.0000000000 0.0000000000 -1236.7712341334 0.1055372398 -0.5650459505
0.6534392970 -1.0934624005 0.0000000000 1.0068860087 0.5207002216 -517.8463712007 0.1036503928 -0.5833328475
0.6720568821 -1.0728297011 0.0000000000 0.9681690714 0.5270749620 -495.4802633906 0.1035780894 -0.5836141430
0.6899281536 -1.0516696003 0.0000000000 0.9292669534 0.5314819760 -473.1354067087 0.1035545414 -0.5840522493
0.7069908541 -1.0298901960 0.0000000000 0.8902295483 0.5341316570 -451.0160112698 0.1035425190 -0.5845250572
0.7232074459 -1.0074752722 0.0000000000 0.8511321784 0.5351483045 -429.2960278534 0.1035283649 -0.5849852290
0.7385470658 -0.9844355568 0.0000000000 0.8120539954 0.5346313941 -408.1152091270 0.1035039161 -0.5854114998
0.7529833137 -0.9607938683 0.0000000000 0.7730730767 0.5326786594 -387.6001684939 0.1034642606 -0.5857938687
0.7664937608 -0.9365792275 0.0000000000 0.7342631107 0.5293925343 -367.8650260011 0.1034072154 -0.5861277567
0.7790594393 -0.9118240695 0.0000000000 0.6956930402 0.5248819005 -349.0128119949 0.1033327881 -0.5864112656
0.7906642590 -0.8865627846 0.0000000000 0.6574286402 0.5192599982 -331.1356061958 0.1032425669 -0.5866437667
0.8012944801 -0.8608309159 0.0000000000 0.6195361173 0.5126391772 -314.3143059021 0.1031391685 -0.5868251480
0.8109383149 -0.8346647002 0.0000000000 0.5820876868 0.5051232261 -298.6181729703 0.1030258170 -0.5869554042
0.8195856570 -0.8081007867 0.0000000000 0.5451687003 0.4967987264 -284.1044431746 0.1029060526 -0.5870344063
0.8272279020 -0.7811760496 0.0000000000 0.5088852173 0.4877275667 -270.8181937349 0.1027835322 -0.5870617661
0.8338578182 -0.7539274543 0.0000000000 0.4733701329 0.4779431421 -258.7925339461 0.1026618840 -0.5870367542
0.8394694432 -0.7263919600 0.0000000000 0.4387853521 0.4674526114 -248.0490282006 0.1025445882 -0.5869582550
0.8440579933 -0.6986064542 0.0000000000 0.4053173377 0.4562466707 -238.5981385254 0.1024348736 -0.5868247549
0.8476197829 -0.6706077172 0.0000000000 0.3731639532 0.4443165848 -230.4394272905 0.1023356255 -0.5866343605
0.8501521562 -0.6424324180 0.0000000000 0.3425120404 0.4316758887 -223.5613127435 0.1022493083 -0.5863848481
0.8516534338 -0.6141171407 0.0000000000 0.3135075775 0.4183817833 -217.9403121943 0.1021779052 -0.5860737453
0.8521228767 -0.5856984425 0.0000000000 0.2862232052 0.4045496438 -213.5398921306 0.1021228767 -0.5856984428
0.8515606671 -0.5572129379 0.0000000000 0.2606306926 0.3903541902 -210.3091810648 0.1020851385 -0.5852563339
0.8499679044 -0.5286974075 0.0000000000 0.2365875349 0.3760134013 -208.1817753154 0.1020650566 -0.5847449780
0.8473466140 -0.5001889221 0.0000000000 0.2138461947 0.3617560561 -207.0746127225 0.1020624566 -0.5841622795
0.8436997668 -0.4717249732 0.0000000000 0.1920906699 0.3477796213 -206.8865007802 0.1020766471 -0.5835066731
0.8390313114 -0.4433436002 0.0000000000 0.1709981347 0.3342098417 -207.4956958064 0.1021064565 -0.5827773059
0.8333462195 -0.4150835013 0.0000000000 0.1503149459 0.3210744293 -208.7563656824 0.1021502854 -0.5819742020
0.8266505509 -0.3869841163 0.0000000000 0.1299293818 0.3082994747 -210.4949604774 0.1022061813 -0.5810984003
0.8189515420 -0.3590856707 0.0000000000 0.1099215394 0.2957296282 -212.5089324579 0.1022719377 -0.5801520517
0.8102577244 -0.3314291688 0.0000000000 0.0905757008 0.2831648413 -214.5708353775 0.1023452267 -0.5791384655
0.8005790761 -0.3040563256 0.0000000000 0.0723509077 0.2704012300 -216.4397691545 0.1024237647 -0.5780620940
0.7899272042 -0.2770094274 0.0000000000 0.0558173080 0.2572635505 -217.8796219602 0.1025055123 -0.5769284458
0.7783155476 -0.2503311092 0.0000000000 0.0415742573 0.2436213224 -218.6808471745 0.1025888967 -0.5757439137
0.7657595701 -0.2240640406 0.0000000000 0.0301683281 0.2293871397 -218.6810460663 0.1026730251 -0.5745155119
0.7522768776 -0.1982505214 0.0000000000 0.0220256498 0.2145012417 -217.7800451535 0.1027578248 -0.5732505216
0.7378871509 -0.1729320248 0.0000000000 0.0174061129 0.1989093356 -215.9469889699 0.1028440015 -0.5719560823
0.7226117673 -0.1481487965 0.0000000000 0.0163802218 0.1825412162 -213.2191334657 0.1029326866 -0.5706388401
0.7064730439 -0.1239397461 0.0000000000 0.0188250161 0.1652973479 -209.6936163488 0.1030247092 -0.5693048854
0.6894931870 -0.1003430606 0.0000000000 0.0244344506 0.1470508067 -205.5141499238 0.1031195753 -0.5679604121
0.6716929209 -0.0773986394 0.0000000000 0.0327405679 0.1276719073 -200.8544426632 0.1032141286 -0.5666141979
0.6530897641 -0.0551550951 0.0000000000 0.0431439726 0.1070806747 -195.8993091601 0.1033008603 -0.5652846485
0.6111531560 -0.0108023382 0.0000000000 0.0689110431 0.0600731512 -185.2362723892 0.1031919774 -0.5625952713
0.5877486079 0.0109250603 0.0000000000 0.0829080446 0.0349389917 -179.8221371970 0.1030241796 -0.5613879909
0.5635298437 0.0315457226 0.0000000000 0.0963405560 0.0114172554 -174.6723783091 0.1028703092 -0.5603096595
0.5385377691 0.0510493173 0.0000000000 0.1089603125 -0.0087899443 -169.7930751237 0.1027301576 -0.5593372207
0.5128126350 0.0694146163 0.0000000000 0.1208244695 -0.0242126323 -165.1430010906 0.1026015165 -0.5584602424
0.4863938804 0.0866158952 0.0000000000 0.1322011900 -0.0340342807 -160.6456402627 0.1024800936 -0.5576745706
0.4593215231 0.1026249859 0.0000000000 0.1434340981 -0.0383016985 -156.1956431526 0.1023609784 -0.5569803276
0.4316370044 0.1174124088 0.0000000000 0.1548259879 -0.0378124390 -151.6673164901 0.1022395629 -0.5563808276
0.4033836280 0.1309486395 0.0000000000 0.1665780818 -0.0337524031 -146.9312009749 0.1021120596 -0.5558813555
0.3746066247 0.1432052858 0.0000000000 0.1787875542 -0.0272830637 -141.8741110518 0.1019756469 -0.5554880303
0.3453530052 0.1541559897 0.0000000000 0.1914788146 -0.0192655531 -136.4111382026 0.1018284034 -0.5552069416
0.3156713582 0.1637770558 0.0000000000 0.2046398212 -0.0101853937 -130.4843035753 0.1016691901 -0.5550435561
0.2856116791 0.1720478897 0.0000000000 0.2182482954 -0.0002194672 -124.0530570408 0.1014975639 -0.5550023098
0.2552252565 0.1789513123 0.0000000000 0.2322865641 0.0106520831 -117.0846082879 0.1013137500 -0.5550863217
0.2245646042 0.1844737658 0.0000000000 0.2467493790 0.0225542103 -109.5479001473 0.1011186616 -0.5552972118
0.1936834087 0.1886054077 0.0000000000 0.2616492058 0.0356646777 -101.4108170026 0.1009139354 -0.5556350271
0.1626364614 0.1913400927 0.0000000000 0.2770221524 0.0501946718 -92.6388970639 0.1007019524 -0.5560982771
0.1314795483 0.1926752612 0.0000000000 0.2929354721 0.0663901412 -83.1942317292 0.1004858177 -0.5566840576
0.1002692842 0.1926117755 0.0000000000 0.3094934219 0.0845418022 -73.0338973446 0.1002692844 -0.5573882245
0.0690628912 0.1911537506 0.0000000000 0.3268326432 0.1049889203 -62.1078554680 0.1000566220 -0.5582055682
0.0379179323 0.1883084195 0.0000000000 0.3450945323 0.1280970105 -50.3570060760 0.0998524416 -0.5591299502
0.0068920206 0.1840860558 0.0000000000 0.3643652106 0.1541895239 -37.7129207838 0.0996614943 -0.5601543790
-0.0239574797 0.1784999511 0.0000000000 0.3845864706 0.1834255603 -24.1011583285 0.0994884631 -0.5612710264
-0.0545737449 0.1715664318 0.0000000000 0.4054602620 0.2156406986 -9.4492901845 0.0993377619 -0.5624712022
-0.0849007667 0.1633048916 0.0000000000 0.4263851139 0.2501973102 6.3013100983 0.0992133488 -0.5637453078
-0.1148836093 0.1537378195 0.0000000000 0.4464636203 0.2859077799 23.1832653956 0.0991185591 -0.5650827923
-0.1444686468 0.1428908120 0.0000000000 0.4646000696 0.3210838492 41.1946980057 0.0990559552 -0.5664721192
-0.1736037829 0.1307925699 0.0000000000 0.4796730521 0.3537257483 60.2964179054 0.0990271952 -0.5679007461
-0.2022386490 0.1174748906 0.0000000000 0.4907363091 0.3818122060 80.4133287598 0.0990329197 -0.5693551043
-0.2303247800 0.1029726778 0.0000000000 0.4971888368 0.4036132352 101.4371560945 0.0990726618 -0.5708205586
-0.2578157619 0.0873240139 0.0000000000 0.4988676966 0.4179408050 123.2292177396 0.0991447831 -0.5722812994
-0.2846673512 0.0705703871 0.0000000000 0.4960460272 0.4242781891 145.6241603707 0.0992464358 -0.5737200785
-0.3108375735 0.0527572892 0.0000000000 0.4893497130 0.4227713007 168.4358628766 0.0993735453 -0.5751175694
-0.3362868267 0.0339357390 0.0000000000 0.4796269855 0.4141055138 191.4650197045 0.0995207850 -0.5764507988
-0.3609781011 0.0141663419 0.0000000000 0.4678115099 0.3993162348 214.5064707935 0.0996814336 -0.5776890400
-0.3848781952 -0.0064685047 0.0000000000 0.4548164822 0.3795891825 237.3499437044 0.0998462334 -0.5787815557
-0.4079659305 -0.0278220408 0.0000000000 0.4415016170 0.3560850888 259.7798350142 0.0999952484 -0.5796149737
-0.4514002492 -0.0740294217 0.0000000000 0.4146394750 0.3012198482 303.2923382977 0.1003926840 -0.5819906003
-0.4716929621 -0.0988897752 0.0000000000 0.4018729270 0.2709930003 324.2221062425 0.1006200892 -0.5836142035
-0.4910457914 -0.1243398543 0.0000000000 0.3903551671 0.2395837305 344.1741611349 0.1008095908 -0.5849993886
-0.5094091093 -0.1504205046 0.0000000000 0.3801951906 0.2071871852 363.0434420189 0.1009774288 -0.5862281160
-0.5267482186 -0.1771192921 0.0000000000 0.3715048021 0.1739314412 380.7045934304 0.1011266402 -0.5873304105
-0.5430317702 -0.2044064415 0.0000000000 0.3643956277 0.1398990360 397.0261676477 0.1012586957 -0.5883202281
-0.5582300165 -0.2322450258 0.0000000000 0.3589751373 0.1051590578 411.8751790952 0.1013752970 -0.5892055704
-0.5723145673 -0.2605943603 0.0000000000 0.3553470268 0.0697865269 425.1196388587 0.1014786692 -0.5899918017
-0.5852583898 -0.2894112856 0.0000000000 0.3536091558 0.0338731359 436.6311285477 0.1015716053 -0.5906828539
-0.5970358893 -0.3186506909 0.0000000000 0.3538505213 -0.0024691594 446.2875393336 0.1016574268 -0.5912816686
-0.6076230301 -0.3482657432 0.0000000000 0.3561480382 -0.0391091015 453.9758148854 0.1017399012 -0.5917903449
-0.6169974814 -0.3782080128 0.0000000000 0.3605638321 -0.0758995791 459.5944515436 0.1018231305 -0.5922101807
-0.6251387809 -0.4084275741 0.0000000000 0.3671433553 -0.1126820545 463.0555615200 0.1019114186 -0.5925416892
-0.6320285123 -0.4388731228 0.0000000000 0.3759143985 -0.1492910499 464.2863765995 0.1020091217 -0.5927846292
-0.6376504925 -0.4694921242 0.0000000000 0.3868869242 -0.1855582081 463.2301406916 0.1021204851 -0.5929380666
-0.6419909630 -0.5002310011 0.0000000000 0.4000535874 -0.2213157292 459.8463978746 0.1022494718 -0.5930004743
-0.6450387773 -0.5310353630 0.0000000000 0.4153907896 -0.2563991379 454.1107270869 0.1023995925 -0.5929698718
-0.6467855710 -0.5618502715 0.0000000000 0.4328601220 -0.2906494103 446.0140060324 0.1025737478 -0.5928440019
-0.6472259010 -0.5926205415 0.0000000000 0.4524100645 -0.3239145134 435.5613054906 0.1027740990 -0.5926205412
-0.6463573365 -0.6232910719 0.0000000000 0.4739778313 -0.3560504249 422.7705205359 0.1030019823 -0.5922973409
-0.6441804888 -0.6538072009 0.0000000000 0.4974912738 -0.3869217000 407.6708367310 0.1032578810 -0.5918726915
-0.6406989715 -0.6841150802 0.0000000000 0.5228707722 -0.4164016546 390.3011133190 0.1035414633 -0.5913456064
-0.6359192889 -0.7141620597 0.0000000000 0.5500310582 -0.4443722191 370.7082408831 0.1038516886 -0.5907161167