 TITLE = "Tecplot data"
 VARIABLES = "X", "Y", "Z" "U", "V", "p", "dispX", "dispY"
 ZONE SOLUTIONTIME=8.900000, NODES=26114 , ELEMENTS=25916, DATAPACKING=POINT, ZONETYPE=FEQUADRILATERAL
0.3415852729 0.3545678136 0.0000000000 0.0000000000 0.0000000000 -270.5629412471 -0.0119681176 0.0010144229
0.3415852732 -0.3525389674 0.0000000000 0.0000000000 0.0000000000 -269.7885813817 -0.0119681176 0.0010144229
-0.3655215084 0.3545678134 0.0000000000 0.0000000000 0.0000000000 -119.2166064072 -0.0119681176 0.0010144229
-0.3655215081 -0.3525389678 0.0000000000 0.0000000000 0.0000000000 -134.8083725710 -0.0119681176 0.0010144229
0.5185668060 0.5312996387 0.0000000000 0.1048954652 0.0420545295 -257.9494247128 -0.0117632798 0.0009695527
0.5180618637 -0.5293870073 0.0000000000 0.1001234743 -0.0425416947 -257.2427505635 -0.0122682226 0.0009430782
-0.5426141433 0.5312519582 0.0000000000 0.8456355656 0.4819690862 70.6807822033 -0.0122840572 0.0009218725
-0.5422974381 -0.5293094039 0.0000000000 0.8448380522 -0.4818531429 71.4726536359 -0.0119673525 0.0010206823
1.0487183412 1.0616581032 0.0000000000 1.2923290450 0.1208685589 -308.4989173593 -0.0119418304 0.0009979313
1.0485980696 -1.0597692261 0.0000000000 1.2965533931 -0.1218061169 -311.6578353683 -0.0120621029 0.0008909449
-1.0732560207 1.0614901802 0.0000000000 0.9362797106 0.1744298163 83.6568774530 -0.0125958486 0.0008300087
-1.0725286013 -1.0597006087 0.0000000000 0.9361373778 -0.1746219836 83.9408305904 -0.0118684301 0.0009595637
4.1887668871 3.3008173216 0.0000000000 1.0230130915 -0.0502941678 -20.5027961317 -0.0112331129 0.0008173216
4.1889592518 -3.2992011988 0.0000000000 1.0229146108 0.0501683657 -20.2794755444 -0.0110407482 0.0007988012
20.0000000000 4.7000000000 0.0000000000 0.9995683386 -0.0010074136 0.0023587237 0.0000000000 0.0000000000
20.0000000000 -4.7000000000 0.0000000000 0.9995636705 0.0010041847 0.0025510947 0.0000000000 0.0000000000
-10.0000000000 15.0000000000 0.0000000000 1.0000000000 0.0000000000 7.8954613764 0.0000000000 0.0000000000
20.0000000000 15.0000000000 0.0000000000 1.0007914298 0.0000000000 0.0008681012 0.0000000000 0.0000000000
20.0000000000 -15.0000000000 0.0000000000 1.0007841206 0.0000000000 0.0010857537 0.0000000000 0.0000000000
-10.0000000000 -15.0000000000 0.0000000000 1.0000000000 0.0000000000 7.9758920864 0.0000000000 0.0000000000
0.3545578185 -0.3390719457 0.0000000000 0.0000000000 0.0000000000 -268.1664330874 -0.0119681176 0.0010144229
0.3670177441 -0.3251292824 0.0000000000 0.0000000000 0.0000000000 -267.2812964453 -0.0119681176 0.0010144229
0.3789476238 -0.3107304777 0.0000000000 0.0000000000 0.0000000000 -266.5445870548 -0.0119681176 0.0010144229
0.3903307724 -0.2958956696 0.0000000000 0.0000000000 0.0000000000 -266.0548151875 -0.0119681176 0.0010144229
0.4011512697 -0.2806456058 0.0000000000 0.0000000000 0.0000000000 -265.5787542024 -0.0119681176 0.0010144229
0.4113939821 -0.2650016151 0.0000000000 0.0000000000 0.0000000000 -265.0491127342 -0.0119681176 0.0010144229
0.4210445844 -0.2489855768 0.0000000000 0.0000000000 0.0000000000 -264.3453452154 -0.0119681176 0.0010144229
0.4300895792 -0.2326198909 0.0000000000 0.0000000000 0.0000000000 -263.3988280992 -0.0119681176 0.0010144229
0.4385163164 -0.2159274464 0.0000000000 0.0000000000 0.0000000000 -262.1443324672 -0.0119681176 0.0010144229
0.4463130104 -0.1989315890 0.0000000000 0.0000000000 0.0000000000 -260.5434294724 -0.0119681176 0.0010144229
0.4534687568 -0.1816560890 0.0000000000 0.0000000000 0.0000000000 -258.5775850335 -0.0119681176 0.0010144229
0.4599735476 -0.1641251078 0.0000000000 0.0000000000 0.0000000000 -256.2583099086 -0.0119681176 0.0010144229
0.4658182853 -0.1463631640 0.0000000000 0.0000000000 0.0000000000 -253.6300791562 -0.0119681176 0.0010144229
0.4709947956 -0.1283950994 0.0000000000 0.0000000000 0.0000000000 -250.7744824547 -0.0119681176 0.0010144229
0.4754958385 -0.1102460438 0.0000000000 0.0000000000 0.0000000000 -247.8088407559 -0.0119681176 0.0010144229
0.4793151190 -0.0919413804 0.0000000000 0.0000000000 0.0000000000 -244.8806614647 -0.0119681176 0.0010144229
0.4824472955 -0.0735067099 0.0000000000 0.0000000000 0.0000000000 -242.1567230038 -0.0119681176 0.0010144229
0.4848879873 -0.0549678149 0.0000000000 0.0000000000 0.0000000000 -239.8082712333 -0.0119681176 0.0010144229
0.4866337810 -0.0363506236 0.0000000000 0.0000000000 0.0000000000 -237.9938318939 -0.0119681176 0.0010144229
0.4876822348 -0.0176811740 0.0000000000 0.0000000000 0.0000000000 -236.8421215339 -0.0119681176 0.0010144229
0.4880318824 0.0010144231 0.0000000000 0.0000000000 0.0000000000 -236.4374827124 -0.0119681176 0.0010144229
0.4876822347 0.0197100203 0.0000000000 0.0000000000 0.0000000000 -236.8101075988 -0.0119681176 0.0010144229
0.4866337809 0.0383794699 0.0000000000 0.0000000000 0.0000000000 -237.9325190767 -0.0119681176 0.0010144229
0.4848879873 0.0569966612 0.0000000000 0.0000000000 0.0000000000 -239.7229257863 -0.0119681176 0.0010144229
0.4824472954 0.0755355562 0.0000000000 0.0000000000 0.0000000000 -242.0548032689 -0.0119681176 0.0010144229
0.4793151189 0.0939702267 0.0000000000 0.0000000000 0.0000000000 -244.7714102149 -0.0119681176 0.0010144229
0.4754958384 0.1122748901 0.0000000000 0.0000000000 0.0000000000 -247.7026434009 -0.0119681176 0.0010144229
0.4709947955 0.1304239456 0.0000000000 0.0000000000 0.0000000000 -250.6824442784 -0.0119681176 0.0010144229
0.4658182852 0.1483920103 0.0000000000 0.0000000000 0.0000000000 -253.5631041707 -0.0119681176 0.0010144229
0.4599735475 0.1661539540 0.0000000000 0.0000000000 0.0000000000 -256.2270504759 -0.0119681176 0.0010144229
0.4534687566 0.1836849352 0.0000000000 0.0000000000 0.0000000000 -258.5909059001 -0.0119681176 0.0010144229
0.4463130102 0.2009604352 0.0000000000 0.0000000000 0.0000000000 -260.6096346566 -0.0119681176 0.0010144229
0.4385163163 0.2179562926 0.0000000000 0.0000000000 0.0000000000 -262.2679367472 -0.0119681176 0.0010144229
0.4300895791 0.2346487372 0.0000000000 0.0000000000 0.0000000000 -263.5855859742 -0.0119681176 0.0010144229
0.4210445842 0.2510144230 0.0000000000 0.0000000000 0.0000000000 -264.5943199867 -0.0119681176 0.0010144229
0.4113939819 0.2670304613 0.0000000000 0.0000000000 0.0000000000 -265.3672412275 -0.0119681176 0.0010144229
0.4011512695 0.2826744520 0.0000000000 0.0000000000 0.0000000000 -265.9603364020 -0.0119681176 0.0010144229
0.3903307722 0.2979245158 0.0000000000 0.0000000000 0.0000000000 -266.5148162056 -0.0119681176 0.0010144229
0.3789476235 0.3127593239 0.0000000000 0.0000000000 0.0000000000 -267.0748231857 -0.0119681176 0.0010144229
0.3670177439 0.3271581286 0.0000000000 0.0000000000 0.0000000000 -267.9003163546 -0.0119681176 0.0010144229
0.3545578182 0.3411007919 0.0000000000 0.0000000000 0.0000000000 -268.8899881461 -0.0119681176 0.0010144229
0.3266726681 0.3688763783 0.0000000000 0.0000000000 0.0000000000 -272.6410916380 -0.0119681176 0.0010144229
0.3111815012 0.3825564571 0.0000000000 0.0000000000 0.0000000000 -275.7014908991 -0.0119681176 0.0010144229
0.2951382386 0.3955846777 0.0000000000 0.0000000000 0.0000000000 -279.2782570673 -0.0119681176 0.0010144229
0.2785702900 0.4079387816 0.0000000000 0.0000000000 0.0000000000 -283.6396272179 -0.0119681176 0.0010144229
0.2615059614 0.4195976621 0.0000000000 0.0000000000 0.0000000000 -288.6380173675 -0.0119681176 0.0010144229
0.2439744068 0.4305414002 0.0000000000 0.0000000000 0.0000000000 -294.4084655219 -0.0119681176 0.0010144229
0.2260055788 0.4407512986 0.0000000000 0.0000000000 0.0000000000 -300.9841131470 -0.0119681176 0.0010144229
0.2076301767 0.4502099139 0.0000000000 0.0000000000 0.0000000000 -308.5039685685 -0.0119681176 0.0010144229
0.1888795946 0.4589010863 0.0000000000 0.0000000000 0.0000000000 -317.0648490854 -0.0119681176 0.0010144229
0.1697858676 0.4668099670 0.0000000000 0.0000000000 0.0000000000 -326.7711622029 -0.0119681176 0.0010144229
0.1503816169 0.4739230438 0.0000000000 0.0000000000 0.0000000000 -337.6781787443 -0.0119681176 0.0010144229
0.1306999944 0.4802281642 0.0000000000 0.0000000000 0.0000000000 -349.8027771007 -0.0119681176 0.0010144229
0.1107746258 0.4857145559 0.0000000000 0.0000000000 0.0000000000 -363.1003694675 -0.0119681176 0.0010144229
0.0906395534 0.4903728456 0.0000000000 0.0000000000 0.0000000000 -377.4620247904 -0.0119681176 0.0010144229
0.0703291774 0.4941950747 0.0000000000 0.0000000000 0.0000000000 -392.7019233495 -0.0119681176 0.0010144229
0.0498781979 0.4971747128 0.0000000000 0.0000000000 0.0000000000 -408.5542117968 -0.0119681176 0.0010144229
0.0293215550 0.4993066694 0.0000000000 0.0000000000 0.0000000000 -424.6715149718 -0.0119681176 0.0010144229
0.0086943694 0.5005873021 0.0000000000 0.0000000000 0.0000000000 -440.6312454971 -0.0119681176 0.0010144229
-0.0119681177 0.5010144229 0.0000000000 0.0000000000 0.0000000000 -455.9470027409 -0.0119681176 0.0010144229
-0.0326306049 0.5005873021 0.0000000000 0.0000000000 0.0000000000 -470.0858698109 -0.0119681176 0.0010144229
-0.0532577905 0.4993066694 0.0000000000 0.0000000000 0.0000000000 -482.4894169079 -0.0119681176 0.0010144229
-0.0738144334 0.4971747128 0.0000000000 0.0000000000 0.0000000000 -492.5970080874 -0.0119681176 0.0010144229
-0.0942654129 0.4941950746 0.0000000000 0.0000000000 0.0000000000 -499.8692060733 -0.0119681176 0.0010144229
-0.1145757889 0.4903728456 0.0000000000 0.0000000000 0.0000000000 -503.8095501996 -0.0119681176 0.0010144229
-0.1347108613 0.4857145559 0.0000000000 0.0000000000 0.0000000000 -503.9831880933 -0.0119681176 0.0010144229
-0.1546362299 0.4802281641 0.0000000000 0.0000000000 0.0000000000 -500.0314411427 -0.0119681176 0.0010144229
-0.1743178524 0.4739230437 0.0000000000 0.0000000000 0.0000000000 -491.6818777436 -0.0119681176 0.0010144229
-0.1937221030 0.4668099669 0.0000000000 0.0000000000 0.0000000000 -478.7539640938 -0.0119681176 0.0010144229
-0.2128158301 0.4589010862 0.0000000000 0.0000000000 0.0000000000 -461.1607089652 -0.0119681176 0.0010144229
-0.2315664122 0.4502099138 0.0000000000 0.0000000000 0.0000000000 -438.9069441953 -0.0119681176 0.0010144229
-0.2499418143 0.4407512985 0.0000000000 0.0000000000 0.0000000000 -412.0849727904 -0.0119681176 0.0010144229
-0.2679106423 0.4305414001 0.0000000000 0.0000000000 0.0000000000 -380.8683074255 -0.0119681176 0.0010144229
-0.2854421968 0.4195976620 0.0000000000 0.0000000000 0.0000000000 -345.5041407689 -0.0119681176 0.0010144229
-0.3025065255 0.4079387815 0.0000000000 0.0000000000 0.0000000000 -306.3050695832 -0.0119681176 0.0010144229
-0.3190744741 0.3955846775 0.0000000000 0.0000000000 0.0000000000 -263.6404639859 -0.0119681176 0.0010144229
-0.3351177367 0.3825564569 0.0000000000 0.0000000000 0.0000000000 -217.9277548451 -0.0119681176 0.0010144229
-0.3506089036 0.3688763782 0.0000000000 0.0000000000 0.0000000000 -169.6238215379 -0.0119681176 0.0010144229
-0.3798300731 0.3396552086 0.0000000000 0.0000000000 0.0000000000 -67.2170564214 -0.0119681176 0.0010144229
-0.3935101519 0.3241640417 0.0000000000 0.0000000000 0.0000000000 -14.1514825540 -0.0119681176 0.0010144229
-0.4065383724 0.3081207792 0.0000000000 0.0000000000 0.0000000000 39.4455825665 -0.0119681176 0.0010144229
-0.4188924764 0.2915528305 0.0000000000 0.0000000000 0.0000000000 93.0379724102 -0.0119681176 0.0010144229
-0.4305513569 0.2744885019 0.0000000000 0.0000000000 0.0000000000 146.0939005352 -0.0119681176 0.0010144229
-0.4414950949 0.2569569473 0.0000000000 0.0000000000 0.0000000000 198.0914210992 -0.0119681176 0.0010144229
-0.4517049933 0.2389881193 0.0000000000 0.0000000000 0.0000000000 248.5233871508 -0.0119681176 0.0010144229
-0.4611636087 0.2206127172 0.0000000000 0.0000000000 0.0000000000 296.9019713159 -0.0119681176 0.0010144229
-0.4698547810 0.2018621351 0.0000000000 0.0000000000 0.0000000000 342.7628077860 -0.0119681176 0.0010144229
-0.4777636617 0.1827684080 0.0000000000 0.0000000000 0.0000000000 385.6688009884 -0.0119681176 0.0010144229
-0.4848767386 0.1633641574 0.0000000000 0.0000000000 0.0000000000 425.2136240051 -0.0119681176 0.0010144229
-0.4911818589 0.1436825349 0.0000000000 0.0000000000 0.0000000000 461.0249184578 -0.0119681176 0.0010144229
-0.4966682507 0.1237571663 0.0000000000 0.0000000000 0.0000000000 492.7671863107 -0.0119681176 0.0010144229
-0.5013265404 0.1036220938 0.0000000000 0.0000000000 0.0000000000 520.1443766043 -0.0119681176 0.0010144229
-0.5051487694 0.0833117179 0.0000000000 0.0000000000 0.0000000000 542.9021331587 -0.0119681176 0.0010144229
-0.5081284075 0.0628607384 0.0000000000 0.0000000000 0.0000000000 560.8297376264 -0.0119681176 0.0010144229
-0.5102603642 0.0423040955 0.0000000000 0.0000000000 0.0000000000 573.7616571754 -0.0119681176 0.0010144229
-0.5115409969 0.0216769099 0.0000000000 0.0000000000 0.0000000000 581.5788498316 -0.0119681176 0.0010144229
-0.5119681176 0.0010144227 0.0000000000 0.0000000000 0.0000000000 584.2095286005 -0.0119681176 0.0010144229
-0.5115409968 -0.0196480644 0.0000000000 0.0000000000 0.0000000000 581.6299403637 -0.0119681176 0.0010144229
-0.5102603641 -0.0402752500 0.0000000000 0.0000000000 0.0000000000 573.8641164257 -0.0119681176 0.0010144229
-0.5081284075 -0.0608318929 0.0000000000 0.0000000000 0.0000000000 560.9845453413 -0.0119681176 0.0010144229
-0.5051487693 -0.0812828724 0.0000000000 0.0000000000 0.0000000000 543.1101235687 -0.0119681176 0.0010144229
-0.5013265403 -0.1015932484 0.0000000000 0.0000000000 0.0000000000 520.4081860895 -0.0119681176 0.0010144229
-0.4966682506 -0.1217283208 0.0000000000 0.0000000000 0.0000000000 493.0879196611 -0.0119681176 0.0010144229
-0.4911818588 -0.1416536894 0.0000000000 0.0000000000 0.0000000000 461.4088579270 -0.0119681176 0.0010144229
-0.4848767384 -0.1613353119 0.0000000000 0.0000000000 0.0000000000 425.6602026972 -0.0119681176 0.0010144229
-0.4777636616 -0.1807395626 0.0000000000 0.0000000000 0.0000000000 386.1936508100 -0.0119681176 0.0010144229
-0.4698547809 -0.1998332896 0.0000000000 0.0000000000 0.0000000000 343.3552723313 -0.0119681176 0.0010144229
-0.4611636085 -0.2185838717 0.0000000000 0.0000000000 0.0000000000 297.6045444371 -0.0119681176 0.0010144229
-0.4517049931 -0.2369592738 0.0000000000 0.0000000000 0.0000000000 249.2859937367 -0.0119681176 0.0010144229
-0.4414950947 -0.2549281018 0.0000000000 0.0000000000 0.0000000000 199.0313847669 -0.0119681176 0.0010144229
-0.4305513566 -0.2724596563 0.0000000000 0.0000000000 0.0000000000 147.0642671636 -0.0119681176 0.0010144229
-0.4188924761 -0.2895239850 0.0000000000 0.0000000000 0.0000000000 94.2071790349 -0.0119681176 0.0010144229
-0.4065383722 -0.3060919336 0.0000000000 0.0000000000 0.0000000000 41.1488880857 -0.0119681176 0.0010144229
-0.3935101516 -0.3221351962 0.0000000000 0.0000000000 0.0000000000 -14.4640200484 -0.0119681176 0.0010144229
-0.3798300728 -0.3376263631 0.0000000000 0.0000000000 0.0000000000 -54.8298548434 -0.0119681176 0.0010144229
-0.3506089033 -0.3668475326 0.0000000000 0.0000000000 0.0000000000 -172.5198116134 -0.0119681176 0.0010144229
-0.3351177364 -0.3805276113 0.0000000000 0.0000000000 0.0000000000 -214.2330936890 -0.0119681176 0.0010144229
-0.3190744738 -0.3935558319 0.0000000000 0.0000000000 0.0000000000 -261.6421109472 -0.0119681176 0.0010144229
-0.3025065251 -0.4059099359 0.0000000000 0.0000000000 0.0000000000 -303.2619466035 -0.0119681176 0.0010144229
-0.2854421965 -0.4175688163 0.0000000000 0.0000000000 0.0000000000 -342.6665620737 -0.0119681176 0.0010144229
-0.2679106420 -0.4285125544 0.0000000000 0.0000000000 0.0000000000 -377.6155355401 -0.0119681176 0.0010144229
-0.2499418139 -0.4387224528 0.0000000000 0.0000000000 0.0000000000 -408.7765671618 -0.0119681176 0.0010144229
-0.2315664118 -0.4481810681 0.0000000000 0.0000000000 0.0000000000 -435.3529701401 -0.0119681176 0.0010144229
-0.2128158297 -0.4568722405 0.0000000000 0.0000000000 0.0000000000 -457.4935086222 -0.0119681176 0.0010144229
-0.1937221027 -0.4647811212 0.0000000000 0.0000000000 0.0000000000 -474.9194244992 -0.0119681176 0.0010144229
-0.1743178520 -0.4718941980 0.0000000000 0.0000000000 0.0000000000 -487.7401020373 -0.0119681176 0.0010144229
-0.1546362295 -0.4781993184 0.0000000000 0.0000000000 0.0000000000 -495.9796611868 -0.0119681176 0.0010144229
-0.1347108609 -0.4836857101 0.0000000000 0.0000000000 0.0000000000 -499.8607282572 -0.0119681176 0.0010144229
-0.1145757885 -0.4883439998 0.0000000000 0.0000000000 0.0000000000 -499.6362137863 -0.0119681176 0.0010144229
-0.0942654125 -0.4921662288 0.0000000000 0.0000000000 0.0000000000 -495.6810234883 -0.0119681176 0.0010144229
-0.0738144330 -0.4951458670 0.0000000000 0.0000000000 0.0000000000 -488.4245524100 -0.0119681176 0.0010144229
-0.0532577901 -0.4972778236 0.0000000000 0.0000000000 0.0000000000 -478.3689268441 -0.0119681176 0.0010144229
-0.0326306045 -0.4985584563 0.0000000000 0.0000000000 0.0000000000 -466.0509309740 -0.0119681176 0.0010144229
-0.0119681173 -0.4989855771 0.0000000000 0.0000000000 0.0000000000 -452.0310251308 -0.0119681176 0.0010144229
0.0086943698 -0.4985584562 0.0000000000 0.0000000000 0.0000000000 -436.8636591023 -0.0119681176 0.0010144229
0.0293215554 -0.4972778235 0.0000000000 0.0000000000 0.0000000000 -421.0776849499 -0.0119681176 0.0010144229
0.0498781983 -0.4951458669 0.0000000000 0.0000000000 0.0000000000 -405.1536367149 -0.0119681176 0.0010144229
0.0703291778 -0.4921662287 0.0000000000 0.0000000000 0.0000000000 -389.5081413052 -0.0119681176 0.0010144229
0.0906395538 -0.4883439997 0.0000000000 0.0000000000 0.0000000000 -374.4821320743 -0.0119681176 0.0010144229
0.1107746262 -0.4836857100 0.0000000000 0.0000000000 0.0000000000 -360.3358907690 -0.0119681176 0.0010144229
0.1306999948 -0.4781993182 0.0000000000 0.0000000000 0.0000000000 -347.2497034824 -0.0119681176 0.0010144229
0.1503816173 -0.4718941978 0.0000000000 0.0000000000 0.0000000000 -335.3291071564 -0.0119681176 0.0010144229
0.1697858679 -0.4647811210 0.0000000000 0.0000000000 0.0000000000 -324.6142664411 -0.0119681176 0.0010144229
0.1888795950 -0.4568722403 0.0000000000 0.0000000000 0.0000000000 -315.0885249700 -0.0119681176 0.0010144229
0.2076301771 -0.4481810679 0.0000000000 0.0000000000 0.0000000000 -306.6919503195 -0.0119681176 0.0010144229
0.2260055792 -0.4387224525 0.0000000000 0.0000000000 0.0000000000 -299.3266286273 -0.0119681176 0.0010144229
0.2439744072 -0.4285125541 0.0000000000 0.0000000000 0.0000000000 -292.8867885803 -0.0119681176 0.0010144229
0.2615059617 -0.4175688160 0.0000000000 0.0000000000 0.0000000000 -287.2504696503 -0.0119681176 0.0010144229
0.2785702903 -0.4059099355 0.0000000000 0.0000000000 0.0000000000 -282.3646318691 -0.0119681176 0.0010144229
0.2951382390 -0.3935558315 0.0000000000 0.0000000000 0.0000000000 -278.1242848626 -0.0119681176 0.0010144229
0.3111815016 -0.3805276109 0.0000000000 0.0000000000 0.0000000000 -274.6551855307 -0.0119681176 0.0010144229
0.3266726684 -0.3668475322 0.0000000000 0.0000000000 0.0000000000 -271.6876674850 -0.0119681176 0.0010144229
0.5375447790 -0.5091937608 0.0000000000 0.0614524625 -0.0524867622 -256.5803205832 -0.0122441253 0.0009357922
0.5562505128 -0.4882835880 0.0000000000 0.0388719083 -0.0687479258 -256.5471628182 -0.0122282799 0.0009319700
0.5741601752 -0.4666891810 0.0000000000 0.0289189219 -0.0904684084 -257.2698171943 -0.0122134370 0.0009281700
0.5912504260 -0.4444407710 0.0000000000 0.0265962457 -0.1156509368 -258.6947941900 -0.0121979091 0.0009243678
0.6074979322 -0.4215693347 0.0000000000 0.0267967898 -0.1416714362 -260.6746723215 -0.0121811488 0.0009207084
0.6228801422 -0.3981067334 0.0000000000 0.0255223437 -0.1659617267 -263.0191592231 -0.0121630075 0.0009173236
0.6373755405 -0.3740856818 0.0000000000 0.0203715213 -0.1864906864 -265.5181664193 -0.0121435126 0.0009143178
0.6509637644 -0.3495397005 0.0000000000 0.0103752235 -0.2019413945 -267.9470994330 -0.0121227810 0.0009117703
0.6636256749 -0.3245030660 0.0000000000 -0.0044282990 -0.2116744808 -270.0799963313 -0.0121009762 0.0009097379
0.6753434057 -0.2990107590 0.0000000000 -0.0233923467 -0.2155896705 -271.7160149790 -0.0120782864 0.0009082589
0.6861004001 -0.2730984124 0.0000000000 -0.0455503140 -0.2139536123 -272.7077139775 -0.0120549115 0.0009073555
0.6958814415 -0.2468022593 0.0000000000 -0.0698055714 -0.2072354265 -272.9802894361 -0.0120310564 0.0009070367
0.7046726785 -0.2201590806 0.0000000000 -0.0950469694 -0.1959794554 -272.5383796244 -0.0120069260 0.0009072998
0.7124616477 -0.1932061523 0.0000000000 -0.1202101374 -0.1807288399 -271.4620352671 -0.0119827221 0.0009081312
0.7192372941 -0.1659811931 0.0000000000 -0.1443043749 -0.1619955524 -269.8948979171 -0.0119586401 0.0009095070
0.7249899884 -0.1385223105 0.0000000000 -0.1664236790 -0.1402615521 -268.0272392887 -0.0119348666 0.0009113945
0.7297115423 -0.1108679471 0.0000000000 -0.1857553770 -0.1159943090 -266.0757171086 -0.0119115774 0.0009137522
0.7333952213 -0.0830568256 0.0000000000 -0.2015930929 -0.0896642740 -264.2612500655 -0.0118889362 0.0009165311
0.7360357546 -0.0551278937 0.0000000000 -0.2133550377 -0.0617574272 -262.7864926055 -0.0118670933 0.0009196762
0.7376293430 -0.0271202678 0.0000000000 -0.2206049964 -0.0327803749 -261.8147841660 -0.0118461856 0.0009231276
0.7381736639 0.0009268223 0.0000000000 -0.2230718064 -0.0032582028 -261.4527755283 -0.0118263361 0.0009268220
0.7376678746 0.0289740906 0.0000000000 -0.2206631461 0.0262731603 -261.7388761824 -0.0118076540 0.0009306946
0.7361126128 0.0569822509 0.0000000000 -0.2134706347 0.0552774893 -262.6390975403 -0.0117902350 0.0009346804
0.7335099948 0.0849120729 0.0000000000 -0.2017651413 0.0832287650 -264.0508887761 -0.0117741626 0.0009387155
0.7298636105 0.1127244387 0.0000000000 -0.1859833863 0.1096186905 -265.8144102770 -0.0117595091 0.0009427388
0.7251785171 0.1403803983 0.0000000000 -0.1667088202 0.1339587013 -267.7297074648 -0.0117463378 0.0009466927
0.7194612291 0.1678412253 0.0000000000 -0.1446509099 0.1557748724 -269.5776799892 -0.0117347050 0.0009505246
0.7127197064 0.1950684714 0.0000000000 -0.1206269040 0.1745958050 -271.1426734151 -0.0117246633 0.0009541873
0.7049633409 0.2220240207 0.0000000000 -0.0955484794 0.1899363959 -272.2348058646 -0.0117162633 0.0009576397
0.6962029410 0.2486701428 0.0000000000 -0.0704120380 0.2012846002 -272.7104486451 -0.0117095567 0.0009608461
0.6864507146 0.2749695443 0.0000000000 -0.0462859209 0.2081032575 -272.4892575383 -0.0117045968 0.0009637758
0.6757202529 0.3008854196 0.0000000000 -0.0242815883 0.2098623657 -271.5656698972 -0.0117014389 0.0009664012
0.6640265132 0.3263814991 0.0000000000 -0.0054911653 0.2061149689 -270.0121163063 -0.0117001377 0.0009686946
0.6513858042 0.3514220970 0.0000000000 0.0091283141 0.1966195454 -267.9711230534 -0.0117007408 0.0009706256
0.6378157741 0.3759721577 0.0000000000 0.0189474920 0.1814967646 -265.6355080075 -0.0117032787 0.0009721575
0.6233354013 0.3999973040 0.0000000000 0.0239665882 0.1613964354 -263.2217924684 -0.0117077481 0.0009732465
0.6079649867 0.4234638877 0.0000000000 0.0252424199 0.1376383386 -260.9493699355 -0.0117140940 0.0009738441
0.5917261436 0.4463390436 0.0000000000 0.0253335244 0.1122547742 -259.0343699963 -0.0117221912 0.0009739043
0.5746417857 0.4685907460 0.0000000000 0.0284253953 0.0878073322 -257.6833520373 -0.0117318261 0.0009733945
0.5567361413 0.4901878686 0.0000000000 0.0397272959 0.0668813070 -257.0552788551 -0.0117426510 0.0009723101
0.5380348887 0.5111002339 0.0000000000 0.0641447883 0.0513857553 -257.1907290118 -0.0117540151 0.0009706805
0.4961831939 0.5527630030 0.0000000000 0.1701756150 0.0384768340 -259.4464027299 -0.0117779848 0.0009700700
0.4729314973 0.5732843711 0.0000000000 0.2550933735 0.0407043622 -261.2069842304 -0.0117929311 0.0009713199
0.4488497178 0.5928274585 0.0000000000 0.3563550605 0.0475310083 -263.1604121208 -0.0118098167 0.0009720763
0.4239790146 0.6113588167 0.0000000000 0.4695987649 0.0582571281 -265.3253315138 -0.0118285969 0.0009722787
0.3983620986 0.6288467842 0.0000000000 0.5894846927 0.0724723194 -267.7824820909 -0.0118490199 0.0009719255
0.3720430080 0.6452615462 0.0000000000 0.7098603302 0.0896555978 -270.5876025179 -0.0118707787 0.0009710804
0.3450669729 0.6605751510 0.0000000000 0.8244234958 0.1089789721 -273.7081897966 -0.0118935717 0.0009698376
0.3174803220 0.6747615324 0.0000000000 0.9277180218 0.1293871330 -277.0115868637 -0.0119171195 0.0009682959
0.2893304010 0.6877965403 0.0000000000 1.0159865500 0.1498217227 -280.3037145278 -0.0119411674 0.0009665453
0.2606654937 0.6996579789 0.0000000000 1.0875402624 0.1694377358 -283.3844491667 -0.0119654841 0.0009646628
0.2315347406 0.7103256467 0.0000000000 1.1426044839 0.1877269342 -286.0864645868 -0.0119898612 0.0009627154
0.2019880546 0.7197813741 0.0000000000 1.1828103978 0.2045332889 -288.2877913440 -0.0120141135 0.0009607622
0.1720760347 0.7280090570 0.0000000000 1.2105626450 0.2199873013 -289.9048099266 -0.0120380806 0.0009588575
0.1418498795 0.7349946846 0.0000000000 1.2284683217 0.2344004684 -290.8757381862 -0.0120616270 0.0009570506
0.1113613006 0.7407263636 0.0000000000 1.2389291080 0.2481573896 -291.1426238296 -0.0120846420 0.0009553861
0.0806624357 0.7451943370 0.0000000000 1.2439190001 0.2616299773 -290.6371602512 -0.0121070376 0.0009539022
0.0498057628 0.7483909989 0.0000000000 1.2449171558 0.2751232930 -289.2729861350 -0.0121287462 0.0009526291
0.0188440148 0.7503109055 0.0000000000 1.2429430669 0.2888510017 -286.9446663560 -0.0121497158 0.0009515867
-0.0121699064 0.7509507822 0.0000000000 1.2386425414 0.3029324608 -283.5318128241 -0.0121699062 0.0009507822
-0.0431830149 0.7503095280 0.0000000000 1.2323864830 0.3174023690 -278.9061121898 -0.0121892840 0.0009502092
-0.0741423267 0.7483882162 0.0000000000 1.2243604273 0.3322256586 -272.9392209512 -0.0122078174 0.0009498465
-0.1049949453 0.7451900929 0.0000000000 1.2146356797 0.3473129690 -265.5101332364 -0.0122254717 0.0009496581
-0.1356881478 0.7407205725 0.0000000000 1.2032209947 0.3625343810 -256.5113180357 -0.0122422049 0.0009495949
-0.1661694709 0.7349872311 0.0000000000 1.1900976660 0.3777306790 -245.8534369961 -0.0122579641 0.0009495971
-0.1963867975 0.7279997963 0.0000000000 1.1752420658 0.3927222613 -233.4687411039 -0.0122726819 0.0009495969
-0.2262884429 0.7197701343 0.0000000000 1.1586394054 0.4073161550 -219.3133531339 -0.0122862745 0.0009495226
-0.2558232417 0.7103122332 0.0000000000 1.1402916746 0.4213116376 -203.3686474992 -0.0122986397 0.0009493020
-0.2849406339 0.6996421828 0.0000000000 1.1202218633 0.4345048800 -185.6419013427 -0.0123096558 0.0009488668
-0.3135907506 0.6877781507 0.0000000000 1.0984758494 0.4466929066 -166.1663468160 -0.0123191820 0.0009481558
-0.3417244995 0.6747403547 0.0000000000 1.0751228316 0.4576770622 -145.0007201887 -0.0123270577 0.0009471184
-0.3692936472 0.6605510310 0.0000000000 1.0502548403 0.4672660943 -122.2283819367 -0.0123331022 0.0009457176
-0.3962508984 0.6452343988 0.0000000000 1.0239856499 0.4752789063 -97.9560711397 -0.0123371114 0.0009439331
-0.4225499654 0.6288166222 0.0000000000 0.9964492911 0.4815470120 -72.3123538755 -0.0123388466 0.0009417637
-0.4481456180 0.6113257684 0.0000000000 0.9677982919 0.4859167064 -45.4458294219 -0.0123380063 0.0009392306
-0.4729936805 0.5927917627 0.0000000000 0.9382017469 0.4882509866 -17.5231701861 -0.0123341459 0.0009363808
-0.4970508649 0.5732463254 0.0000000000 0.9078433168 0.4884313374 11.2728588259 -0.0123264364 0.0009332744
-0.5202740007 0.5527227488 0.0000000000 0.8769193088 0.4863598974 40.7450336051 -0.0123128218 0.0009298160
-0.5640827349 0.5088823897 0.0000000000 0.8141868317 0.4751498350 100.9041566994 -0.0122898017 0.0009212111
-0.5845940911 0.4856410549 0.0000000000 0.7828127379 0.4659111630 131.1540092959 -0.0122810398 0.0009166267
-0.6041219752 0.4615717451 0.0000000000 0.7517309413 0.4542308665 161.2114787653 -0.0122665930 0.0009122108
-0.6226350396 0.4367157525 0.0000000000 0.7211629501 0.4401136044 190.8514628345 -0.0122485015 0.0009081412
-0.6401024993 0.4111156360 0.0000000000 0.6913292533 0.4235871262 219.8487044614 -0.0122276404 0.0009045176
-0.6564949944 0.3848152229 0.0000000000 0.6624473006 0.4047006364 247.9805839840 -0.0122045285 0.0009014363
-0.6717848743 0.3578595308 0.0000000000 0.6347292657 0.3835241437 275.0294966206 -0.0121795608 0.0008989863
-0.6859463223 0.3302946829 0.0000000000 0.6083801033 0.3601476709 300.7849631430 -0.0121530857 0.0008972415
-0.6989554276 0.3021678261 0.0000000000 0.5835957213 0.3346803664 325.0455916703 -0.0121254325 0.0008962578
-0.7107902366 0.2735270488 0.0000000000 0.5605612787 0.3072494812 347.6209088403 -0.0120969205 0.0008960711
-0.7214307932 0.2444212988 0.0000000000 0.5394496044 0.2779992175 368.3330643637 -0.0120678619 0.0008966971
-0.7308591721 0.2149002998 0.0000000000 0.5204197500 0.2470894551 387.0184053926 -0.0120385602 0.0008981319
-0.7390595077 0.1850144679 0.0000000000 0.5036156864 0.2146943617 403.5289161584 -0.0120093082 0.0009003529
-0.7460180194 0.1548148271 0.0000000000 0.4891651497 0.1810008853 417.7335179820 -0.0119803853 0.0009033207
-0.7517230339 0.1243529234 0.0000000000 0.4771786125 0.1462071237 429.5192213677 -0.0119520563 0.0009069810
-0.7561650049 0.0936807394 0.0000000000 0.4677483442 0.1105205809 438.7921144295 -0.0119245700 0.0009112662
-0.7593365299 0.0628506079 0.0000000000 0.4609475243 0.0741563407 445.4781672080 -0.0118981601 0.0009160991
-0.7612323652 0.0319151255 0.0000000000 0.4568294236 0.0373352082 449.5238401930 -0.0118730464 0.0009213951
-0.7618494366 0.0009270662 0.0000000000 0.4554267195 0.0002818631 450.8965063716 -0.0118494366 0.0009270665
-0.7611868473 -0.0300607049 0.0000000000 0.4567510323 -0.0367769664 449.5847157684 -0.0118275285 0.0009330260
-0.7592458814 -0.0609953178 0.0000000000 0.4607927049 -0.0736143183 445.5983133419 -0.0118075116 0.0009391917
-0.7560300034 -0.0918239838 0.0000000000 0.4675208558 -0.1100048094 438.9684176560 -0.0117895686 0.0009454900
-0.7515448544 -0.1224940831 0.0000000000 0.4768837442 -0.1457264762 429.7472634974 -0.0117738769 0.0009518599
-0.7457982450 -0.1529532517 0.0000000000 0.4888093784 -0.1805626658 418.0078753912 -0.0117606110 0.0009582552