 TITLE = "Tecplot data"
 VARIABLES = "X", "Y", "Z" "U", "V", "p", "dispX", "dispY"
 ZONE SOLUTIONTIME=30.900000, NODES=26114 , ELEMENTS=25916, DATAPACKING=POINT, ZONETYPE=FEQUADRILATERAL
0.4098340103 0.3327187679 0.0000000000 0.0000000000 0.0000000000 -297.4442738914 0.0562806197 -0.0208346227
0.4098340106 -0.3743880130 0.0000000000 0.0000000000 0.0000000000 -448.3021694609 0.0562806197 -0.0208346227
-0.2972727710 0.3327187678 0.0000000000 0.0000000000 0.0000000000 -69.5304375267 0.0562806197 -0.0208346227
-0.2972727707 -0.3743880135 0.0000000000 0.0000000000 0.0000000000 -238.8162548081 0.0562806197 -0.0208346227
0.5856353715 0.5097233423 0.0000000000 0.0415096920 0.0052126594 -288.8146495196 0.0553052856 -0.0206067437
0.5879026477 -0.5513863326 0.0000000000 0.3143708265 -0.0229371248 -437.0261557926 0.0575725615 -0.0210562471
-0.4728072774 0.5094833456 0.0000000000 0.8041614164 0.4749072464 81.7308149147 0.0575228086 -0.0208467401
-0.4739106263 -0.5514627447 0.0000000000 0.8832432792 -0.5102780634 -16.8786118106 0.0564194594 -0.0211326585
1.1165541202 1.0396940765 0.0000000000 1.2301215329 0.1030299691 -195.7282046510 0.0558939485 -0.0209660954
1.1175144622 -1.0813513328 0.0000000000 1.1727367098 0.0721264058 -280.0771402325 0.0568542896 -0.0206911618
-1.0021211911 1.0391811283 0.0000000000 0.9199792936 0.1739146764 89.5703330483 0.0585389810 -0.0214790431
-1.0044088112 -1.0823991170 0.0000000000 0.9475068690 -0.1780953514 39.2967267510 0.0562513600 -0.0217389447
4.2512483456 3.2818822773 0.0000000000 1.0415954397 0.0613266353 21.8320232909 0.0512483456 -0.0181177227
4.2534665404 -3.3179877175 0.0000000000 1.1180286395 0.0170026354 -30.8757496077 0.0534665404 -0.0179877175
20.0000000000 4.7000000000 0.0000000000 1.0042280284 -0.0063212565 0.0033478279 0.0000000000 0.0000000000
20.0000000000 -4.7000000000 0.0000000000 1.0053551459 0.0057639469 -0.0021353414 0.0000000000 0.0000000000
-10.0000000000 15.0000000000 0.0000000000 1.0000000000 0.0000000000 16.8888640999 0.0000000000 0.0000000000
20.0000000000 15.0000000000 0.0000000000 1.0002843589 0.0000000000 0.0067577390 0.0000000000 0.0000000000
20.0000000000 -15.0000000000 0.0000000000 1.0006106766 0.0000000000 0.0087891494 0.0000000000 0.0000000000
-10.0000000000 -15.0000000000 0.0000000000 1.0000000000 0.0000000000 5.6558203478 0.0000000000 0.0000000000
0.4228065559 -0.3609209913 0.0000000000 0.0000000000 0.0000000000 -445.5890528185 0.0562806197 -0.0208346227
0.4352664815 -0.3469783281 0.0000000000 0.0000000000 0.0000000000 -443.9369406175 0.0562806197 -0.0208346227
0.4471963612 -0.3325795233 0.0000000000 0.0000000000 0.0000000000 -442.0343420706 0.0562806197 -0.0208346227
0.4585795098 -0.3177447152 0.0000000000 0.0000000000 0.0000000000 -440.2847728092 0.0562806197 -0.0208346227
0.4694000071 -0.3024946514 0.0000000000 0.0000000000 0.0000000000 -438.3234397199 0.0562806197 -0.0208346227
0.4796427195 -0.2868506607 0.0000000000 0.0000000000 0.0000000000 -436.1587663756 0.0562806197 -0.0208346227
0.4892933218 -0.2708346224 0.0000000000 0.0000000000 0.0000000000 -433.6583727067 0.0562806197 -0.0208346227
0.4983383166 -0.2544689366 0.0000000000 0.0000000000 0.0000000000 -430.7838245414 0.0562806197 -0.0208346227
0.5067650538 -0.2377764920 0.0000000000 0.0000000000 0.0000000000 -427.4835549621 0.0562806197 -0.0208346227
0.5145617478 -0.2207806346 0.0000000000 0.0000000000 0.0000000000 -423.7414305053 0.0562806197 -0.0208346227
0.5217174942 -0.2035051346 0.0000000000 0.0000000000 0.0000000000 -419.5550817587 0.0562806197 -0.0208346227
0.5282222850 -0.1859741534 0.0000000000 0.0000000000 0.0000000000 -414.9396299515 0.0562806197 -0.0208346227
0.5340670227 -0.1682122096 0.0000000000 0.0000000000 0.0000000000 -409.9416951505 0.0562806197 -0.0208346227
0.5392435330 -0.1502441450 0.0000000000 0.0000000000 0.0000000000 -404.5645765441 0.0562806197 -0.0208346227
0.5437445759 -0.1320950894 0.0000000000 0.0000000000 0.0000000000 -399.0349885595 0.0562806197 -0.0208346227
0.5475638564 -0.1137904260 0.0000000000 0.0000000000 0.0000000000 -392.8249156479 0.0562806197 -0.0208346227
0.5506960329 -0.0953557555 0.0000000000 0.0000000000 0.0000000000 -388.1368663814 0.0562806197 -0.0208346227
0.5531367247 -0.0768168605 0.0000000000 0.0000000000 0.0000000000 -378.1924872978 0.0562806197 -0.0208346227
0.5548825184 -0.0581996693 0.0000000000 0.0000000000 0.0000000000 -374.7132625127 0.0562806197 -0.0208346227
0.5559309721 -0.0395302196 0.0000000000 0.0000000000 0.0000000000 -368.8249523669 0.0562806197 -0.0208346227
0.5562806197 -0.0208346225 0.0000000000 0.0000000000 0.0000000000 -362.9527113993 0.0562806197 -0.0208346227
0.5559309721 -0.0021390253 0.0000000000 0.0000000000 0.0000000000 -357.1750877524 0.0562806197 -0.0208346227
0.5548825183 0.0165304243 0.0000000000 0.0000000000 0.0000000000 -351.6378221523 0.0562806197 -0.0208346227
0.5531367247 0.0351476156 0.0000000000 0.0000000000 0.0000000000 -346.3073309826 0.0562806197 -0.0208346227
0.5506960328 0.0536865106 0.0000000000 0.0000000000 0.0000000000 -341.2241551638 0.0562806197 -0.0208346227
0.5475638563 0.0721211811 0.0000000000 0.0000000000 0.0000000000 -336.3968029522 0.0562806197 -0.0208346227
0.5437445758 0.0904258445 0.0000000000 0.0000000000 0.0000000000 -331.8337788781 0.0562806197 -0.0208346227
0.5392435329 0.1085749000 0.0000000000 0.0000000000 0.0000000000 -327.5369616969 0.0562806197 -0.0208346227
0.5340670226 0.1265429647 0.0000000000 0.0000000000 0.0000000000 -323.5058029056 0.0562806197 -0.0208346227
0.5282222849 0.1443049084 0.0000000000 0.0000000000 0.0000000000 -319.7389593405 0.0562806197 -0.0208346227
0.5217174940 0.1618358896 0.0000000000 0.0000000000 0.0000000000 -316.2336789364 0.0562806197 -0.0208346227
0.5145617476 0.1791113896 0.0000000000 0.0000000000 0.0000000000 -312.9933702634 0.0562806197 -0.0208346227
0.5067650536 0.1961072470 0.0000000000 0.0000000000 0.0000000000 -310.0148944012 0.0562806197 -0.0208346227
0.4983383164 0.2127996916 0.0000000000 0.0000000000 0.0000000000 -307.3127568671 0.0562806197 -0.0208346227
0.4892933216 0.2291653774 0.0000000000 0.0000000000 0.0000000000 -304.8938353013 0.0562806197 -0.0208346227
0.4796427193 0.2451814157 0.0000000000 0.0000000000 0.0000000000 -302.7775525832 0.0562806197 -0.0208346227
0.4694000069 0.2608254064 0.0000000000 0.0000000000 0.0000000000 -300.9812543705 0.0562806197 -0.0208346227
0.4585795096 0.2760754702 0.0000000000 0.0000000000 0.0000000000 -299.4988672734 0.0562806197 -0.0208346227
0.4471963609 0.2909102783 0.0000000000 0.0000000000 0.0000000000 -298.4135102710 0.0562806197 -0.0208346227
0.4352664813 0.3053090830 0.0000000000 0.0000000000 0.0000000000 -297.6814268788 0.0562806197 -0.0208346227
0.4228065556 0.3192517462 0.0000000000 0.0000000000 0.0000000000 -297.4329485783 0.0562806197 -0.0208346227
0.3949214055 0.3470273327 0.0000000000 0.0000000000 0.0000000000 -298.0362844392 0.0562806197 -0.0208346227
0.3794302386 0.3607074115 0.0000000000 0.0000000000 0.0000000000 -298.9621095250 0.0562806197 -0.0208346227
0.3633869760 0.3737356321 0.0000000000 0.0000000000 0.0000000000 -300.3382448650 0.0562806197 -0.0208346227
0.3468190274 0.3860897360 0.0000000000 0.0000000000 0.0000000000 -302.0177700058 0.0562806197 -0.0208346227
0.3297546988 0.3977486165 0.0000000000 0.0000000000 0.0000000000 -304.0402783218 0.0562806197 -0.0208346227
0.3122231442 0.4086923545 0.0000000000 0.0000000000 0.0000000000 -306.3668063359 0.0562806197 -0.0208346227
0.2942543162 0.4189022530 0.0000000000 0.0000000000 0.0000000000 -309.0453645946 0.0562806197 -0.0208346227
0.2758789141 0.4283608683 0.0000000000 0.0000000000 0.0000000000 -312.1119222165 0.0562806197 -0.0208346227
0.2571283320 0.4370520407 0.0000000000 0.0000000000 0.0000000000 -315.6339325366 0.0562806197 -0.0208346227
0.2380346050 0.4449609214 0.0000000000 0.0000000000 0.0000000000 -319.6654184757 0.0562806197 -0.0208346227
0.2186303543 0.4520739982 0.0000000000 0.0000000000 0.0000000000 -324.2513081954 0.0562806197 -0.0208346227
0.1989487318 0.4583791186 0.0000000000 0.0000000000 0.0000000000 -329.4074843269 0.0562806197 -0.0208346227
0.1790233632 0.4638655103 0.0000000000 0.0000000000 0.0000000000 -335.1205002175 0.0562806197 -0.0208346227
0.1588882908 0.4685238000 0.0000000000 0.0000000000 0.0000000000 -341.3411099067 0.0562806197 -0.0208346227
0.1385779148 0.4723460290 0.0000000000 0.0000000000 0.0000000000 -347.9834286199 0.0562806197 -0.0208346227
0.1181269353 0.4753256672 0.0000000000 0.0000000000 0.0000000000 -354.9209327750 0.0562806197 -0.0208346227
0.0975702924 0.4774576238 0.0000000000 0.0000000000 0.0000000000 -361.9840563700 0.0562806197 -0.0208346227
0.0769431068 0.4787382565 0.0000000000 0.0000000000 0.0000000000 -368.9582022901 0.0562806197 -0.0208346227
0.0562806196 0.4791653773 0.0000000000 0.0000000000 0.0000000000 -375.5846490322 0.0562806197 -0.0208346227
0.0356181325 0.4787382565 0.0000000000 0.0000000000 0.0000000000 -381.5642464908 0.0562806197 -0.0208346227
0.0149909469 0.4774576238 0.0000000000 0.0000000000 0.0000000000 -386.5644127695 0.0562806197 -0.0208346227
-0.0055656960 0.4753256672 0.0000000000 0.0000000000 0.0000000000 -390.2289380504 0.0562806197 -0.0208346227
-0.0260166755 0.4723460290 0.0000000000 0.0000000000 0.0000000000 -392.1901382805 0.0562806197 -0.0208346227
-0.0463270515 0.4685238000 0.0000000000 0.0000000000 0.0000000000 -392.0824972119 0.0562806197 -0.0208346227
-0.0664621239 0.4638655103 0.0000000000 0.0000000000 0.0000000000 -389.5568918540 0.0562806197 -0.0208346227
-0.0863874925 0.4583791185 0.0000000000 0.0000000000 0.0000000000 -384.2944208753 0.0562806197 -0.0208346227
-0.1060691150 0.4520739981 0.0000000000 0.0000000000 0.0000000000 -376.0189685372 0.0562806197 -0.0208346227
-0.1254733657 0.4449609213 0.0000000000 0.0000000000 0.0000000000 -364.5078037507 0.0562806197 -0.0208346227
-0.1445670927 0.4370520406 0.0000000000 0.0000000000 0.0000000000 -349.5997564037 0.0562806197 -0.0208346227
-0.1633176748 0.4283608682 0.0000000000 0.0000000000 0.0000000000 -331.2007606102 0.0562806197 -0.0208346227
-0.1816930769 0.4189022529 0.0000000000 0.0000000000 0.0000000000 -309.2867840606 0.0562806197 -0.0208346227
-0.1996619049 0.4086923544 0.0000000000 0.0000000000 0.0000000000 -283.9043389943 0.0562806197 -0.0208346227
-0.2171934594 0.3977486164 0.0000000000 0.0000000000 0.0000000000 -255.1688814370 0.0562806197 -0.0208346227
-0.2342577881 0.3860897359 0.0000000000 0.0000000000 0.0000000000 -223.2614482126 0.0562806197 -0.0208346227
-0.2508257367 0.3737356319 0.0000000000 0.0000000000 0.0000000000 -188.4238696212 0.0562806197 -0.0208346227
-0.2668689993 0.3607074113 0.0000000000 0.0000000000 0.0000000000 -150.9528550115 0.0562806197 -0.0208346227
-0.2823601662 0.3470273326 0.0000000000 0.0000000000 0.0000000000 -111.1932106900 0.0562806197 -0.0208346227
-0.3115813357 0.3178061630 0.0000000000 0.0000000000 0.0000000000 -26.3829652301 0.0562806197 -0.0208346227
-0.3252614145 0.3023149961 0.0000000000 0.0000000000 0.0000000000 17.8056941083 0.0562806197 -0.0208346227
-0.3382896351 0.2862717335 0.0000000000 0.0000000000 0.0000000000 62.5745998873 0.0562806197 -0.0208346227
-0.3506437390 0.2697037849 0.0000000000 0.0000000000 0.0000000000 107.4526172565 0.0562806197 -0.0208346227
-0.3623026195 0.2526394562 0.0000000000 0.0000000000 0.0000000000 151.9650837821 0.0562806197 -0.0208346227
-0.3732463575 0.2351079017 0.0000000000 0.0000000000 0.0000000000 195.6398627484 0.0562806197 -0.0208346227
-0.3834562559 0.2171390737 0.0000000000 0.0000000000 0.0000000000 238.0128121947 0.0562806197 -0.0208346227
-0.3929148713 0.1987636716 0.0000000000 0.0000000000 0.0000000000 278.6327367157 0.0562806197 -0.0208346227
-0.4016060437 0.1800130895 0.0000000000 0.0000000000 0.0000000000 317.0659072244 0.0562806197 -0.0208346227
-0.4095149243 0.1609193624 0.0000000000 0.0000000000 0.0000000000 352.9002015325 0.0562806197 -0.0208346227
-0.4166280012 0.1415151117 0.0000000000 0.0000000000 0.0000000000 385.7489181139 0.0562806197 -0.0208346227
-0.4229331215 0.1218334893 0.0000000000 0.0000000000 0.0000000000 415.2542514671 0.0562806197 -0.0208346227
-0.4284195133 0.1019081207 0.0000000000 0.0000000000 0.0000000000 441.0904780685 0.0562806197 -0.0208346227
-0.4330778030 0.0817730482 0.0000000000 0.0000000000 0.0000000000 462.9667491239 0.0562806197 -0.0208346227
-0.4369000320 0.0614626723 0.0000000000 0.0000000000 0.0000000000 480.6296612068 0.0562806197 -0.0208346227
-0.4398796701 0.0410116928 0.0000000000 0.0000000000 0.0000000000 493.8652507300 0.0562806197 -0.0208346227
-0.4420116268 0.0204550499 0.0000000000 0.0000000000 0.0000000000 502.5010587999 0.0562806197 -0.0208346227
-0.4432922595 -0.0001721358 0.0000000000 0.0000000000 0.0000000000 506.4070373819 0.0562806197 -0.0208346227
-0.4437193803 -0.0208346229 0.0000000000 0.0000000000 0.0000000000 505.4975928683 0.0562806197 -0.0208346227
-0.4432922594 -0.0414971100 0.0000000000 0.0000000000 0.0000000000 499.7304893752 0.0562806197 -0.0208346227
-0.4420116267 -0.0621242956 0.0000000000 0.0000000000 0.0000000000 489.1105640615 0.0562806197 -0.0208346227
-0.4398796701 -0.0826809385 0.0000000000 0.0000000000 0.0000000000 473.6835354437 0.0562806197 -0.0208346227
-0.4369000319 -0.1031319180 0.0000000000 0.0000000000 0.0000000000 453.5471081770 0.0562806197 -0.0208346227
-0.4330778029 -0.1234422940 0.0000000000 0.0000000000 0.0000000000 428.8292123593 0.0562806197 -0.0208346227
-0.4284195132 -0.1435773665 0.0000000000 0.0000000000 0.0000000000 399.7257872211 0.0562806197 -0.0208346227
-0.4229331214 -0.1635027350 0.0000000000 0.0000000000 0.0000000000 366.4279956095 0.0562806197 -0.0208346227
-0.4166280010 -0.1831843575 0.0000000000 0.0000000000 0.0000000000 329.2520669750 0.0562806197 -0.0208346227
-0.4095149242 -0.2025886082 0.0000000000 0.0000000000 0.0000000000 288.3947449030 0.0562806197 -0.0208346227
-0.4016060435 -0.2216823352 0.0000000000 0.0000000000 0.0000000000 244.3791334578 0.0562806197 -0.0208346227
-0.3929148711 -0.2404329173 0.0000000000 0.0000000000 0.0000000000 197.2210658274 0.0562806197 -0.0208346227
-0.3834562557 -0.2588083194 0.0000000000 0.0000000000 0.0000000000 147.9743994276 0.0562806197 -0.0208346227
-0.3732463573 -0.2767771474 0.0000000000 0.0000000000 0.0000000000 95.8239474165 0.0562806197 -0.0208346227
-0.3623026193 -0.2943087019 0.0000000000 0.0000000000 0.0000000000 43.5764577530 0.0562806197 -0.0208346227
-0.3506437387 -0.3113730306 0.0000000000 0.0000000000 0.0000000000 -12.8433242852 0.0562806197 -0.0208346227
-0.3382896348 -0.3279409792 0.0000000000 0.0000000000 0.0000000000 -64.0751300758 0.0562806197 -0.0208346227
-0.3252614142 -0.3439842418 0.0000000000 0.0000000000 0.0000000000 -126.5073193141 0.0562806197 -0.0208346227
-0.3115813354 -0.3594754087 0.0000000000 0.0000000000 0.0000000000 -157.7225052067 0.0562806197 -0.0208346227
-0.2823601659 -0.3886965782 0.0000000000 0.0000000000 0.0000000000 -292.1652291041 0.0562806197 -0.0208346227
-0.2668689990 -0.4023766569 0.0000000000 0.0000000000 0.0000000000 -343.2265744331 0.0562806197 -0.0208346227
-0.2508257364 -0.4154048775 0.0000000000 0.0000000000 0.0000000000 -383.0698927570 0.0562806197 -0.0208346227
-0.2342577877 -0.4277589815 0.0000000000 0.0000000000 0.0000000000 -433.3316314973 0.0562806197 -0.0208346227
-0.2171934591 -0.4394178620 0.0000000000 0.0000000000 0.0000000000 -474.2537169666 0.0562806197 -0.0208346227
-0.1996619046 -0.4503616000 0.0000000000 0.0000000000 0.0000000000 -515.4031103824 0.0562806197 -0.0208346227
-0.1816930765 -0.4605714984 0.0000000000 0.0000000000 0.0000000000 -550.7841099019 0.0562806197 -0.0208346227
-0.1633176744 -0.4700301137 0.0000000000 0.0000000000 0.0000000000 -583.2317816737 0.0562806197 -0.0208346227
-0.1445670923 -0.4787212861 0.0000000000 0.0000000000 0.0000000000 -610.7672457413 0.0562806197 -0.0208346227
-0.1254733653 -0.4866301668 0.0000000000 0.0000000000 0.0000000000 -634.2442644476 0.0562806197 -0.0208346227
-0.1060691146 -0.4937432436 0.0000000000 0.0000000000 0.0000000000 -652.9869790820 0.0562806197 -0.0208346227
-0.0863874921 -0.5000483640 0.0000000000 0.0000000000 0.0000000000 -667.3314080232 0.0562806197 -0.0208346227
-0.0664621235 -0.5055347557 0.0000000000 0.0000000000 0.0000000000 -677.1432235245 0.0562806197 -0.0208346227
-0.0463270511 -0.5101930454 0.0000000000 0.0000000000 0.0000000000 -682.6923759510 0.0562806197 -0.0208346227
-0.0260166751 -0.5140152744 0.0000000000 0.0000000000 0.0000000000 -684.1389117364 0.0562806197 -0.0208346227
-0.0055656956 -0.5169949126 0.0000000000 0.0000000000 0.0000000000 -681.8297460884 0.0562806197 -0.0208346227
0.0149909473 -0.5191268692 0.0000000000 0.0000000000 0.0000000000 -676.1156482669 0.0562806197 -0.0208346227
0.0356181329 -0.5204075019 0.0000000000 0.0000000000 0.0000000000 -667.4425499827 0.0562806197 -0.0208346227
0.0562806201 -0.5208346227 0.0000000000 0.0000000000 0.0000000000 -656.2786044825 0.0562806197 -0.0208346227
0.0769431072 -0.5204075019 0.0000000000 0.0000000000 0.0000000000 -643.1313330143 0.0562806197 -0.0208346227
0.0975702928 -0.5191268692 0.0000000000 0.0000000000 0.0000000000 -628.5098882157 0.0562806197 -0.0208346227
0.1181269357 -0.5169949125 0.0000000000 0.0000000000 0.0000000000 -612.9168798876 0.0562806197 -0.0208346227
0.1385779152 -0.5140152743 0.0000000000 0.0000000000 0.0000000000 -596.8239603707 0.0562806197 -0.0208346227
0.1588882912 -0.5101930453 0.0000000000 0.0000000000 0.0000000000 -580.6591638011 0.0562806197 -0.0208346227
0.1790233636 -0.5055347556 0.0000000000 0.0000000000 0.0000000000 -564.7920549055 0.0562806197 -0.0208346227
0.1989487322 -0.5000483638 0.0000000000 0.0000000000 0.0000000000 -549.5264383583 0.0562806197 -0.0208346227
0.2186303547 -0.4937432434 0.0000000000 0.0000000000 0.0000000000 -535.0948662357 0.0562806197 -0.0208346227
0.2380346053 -0.4866301666 0.0000000000 0.0000000000 0.0000000000 -521.6613474442 0.0562806197 -0.0208346227
0.2571283324 -0.4787212859 0.0000000000 0.0000000000 0.0000000000 -509.3236795252 0.0562806197 -0.0208346227
0.2758789145 -0.4700301135 0.0000000000 0.0000000000 0.0000000000 -498.1322941382 0.0562806197 -0.0208346227
0.2942543166 -0.4605714981 0.0000000000 0.0000000000 0.0000000000 -488.0905395754 0.0562806197 -0.0208346227
0.3122231446 -0.4503615997 0.0000000000 0.0000000000 0.0000000000 -479.2043508910 0.0562806197 -0.0208346227
0.3297546991 -0.4394178616 0.0000000000 0.0000000000 0.0000000000 -471.4246665604 0.0562806197 -0.0208346227
0.3468190277 -0.4277589811 0.0000000000 0.0000000000 0.0000000000 -464.7994785279 0.0562806197 -0.0208346227
0.3633869764 -0.4154048772 0.0000000000 0.0000000000 0.0000000000 -459.1427375013 0.0562806197 -0.0208346227
0.3794302389 -0.4023766566 0.0000000000 0.0000000000 0.0000000000 -454.7063824920 0.0562806197 -0.0208346227
0.3949214058 -0.3886965778 0.0000000000 0.0000000000 0.0000000000 -450.6936251773 0.0562806197 -0.0208346227
0.6072426480 -0.5311427002 0.0000000000 0.2479649022 -0.0338339475 -437.7904504813 0.0574537437 -0.0210131472
0.6258599707 -0.5102198310 0.0000000000 0.1935559916 -0.0462877481 -438.8022019125 0.0573811780 -0.0210042729
0.6436880912 -0.4886173779 0.0000000000 0.1495965261 -0.0593157061 -439.9712434561 0.0573144790 -0.0210000269
0.6606934018 -0.4663619122 0.0000000000 0.1139907848 -0.0720164223 -441.1364440408 0.0572450667 -0.0209967734
0.6768491924 -0.4434838336 0.0000000000 0.0845943931 -0.0836742846 -442.1183793462 0.0571701114 -0.0209937905
0.6921318654 -0.4200151062 0.0000000000 0.0596071820 -0.0937937026 -442.7374410036 0.0570887157 -0.0209910492
0.7065199138 -0.3959887253 0.0000000000 0.0377371377 -0.1020766423 -442.8286531168 0.0570008607 -0.0209887257
0.7199935477 -0.3714385107 0.0000000000 0.0181802246 -0.1083743316 -442.2520405907 0.0569070024 -0.0209870399
0.7325345201 -0.3463989941 0.0000000000 0.0005094103 -0.1126406324 -440.8991563846 0.0568078690 -0.0209861901
0.7441260348 -0.3209053457 0.0000000000 -0.0154523833 -0.1148992255 -438.6971020782 0.0567043427 -0.0209863278
0.7547527003 -0.2949933172 0.0000000000 -0.0297384418 -0.1152246758 -435.6106363562 0.0565973887 -0.0209875493
0.7644005089 -0.2686991905 0.0000000000 -0.0423148359 -0.1137323503 -431.6423337284 0.0564880110 -0.0209898944
0.7730568284 -0.2420597272 0.0000000000 -0.0531313246 -0.1105720587 -426.8305944495 0.0563772239 -0.0209933468
0.7807104001 -0.2151121181 0.0000000000 -0.0621530005 -0.1059221153 -421.2455099499 0.0562660303 -0.0209978347
0.7873513383 -0.1878939319 0.0000000000 -0.0693778616 -0.0999824246 -414.9829195600 0.0561554041 -0.0210032318
0.7929711307 -0.1604430644 0.0000000000 -0.0748439949 -0.0929665372 -408.1572779504 0.0560462757 -0.0210093594
0.7975626402 -0.1327976886 0.0000000000 -0.0786292271 -0.0850933673 -400.8940960993 0.0559395205 -0.0210159893
0.8011201068 -0.1049962062 0.0000000000 -0.0808458007 -0.0765795075 -393.3226983917 0.0558359493 -0.0210228495
0.8036391507 -0.0770772004 0.0000000000 -0.0816324542 -0.0676329742 -385.5698846357 0.0557363028 -0.0210296305
0.8051167754 -0.0490793899 0.0000000000 -0.0811459788 -0.0584489046 -377.7548603897 0.0556412468 -0.0210359946
0.8055513703 -0.0210415849 0.0000000000 -0.0795538019 -0.0492073447 -369.9855691096 0.0555513703 -0.0210415852
0.8049427141 0.0069973573 0.0000000000 -0.0770285017 -0.0400729253 -362.3563753808 0.0554671856 -0.0210460387
0.8032919771 0.0349985755 0.0000000000 -0.0737445159 -0.0311959827 -354.9469329992 0.0553891293 -0.0210489950
0.8006017246 0.0629232476 0.0000000000 -0.0698767874 -0.0227145621 -347.8220230014 0.0553175672 -0.0210501098
0.7968759208 0.0907326342 0.0000000000 -0.0656007449 -0.0147567119 -341.0321470550 0.0552528012 -0.0210490657
0.7921199334 0.1183881231 0.0000000000 -0.0610928480 -0.0074425019 -334.6146876551 0.0551950785 -0.0210455825
0.7863405384 0.1458512741 0.0000000000 -0.0565308732 -0.0008852313 -328.5954780995 0.0551446043 -0.0210394266
0.7795459248 0.1730838658 0.0000000000 -0.0520930858 0.0048086834 -322.9906493424 0.0551015552 -0.0210304183
0.7717456977 0.2000479448 0.0000000000 -0.0479553187 0.0095416420 -317.8086330965 0.0550660934 -0.0210184362
0.7629508784 0.2267058788 0.0000000000 -0.0442846253 0.0132291134 -313.0522043642 0.0550383807 -0.0210034179
0.7531739002 0.2530204131 0.0000000000 -0.0412274522 0.0158066799 -308.7204535353 0.0550185888 -0.0209853554
0.7424285964 0.2789547341 0.0000000000 -0.0388891704 0.0172402676 -304.8106081858 0.0550069046 -0.0209642844
0.7307301763 0.3044725373 0.0000000000 -0.0373006994 0.0175397044 -301.3196941017 0.0550035255 -0.0209402672
0.7180951836 0.3295381007 0.0000000000 -0.0363680648 0.0167750729 -298.2461040958 0.0550086386 -0.0209133707
0.7045414289 0.3541163580 0.0000000000 -0.0358043040 0.0150938473 -295.5910977766 0.0550223761 -0.0208836422
0.6900878939 0.3781729646 0.0000000000 -0.0350523847 0.0127342687 -293.3598762997 0.0550447446 -0.0208510929
0.6747546123 0.4016743445 0.0000000000 -0.0332220223 0.0100274228 -291.5611307420 0.0550755317 -0.0208156992
0.6585625396 0.4245877066 0.0000000000 -0.0290755431 0.0073791197 -290.2033630686 0.0551142049 -0.0207774327
0.6415334113 0.4468810244 0.0000000000 -0.0210961353 0.0052260598 -289.2868368390 0.0551597995 -0.0207363271
0.6236894703 0.4685229435 0.0000000000 -0.0076467590 0.0039708401 -288.7924335794 0.0552106780 -0.0206926150
0.6050526328 0.4894825934 0.0000000000 0.0128121715 0.0039140272 -288.6685645265 0.0552637290 -0.0206469600
0.5633283748 0.5312263775 0.0000000000 0.0839586637 0.0083190597 -289.2702065678 0.0553671961 -0.0205665555
0.5401532556 0.5517758114 0.0000000000 0.1380642893 0.0131143726 -289.7771457387 0.0554288273 -0.0205372398
0.5161590208 0.5713459278 0.0000000000 0.2038822130 0.0196636189 -290.2639693885 0.0554994863 -0.0205094543
0.4913865802 0.5899042748 0.0000000000 0.2810251100 0.0282346604 -290.6750382120 0.0555789687 -0.0204822632
0.4658772087 0.6074195002 0.0000000000 0.3685401082 0.0393029623 -291.0038266260 0.0556660902 -0.0204553586
0.4396731485 0.6238615620 0.0000000000 0.4646416348 0.0533908845 -291.2734590430 0.0557593618 -0.0204289038
0.4128178446 0.6392019923 0.0000000000 0.5665058114 0.0708286326 -291.5095957648 0.0558572999 -0.0204033212
0.3853559703 0.6534140901 0.0000000000 0.6703490277 0.0915619256 -291.7109489304 0.0559585288 -0.0203791464
0.3573333744 0.6664730637 0.0000000000 0.7718561859 0.1150969468 -291.8253153501 0.0560618060 -0.0203569313
0.3287969993 0.6783561196 0.0000000000 0.8668219524 0.1405907158 -291.7437280685 0.0561660215 -0.0203371965
0.2997947943 0.6890425167 0.0000000000 0.9517718347 0.1670292417 -291.3183048826 0.0562701925 -0.0203204146
0.2703756311 0.6985136042 0.0000000000 1.0243746931 0.1934192993 -290.3937988810 0.0563734630 -0.0203070077
0.2405892215 0.7067528553 0.0000000000 1.0835739754 0.2189392004 -288.8358009392 0.0564751063 -0.0202973442
0.2104860330 0.7137458997 0.0000000000 1.1294697896 0.2430233796 -286.5449325261 0.0565745265 -0.0202917343
0.1801171997 0.7194805546 0.0000000000 1.1630408643 0.2653801552 -283.4566424283 0.0566712571 -0.0202904229
0.1495344282 0.7239468532 0.0000000000 1.1858061346 0.2859575970 -279.5319322024 0.0567649549 -0.0202935816
0.1187898956 0.7271370685 0.0000000000 1.1995067024 0.3048791765 -274.7448807173 0.0568553866 -0.0203013013
0.0879361424 0.7290457327 0.0000000000 1.2058573375 0.3223703981 -269.0711401902 0.0569424119 -0.0203135861
0.0570259601 0.7296696505 0.0000000000 1.2063853264 0.3386924102 -262.4796952277 0.0570259602 -0.0203303495
0.0261122749 0.7290079068 0.0000000000 1.2023509755 0.3540915359 -254.9287038867 0.0571060058 -0.0203514120
-0.0047519687 0.7270618683 0.0000000000 1.1947310557 0.3687672149 -246.3651918364 0.0571825406 -0.0203765014
-0.0355139261 0.7238351784 0.0000000000 1.1842427616 0.3828564068 -236.7277251769 0.0572555475 -0.0204052564
-0.0661209676 0.7193337450 0.0000000000 1.1713882354 0.3964303527 -225.9509296647 0.0573249753 -0.0204372325
-0.0965207911 0.7135657219 0.0000000000 1.1565050192 0.4094992326 -213.9707813148 0.0573907157 -0.0204719121
-0.1266615315 0.7065414827 0.0000000000 1.1398134499 0.4220209571 -200.7298385159 0.0574525840 -0.0205087167
-0.1564918651 0.6982735895 0.0000000000 1.1214566179 0.4339114261 -186.1818885741 0.0575103032 -0.0205470223
-0.1859611096 0.6887767560 0.0000000000 1.1015316363 0.4450546322 -170.2957500631 0.0575634925 -0.0205861752
-0.2150193188 0.6780678071 0.0000000000 1.0801127470 0.4553118004 -153.0581643672 0.0576116593 -0.0206255089
-0.2436173734 0.6661656359 0.0000000000 1.0572675815 0.4645292855 -134.4758219896 0.0576541953 -0.0206643590
-0.2717070688 0.6530911586 0.0000000000 1.0330680738 0.4725452438 -114.5766187344 0.0576903731 -0.0207020778
-0.2992412034 0.6388672690 0.0000000000 1.0075973896 0.4791952305 -93.4102458639 0.0577193415 -0.0207380443
-0.3261736772 0.6235187962 0.0000000000 0.9809539766 0.4843169017 -71.0482060246 0.0577401098 -0.0207716694
-0.3524596191 0.6070724687 0.0000000000 0.9532535697 0.4877539739 -47.5833198481 0.0577514996 -0.0208023899
-0.3780555961 0.5895569011 0.0000000000 0.9246297512 0.4893595270 -23.1287668407 0.0577520156 -0.0208296367
-0.4029200490 0.5710026512 0.0000000000 0.8952334444 0.4889985718 2.1834484922 0.0577394857 -0.0208527307
-0.4270144726 0.5514425771 0.0000000000 0.8652317145 0.4865494209 28.2044987184 0.0577099560 -0.0208704739
-0.4503074734 0.5309137660 0.0000000000 0.8348056673 0.4819005867 54.7744863264 0.0576537055 -0.0208791669
-0.4942301356 0.4870516591 0.0000000000 0.7735036627 0.4658032713 108.7451664303 0.0575627976 -0.0209095195
-0.5147826563 0.4637883979 0.0000000000 0.7430244889 0.4542728055 135.7649042534 0.0575303950 -0.0209360303
-0.5343837694 0.4397031308 0.0000000000 0.7129482861 0.4403445209 162.5543032871 0.0574716128 -0.0209564036
-0.5529905446 0.4148338140 0.0000000000 0.6834967922 0.4240367726 188.8959211703 0.0573959935 -0.0209737973
-0.5705673410 0.3892215958 0.0000000000 0.6548913915 0.4053826330 214.5747051486 0.0573075179 -0.0209895226
-0.5870819309 0.3629093756 0.0000000000 0.6273495493 0.3844363314 239.3786688801 0.0572085350 -0.0210044110
-0.6025044618 0.3359414558 0.0000000000 0.6010830962 0.3612734092 263.1004055949 0.0571008517 -0.0210190888
-0.6168071547 0.3083634010 0.0000000000 0.5762959910 0.3359902908 285.5391581122 0.0569860818 -0.0210340404
-0.6299642253 0.2802219405 0.0000000000 0.5531822585 0.3087033059 306.5028999609 0.0568657698 -0.0210496278
-0.6419518831 0.2515648821 0.0000000000 0.5319240658 0.2795474371 325.8103142490 0.0567414331 -0.0210660955
-0.6527483630 0.2224410275 0.0000000000 0.5126899966 0.2486748533 343.2926086305 0.0566145683 -0.0210835742
-0.6623339677 0.1929000844 0.0000000000 0.4956335371 0.2162532837 358.7951387862 0.0564866442 -0.0211020836
-0.6706911124 0.1629925765 0.0000000000 0.4808917833 0.1824642681 372.1788257460 0.0563590872 -0.0211215386
-0.6778043678 0.1327697494 0.0000000000 0.4685843631 0.1475013124 383.3213610817 0.0562332663 -0.0211417570
-0.6836604964 0.1022834731 0.0000000000 0.4588125509 0.1115679715 392.1181981495 0.0561104812 -0.0211624694
-0.6882484814 0.0715861409 0.0000000000 0.4516585422 0.0748758863 398.4833279419 0.0559919534 -0.0211833323
-0.6915595461 0.0407305648 0.0000000000 0.4471848618 0.0376428085 402.3498386476 0.0558788237 -0.0212039440
-0.6935871655 0.0097698667 0.0000000000 0.4454339108 0.0000906541 403.6702650655 0.0557721533 -0.0212238636
-0.6943270711 -0.0212426338 0.0000000000 0.4464276887 -0.0375563786 402.4167455863 0.0556729289 -0.0212426335
-0.6937772499 -0.0522535352 0.0000000000 0.4501677456 -0.0750736146 398.5810162902 0.0555820688 -0.0212598042
-0.6919379398 -0.0832094701 0.0000000000 0.4566353803 -0.1122376320 392.1742617670 0.0555004299 -0.0212749607
-0.6888116200 -0.1140572221 0.0000000000 0.4657920873 -0.1488279220 383.2268385849 0.0554288148 -0.0212877483
-0.6844029952 -0.1447438393 0.0000000000 0.4775802441 -0.1846284992 371.7878837843 0.0553679823 -0.0212978963
-0.6787189699 -0.1752167449 0.0000000000 0.4919239579 -0.2194294805 357.9247979594 0.0553186640 -0.0213052379