 TITLE = "Tecplot data"
 VARIABLES = "X", "Y", "Z" "U", "V", "p", "dispX", "dispY"
 ZONE SOLUTIONTIME=0.900000, NODES=26114 , ELEMENTS=25916, DATAPACKING=POINT, ZONETYPE=FEQUADRILATERAL
0.4686956756 0.3534188959 0.0000000000 0.0000000000 0.0000000000 -532.3431704893 0.1151422850 -0.0001344947
0.4686956758 -0.3536878851 0.0000000000 0.0000000000 0.0000000000 -533.5365560697 0.1151422850 -0.0001344947
-0.2384111057 0.3534188957 0.0000000000 0.0000000000 0.0000000000 -303.5743597825 0.1151422850 -0.0001344947
-0.2384111054 -0.3536878855 0.0000000000 0.0000000000 0.0000000000 -347.6113411400 0.1151422850 -0.0001344947
0.6435089119 0.5306171656 0.0000000000 1.1033030916 -0.5601527871 -358.5111875584 0.1131788260 0.0002870797
0.6484310953 -0.5294443842 0.0000000000 1.0986915162 0.5618462762 -351.6660899999 0.1181010091 0.0008857013
-0.4120023114 0.5313540230 0.0000000000 0.9682157783 0.5272422544 -55.6022116705 0.1183277747 0.0010239373
-0.4152805046 -0.5303638666 0.0000000000 0.9643632446 -0.5251297373 -51.3327850338 0.1150495810 -0.0000337804
1.1757071650 1.0608095780 0.0000000000 1.0220665079 -0.1617763589 -49.3559752018 0.1150469933 0.0001494061
1.1766277578 -1.0593447630 0.0000000000 1.0215848902 0.1619630343 -49.3233670247 0.1159675852 0.0013154080
-0.9390630846 1.0632055880 0.0000000000 0.9950346778 0.1407151640 33.6999691720 0.1215970875 0.0025454166
-0.9467403005 -1.0595704788 0.0000000000 0.9937297635 -0.1400530315 34.7299743254 0.1139198707 0.0010896935
4.3090151872 3.3006892636 0.0000000000 0.9987128720 -0.0118773575 -3.0777548448 0.1090151872 0.0006892636
4.3052934472 -3.2991582674 0.0000000000 0.9987092335 0.0118944806 -3.1291765723 0.1052934472 0.0008417326
20.0000000000 4.7000000000 0.0000000000 0.9997882499 -0.0000664954 -0.0001219838 0.0000000000 0.0000000000
20.0000000000 -4.7000000000 0.0000000000 0.9997877200 0.0000664404 -0.0001179757 0.0000000000 0.0000000000
-10.0000000000 15.0000000000 0.0000000000 1.0000000000 0.0000000000 9.9014595622 0.0000000000 0.0000000000
20.0000000000 15.0000000000 0.0000000000 1.0003829834 0.0000000000 0.0012480930 0.0000000000 0.0000000000
20.0000000000 -15.0000000000 0.0000000000 1.0003821983 0.0000000000 0.0013457534 0.0000000000 0.0000000000
-10.0000000000 -15.0000000000 0.0000000000 1.0000000000 0.0000000000 9.8621478988 0.0000000000 0.0000000000
0.4816682212 -0.3402208634 0.0000000000 0.0000000000 0.0000000000 -500.4942227741 0.1151422850 -0.0001344947
0.4941281468 -0.3262782001 0.0000000000 0.0000000000 0.0000000000 -469.8614275556 0.1151422850 -0.0001344947
0.5060580264 -0.3118793954 0.0000000000 0.0000000000 0.0000000000 -437.7784645543 0.1151422850 -0.0001344947
0.5174411751 -0.2970445873 0.0000000000 0.0000000000 0.0000000000 -406.2808315858 0.1151422850 -0.0001344947
0.5282616723 -0.2817945235 0.0000000000 0.0000000000 0.0000000000 -374.5345550961 0.1151422850 -0.0001344947
0.5385043848 -0.2661505327 0.0000000000 0.0000000000 0.0000000000 -343.0189924513 0.1151422850 -0.0001344947
0.5481549870 -0.2501344945 0.0000000000 0.0000000000 0.0000000000 -311.6402467237 0.1151422850 -0.0001344947
0.5571999819 -0.2337688086 0.0000000000 0.0000000000 0.0000000000 -280.7401142575 0.1151422850 -0.0001344947
0.5656267191 -0.2170763640 0.0000000000 0.0000000000 0.0000000000 -250.0535817059 0.1151422850 -0.0001344947
0.5734234130 -0.2000805066 0.0000000000 0.0000000000 0.0000000000 -221.5212350076 0.1151422850 -0.0001344947
0.5805791594 -0.1828050067 0.0000000000 0.0000000000 0.0000000000 -191.6648024872 0.1151422850 -0.0001344947
0.5870839502 -0.1652740255 0.0000000000 0.0000000000 0.0000000000 -163.4113592978 0.1151422850 -0.0001344947
0.5929286880 -0.1475120817 0.0000000000 0.0000000000 0.0000000000 -139.3043205838 0.1151422850 -0.0001344947
0.5981051982 -0.1295440170 0.0000000000 0.0000000000 0.0000000000 -115.0179808276 0.1151422850 -0.0001344947
0.6026062411 -0.1113949615 0.0000000000 0.0000000000 0.0000000000 -94.0915037838 0.1151422850 -0.0001344947
0.6064255217 -0.0930902981 0.0000000000 0.0000000000 0.0000000000 -75.3306363319 0.1151422850 -0.0001344947
0.6095576981 -0.0746556276 0.0000000000 0.0000000000 0.0000000000 -59.6989617703 0.1151422850 -0.0001344947
0.6119983900 -0.0561167326 0.0000000000 0.0000000000 0.0000000000 -47.1749275407 0.1151422850 -0.0001344947
0.6137441836 -0.0374995413 0.0000000000 0.0000000000 0.0000000000 -38.0930754393 0.1151422850 -0.0001344947
0.6147926374 -0.0188300917 0.0000000000 0.0000000000 0.0000000000 -32.5606556961 0.1151422850 -0.0001344947
0.6151422850 -0.0001344945 0.0000000000 0.0000000000 0.0000000000 -30.6981813148 0.1151422850 -0.0001344947
0.6147926374 0.0185611026 0.0000000000 0.0000000000 0.0000000000 -32.5314282087 0.1151422850 -0.0001344947
0.6137441836 0.0372305522 0.0000000000 0.0000000000 0.0000000000 -38.0281486372 0.1151422850 -0.0001344947
0.6119983899 0.0558477435 0.0000000000 0.0000000000 0.0000000000 -47.0890503021 0.1151422850 -0.0001344947
0.6095576981 0.0743866385 0.0000000000 0.0000000000 0.0000000000 -59.5554009137 0.1151422850 -0.0001344947
0.6064255216 0.0928213090 0.0000000000 0.0000000000 0.0000000000 -75.2144613449 0.1151422850 -0.0001344947
0.6026062411 0.1111259724 0.0000000000 0.0000000000 0.0000000000 -93.8087834897 0.1151422850 -0.0001344947
0.5981051981 0.1292750280 0.0000000000 0.0000000000 0.0000000000 -115.0470151186 0.1151422850 -0.0001344947
0.5929286879 0.1472430926 0.0000000000 0.0000000000 0.0000000000 -138.6129889838 0.1151422850 -0.0001344947
0.5870839501 0.1650050364 0.0000000000 0.0000000000 0.0000000000 -164.1806383137 0.1151422850 -0.0001344947
0.5805791593 0.1825360176 0.0000000000 0.0000000000 0.0000000000 -191.4181607114 0.1151422850 -0.0001344947
0.5734234129 0.1998115175 0.0000000000 0.0000000000 0.0000000000 -220.0126619133 0.1151422850 -0.0001344947
0.5656267189 0.2168073749 0.0000000000 0.0000000000 0.0000000000 -249.6551433879 0.1151422850 -0.0001344947
0.5571999817 0.2334998195 0.0000000000 0.0000000000 0.0000000000 -280.0965704664 0.1151422850 -0.0001344947
0.5481549868 0.2498655054 0.0000000000 0.0000000000 0.0000000000 -311.0661178714 0.1151422850 -0.0001344947
0.5385043846 0.2658815436 0.0000000000 0.0000000000 0.0000000000 -342.4427543954 0.1151422850 -0.0001344947
0.5282616721 0.2815255344 0.0000000000 0.0000000000 0.0000000000 -373.9395701443 0.1151422850 -0.0001344947
0.5174411748 0.2967755981 0.0000000000 0.0000000000 0.0000000000 -405.6908705152 0.1151422850 -0.0001344947
0.5060580262 0.3116104063 0.0000000000 0.0000000000 0.0000000000 -437.2210000893 0.1151422850 -0.0001344947
0.4941281465 0.3260092110 0.0000000000 0.0000000000 0.0000000000 -469.1104803364 0.1151422850 -0.0001344947
0.4816682209 0.3399518742 0.0000000000 0.0000000000 0.0000000000 -500.2758267112 0.1151422850 -0.0001344947
0.4537830708 0.3677274606 0.0000000000 0.0000000000 0.0000000000 -566.5634851610 0.1151422850 -0.0001344947
0.4382919039 0.3814075394 0.0000000000 0.0000000000 0.0000000000 -601.5904580922 0.1151422850 -0.0001344947
0.4222486413 0.3944357600 0.0000000000 0.0000000000 0.0000000000 -635.8009840862 0.1151422850 -0.0001344947
0.4056806927 0.4067898639 0.0000000000 0.0000000000 0.0000000000 -670.0972063621 0.1151422850 -0.0001344947
0.3886163640 0.4184487444 0.0000000000 0.0000000000 0.0000000000 -703.7974662000 0.1151422850 -0.0001344947
0.3710848095 0.4293924825 0.0000000000 0.0000000000 0.0000000000 -737.2556708536 0.1151422850 -0.0001344947
0.3531159815 0.4396023809 0.0000000000 0.0000000000 0.0000000000 -769.7899721904 0.1151422850 -0.0001344947
0.3347405794 0.4490609962 0.0000000000 0.0000000000 0.0000000000 -801.1687547592 0.1151422850 -0.0001344947
0.3159899973 0.4577521686 0.0000000000 0.0000000000 0.0000000000 -831.5002657019 0.1151422850 -0.0001344947
0.2968962702 0.4656610493 0.0000000000 0.0000000000 0.0000000000 -860.3914392226 0.1151422850 -0.0001344947
0.2774920195 0.4727741261 0.0000000000 0.0000000000 0.0000000000 -887.8464157658 0.1151422850 -0.0001344947
0.2578103970 0.4790792465 0.0000000000 0.0000000000 0.0000000000 -913.1080912028 0.1151422850 -0.0001344947
0.2378850285 0.4845656383 0.0000000000 0.0000000000 0.0000000000 -936.0873064120 0.1151422850 -0.0001344947
0.2177499560 0.4892239279 0.0000000000 0.0000000000 0.0000000000 -956.4098731857 0.1151422850 -0.0001344947
0.1974395801 0.4930461570 0.0000000000 0.0000000000 0.0000000000 -973.7967367460 0.1151422850 -0.0001344947
0.1769886005 0.4960257951 0.0000000000 0.0000000000 0.0000000000 -987.9512439295 0.1151422850 -0.0001344947
0.1564319576 0.4981577518 0.0000000000 0.0000000000 0.0000000000 -998.6028134249 0.1151422850 -0.0001344947
0.1358047720 0.4994383845 0.0000000000 0.0000000000 0.0000000000 -1005.5015644702 0.1151422850 -0.0001344947
0.1151422849 0.4998655053 0.0000000000 0.0000000000 0.0000000000 -1008.4268922797 0.1151422850 -0.0001344947
0.0944797978 0.4994383845 0.0000000000 0.0000000000 0.0000000000 -1007.1909537392 0.1151422850 -0.0001344947
0.0738526122 0.4981577518 0.0000000000 0.0000000000 0.0000000000 -1001.6428243843 0.1151422850 -0.0001344947
0.0532959693 0.4960257951 0.0000000000 0.0000000000 0.0000000000 -991.6714371153 0.1151422850 -0.0001344947
0.0328449897 0.4930461569 0.0000000000 0.0000000000 0.0000000000 -977.2079139025 0.1151422850 -0.0001344947
0.0125346138 0.4892239279 0.0000000000 0.0000000000 0.0000000000 -958.2270421791 0.1151422850 -0.0001344947
-0.0076004587 0.4845656382 0.0000000000 0.0000000000 0.0000000000 -934.7480072341 0.1151422850 -0.0001344947
-0.0275258272 0.4790792465 0.0000000000 0.0000000000 0.0000000000 -906.8343617640 0.1151422850 -0.0001344947
-0.0472074497 0.4727741261 0.0000000000 0.0000000000 0.0000000000 -874.5933075517 0.1151422850 -0.0001344947
-0.0666117004 0.4656610492 0.0000000000 0.0000000000 0.0000000000 -838.1743686530 0.1151422850 -0.0001344947
-0.0857054274 0.4577521685 0.0000000000 0.0000000000 0.0000000000 -797.7676111402 0.1151422850 -0.0001344947
-0.1044560095 0.4490609962 0.0000000000 0.0000000000 0.0000000000 -753.6016302397 0.1151422850 -0.0001344947
-0.1228314116 0.4396023808 0.0000000000 0.0000000000 0.0000000000 -705.9415811172 0.1151422850 -0.0001344947
-0.1408002397 0.4293924824 0.0000000000 0.0000000000 0.0000000000 -655.0874695868 0.1151422850 -0.0001344947
-0.1583317942 0.4184487443 0.0000000000 0.0000000000 0.0000000000 -601.3726599022 0.1151422850 -0.0001344947
-0.1753961228 0.4067898638 0.0000000000 0.0000000000 0.0000000000 -545.1621322015 0.1151422850 -0.0001344947
-0.1919640715 0.3944357599 0.0000000000 0.0000000000 0.0000000000 -486.8497319969 0.1151422850 -0.0001344947
-0.2080073340 0.3814075393 0.0000000000 0.0000000000 0.0000000000 -426.8538845769 0.1151422850 -0.0001344947
-0.2234985009 0.3677274605 0.0000000000 0.0000000000 0.0000000000 -365.6119875505 0.1151422850 -0.0001344947
-0.2527196704 0.3385062910 0.0000000000 0.0000000000 0.0000000000 -241.1986586166 0.1151422850 -0.0001344947
-0.2663997492 0.3230151241 0.0000000000 0.0000000000 0.0000000000 -178.9451962719 0.1151422850 -0.0001344947
-0.2794279698 0.3069718615 0.0000000000 0.0000000000 0.0000000000 -117.2730694264 0.1151422850 -0.0001344947
-0.2917820737 0.2904039128 0.0000000000 0.0000000000 0.0000000000 -56.6367980780 0.1151422850 -0.0001344947
-0.3034409542 0.2733395842 0.0000000000 0.0000000000 0.0000000000 2.5167990376 0.1151422850 -0.0001344947
-0.3143846923 0.2558080297 0.0000000000 0.0000000000 0.0000000000 59.7516546115 0.1151422850 -0.0001344947
-0.3245945907 0.2378392016 0.0000000000 0.0000000000 0.0000000000 114.6454870646 0.1151422850 -0.0001344947
-0.3340532060 0.2194637995 0.0000000000 0.0000000000 0.0000000000 166.7928143447 0.1151422850 -0.0001344947
-0.3427443784 0.2007132174 0.0000000000 0.0000000000 0.0000000000 215.8079289357 0.1151422850 -0.0001344947
-0.3506532591 0.1816194904 0.0000000000 0.0000000000 0.0000000000 261.3277804471 0.1151422850 -0.0001344947
-0.3577663359 0.1622152397 0.0000000000 0.0000000000 0.0000000000 303.0147499199 0.1151422850 -0.0001344947
-0.3640714563 0.1425336172 0.0000000000 0.0000000000 0.0000000000 340.5592306695 0.1151422850 -0.0001344947
-0.3695578480 0.1226082487 0.0000000000 0.0000000000 0.0000000000 373.6820679826 0.1151422850 -0.0001344947
-0.3742161377 0.1024731762 0.0000000000 0.0000000000 0.0000000000 402.1366624174 0.1151422850 -0.0001344947
-0.3780383667 0.0821628002 0.0000000000 0.0000000000 0.0000000000 425.7110289265 0.1151422850 -0.0001344947
-0.3810180049 0.0617118207 0.0000000000 0.0000000000 0.0000000000 444.2291972688 0.1151422850 -0.0001344947
-0.3831499615 0.0411551778 0.0000000000 0.0000000000 0.0000000000 457.5530608672 0.1151422850 -0.0001344947
-0.3844305942 0.0205279922 0.0000000000 0.0000000000 0.0000000000 465.5825715471 0.1151422850 -0.0001344947
-0.3848577150 -0.0001344949 0.0000000000 0.0000000000 0.0000000000 468.2581622769 0.1151422850 -0.0001344947
-0.3844305942 -0.0207969821 0.0000000000 0.0000000000 0.0000000000 465.5582039704 0.1151422850 -0.0001344947
-0.3831499615 -0.0414241677 0.0000000000 0.0000000000 0.0000000000 457.5047332828 0.1151422850 -0.0001344947
-0.3810180048 -0.0619808106 0.0000000000 0.0000000000 0.0000000000 444.1531657940 0.1151422850 -0.0001344947
-0.3780383667 -0.0824317901 0.0000000000 0.0000000000 0.0000000000 425.6104113056 0.1151422850 -0.0001344947
-0.3742161376 -0.1027421660 0.0000000000 0.0000000000 0.0000000000 402.0003726876 0.1151422850 -0.0001344947
-0.3695578479 -0.1228772385 0.0000000000 0.0000000000 0.0000000000 373.5243546686 0.1151422850 -0.0001344947
-0.3640714562 -0.1428026071 0.0000000000 0.0000000000 0.0000000000 340.3481440323 0.1151422850 -0.0001344947
-0.3577663358 -0.1624842296 0.0000000000 0.0000000000 0.0000000000 302.8032327571 0.1151422850 -0.0001344947
-0.3506532589 -0.1818884802 0.0000000000 0.0000000000 0.0000000000 261.0162515472 0.1151422850 -0.0001344947
-0.3427443782 -0.2009822073 0.0000000000 0.0000000000 0.0000000000 215.5786046937 0.1151422850 -0.0001344947
-0.3340532058 -0.2197327894 0.0000000000 0.0000000000 0.0000000000 166.3162650814 0.1151422850 -0.0001344947
-0.3245945905 -0.2381081915 0.0000000000 0.0000000000 0.0000000000 114.5449672302 0.1151422850 -0.0001344947
-0.3143846921 -0.2560770195 0.0000000000 0.0000000000 0.0000000000 58.8801391796 0.1151422850 -0.0001344947
-0.3034409540 -0.2736085740 0.0000000000 0.0000000000 0.0000000000 3.1007291367 0.1151422850 -0.0001344947
-0.2917820735 -0.2906729026 0.0000000000 0.0000000000 0.0000000000 -58.8634853141 0.1151422850 -0.0001344947
-0.2794279695 -0.3072408513 0.0000000000 0.0000000000 0.0000000000 -113.6211010353 0.1151422850 -0.0001344947
-0.2663997489 -0.3232841139 0.0000000000 0.0000000000 0.0000000000 -185.9566692627 0.1151422850 -0.0001344947
-0.2527196702 -0.3387752807 0.0000000000 0.0000000000 0.0000000000 -89.0990120541 0.1151422850 -0.0001344947
-0.2234985006 -0.3679964502 0.0000000000 0.0000000000 0.0000000000 -396.7680593694 0.1151422850 -0.0001344947
-0.2080073337 -0.3816765290 0.0000000000 0.0000000000 0.0000000000 -206.6012194371 0.1151422850 -0.0001344947
-0.1919640711 -0.3947047496 0.0000000000 0.0000000000 0.0000000000 -494.5141489231 0.1151422850 -0.0001344947
-0.1753961225 -0.4070588535 0.0000000000 0.0000000000 0.0000000000 -539.5778377718 0.1151422850 -0.0001344947
-0.1583317938 -0.4187177340 0.0000000000 0.0000000000 0.0000000000 -602.7998386840 0.1151422850 -0.0001344947
-0.1408002393 -0.4296614721 0.0000000000 0.0000000000 0.0000000000 -651.6084570072 0.1151422850 -0.0001344947
-0.1228314113 -0.4398713705 0.0000000000 0.0000000000 0.0000000000 -706.4763405912 0.1151422850 -0.0001344947
-0.1044560092 -0.4493299858 0.0000000000 0.0000000000 0.0000000000 -754.2146951546 0.1151422850 -0.0001344947
-0.0857054271 -0.4580211582 0.0000000000 0.0000000000 0.0000000000 -800.2421305599 0.1151422850 -0.0001344947
-0.0666117000 -0.4659300389 0.0000000000 0.0000000000 0.0000000000 -840.2015398240 0.1151422850 -0.0001344947
-0.0472074493 -0.4730431157 0.0000000000 0.0000000000 0.0000000000 -875.9751813856 0.1151422850 -0.0001344947
-0.0275258268 -0.4793482360 0.0000000000 0.0000000000 0.0000000000 -908.2507728584 0.1151422850 -0.0001344947
-0.0076004583 -0.4848346278 0.0000000000 0.0000000000 0.0000000000 -936.1097587887 0.1151422850 -0.0001344947
0.0125346142 -0.4894929175 0.0000000000 0.0000000000 0.0000000000 -959.5926343037 0.1151422850 -0.0001344947
0.0328449902 -0.4933151465 0.0000000000 0.0000000000 0.0000000000 -978.5960955068 0.1151422850 -0.0001344947
0.0532959697 -0.4962947846 0.0000000000 0.0000000000 0.0000000000 -993.0748290172 0.1151422850 -0.0001344947
0.0738526126 -0.4984267413 0.0000000000 0.0000000000 0.0000000000 -1003.0684186533 0.1151422850 -0.0001344947
0.0944797982 -0.4997073739 0.0000000000 0.0000000000 0.0000000000 -1008.6288926514 0.1151422850 -0.0001344947
0.1151422853 -0.5001344947 0.0000000000 0.0000000000 0.0000000000 -1009.8746299696 0.1151422850 -0.0001344947
0.1358047724 -0.4997073739 0.0000000000 0.0000000000 0.0000000000 -1006.9505084498 0.1151422850 -0.0001344947
0.1564319580 -0.4984267412 0.0000000000 0.0000000000 0.0000000000 -1000.0472000792 0.1151422850 -0.0001344947
0.1769886009 -0.4962947846 0.0000000000 0.0000000000 0.0000000000 -989.3840830361 0.1151422850 -0.0001344947
0.1974395805 -0.4933151464 0.0000000000 0.0000000000 0.0000000000 -975.2121423359 0.1151422850 -0.0001344947
0.2177499564 -0.4894929173 0.0000000000 0.0000000000 0.0000000000 -957.8048420955 0.1151422850 -0.0001344947
0.2378850289 -0.4848346276 0.0000000000 0.0000000000 0.0000000000 -937.4542703239 0.1151422850 -0.0001344947
0.2578103974 -0.4793482359 0.0000000000 0.0000000000 0.0000000000 -914.4649557084 0.1151422850 -0.0001344947
0.2774920199 -0.4730431155 0.0000000000 0.0000000000 0.0000000000 -889.1456572099 0.1151422850 -0.0001344947
0.2968962706 -0.4659300386 0.0000000000 0.0000000000 0.0000000000 -861.8077610234 0.1151422850 -0.0001344947
0.3159899976 -0.4580211579 0.0000000000 0.0000000000 0.0000000000 -832.7474702323 0.1151422850 -0.0001344947
0.3347405797 -0.4493299855 0.0000000000 0.0000000000 0.0000000000 -802.2637282755 0.1151422850 -0.0001344947
0.3531159818 -0.4398713702 0.0000000000 0.0000000000 0.0000000000 -770.5994049328 0.1151422850 -0.0001344947
0.3710848098 -0.4296614717 0.0000000000 0.0000000000 0.0000000000 -738.0502970352 0.1151422850 -0.0001344947
0.3886163644 -0.4187177337 0.0000000000 0.0000000000 0.0000000000 -704.7128796292 0.1151422850 -0.0001344947
0.4056806930 -0.4070588532 0.0000000000 0.0000000000 0.0000000000 -671.0176473206 0.1151422850 -0.0001344947
0.4222486416 -0.3947047492 0.0000000000 0.0000000000 0.0000000000 -636.5731561244 0.1151422850 -0.0001344947
0.4382919042 -0.3816765286 0.0000000000 0.0000000000 0.0000000000 -602.6210198323 0.1151422850 -0.0001344947
0.4537830711 -0.3679964498 0.0000000000 0.0000000000 0.0000000000 -566.9238373029 0.1151422850 -0.0001344947
0.6676613736 -0.5091790491 0.0000000000 1.0444730272 0.5722213201 -329.2412478579 0.1178724693 0.0009505039
0.6861976509 -0.4882228302 0.0000000000 0.9877360646 0.5787484600 -305.5798005120 0.1177188582 0.0009927279
0.7039478120 -0.4665799015 0.0000000000 0.9288420429 0.5812498028 -281.0640291472 0.1175741999 0.0010374495
0.7208709834 -0.4442823452 0.0000000000 0.8682275857 0.5795200079 -255.7757572517 0.1174226483 0.0010827936
0.7369381700 -0.4213635207 0.0000000000 0.8063933716 0.5734192394 -229.8483604984 0.1172590890 0.0011265224
0.7521253594 -0.3978570755 0.0000000000 0.7438904394 0.5628656354 -203.4381694374 0.1170822097 0.0011669815
0.7664114185 -0.3737970235 0.0000000000 0.6813123676 0.5478425606 -176.7363720626 0.1168923654 0.0012029761
0.7797772799 -0.3492178177 0.0000000000 0.6192826644 0.5284024442 -149.9695517148 0.1166907346 0.0012336531
0.7922055678 -0.3241543808 0.0000000000 0.5584406551 0.5046684829 -123.3983102042 0.1164789167 0.0012584232
0.8036804142 -0.2986421150 0.0000000000 0.4994268446 0.4768333765 -97.3129716328 0.1162587222 0.0012769029
0.8141873718 -0.2727168964 0.0000000000 0.4428690268 0.4451548898 -72.0268770222 0.1160320602 0.0012888715
0.8237133745 -0.2464150550 0.0000000000 0.3893704706 0.4099481736 -47.8677727191 0.1158008766 0.0012942410
0.8322467186 -0.2197733434 0.0000000000 0.3395016198 0.3715750300 -25.1680169718 0.1155671142 0.0012930370
0.8397770508 -0.1928288977 0.0000000000 0.2937967560 0.3304305945 -4.2544339466 0.1153326810 0.0012853858
0.8462953584 -0.1656191943 0.0000000000 0.2527567643 0.2869282164 14.5613627899 0.1150994242 0.0012715058
0.8517939621 -0.1381820050 0.0000000000 0.2168580363 0.2414836371 30.9914989890 0.1148691071 0.0012517000
0.8562665117 -0.1105553521 0.0000000000 0.1865648434 0.1944999015 44.7788283766 0.1146433920 0.0012263472
0.8597079855 -0.0827774644 0.0000000000 0.1623376138 0.1463548124 55.7024202981 0.1144238281 0.0011958924
0.8621146911 -0.0548867343 0.0000000000 0.1446241336 0.0973930208 63.5821172817 0.1142118432 0.0011608356
0.8634842691 -0.0269216758 0.0000000000 0.1338212757 0.0479246206 68.2830795104 0.1140087405 0.0011217196
0.8638156963 0.0010791170 0.0000000000 0.1302094196 -0.0017690694 69.7207862166 0.1138156963 0.0010791167
0.8631092906 0.0290770119 0.0000000000 0.1338864615 -0.0514237427 67.8655538547 0.1136337620 0.0010336159
0.8613667155 0.0570333813 0.0000000000 0.1447405018 -0.1007770683 62.7445423697 0.1134638676 0.0009858108
0.8585909886 0.0849096461 0.0000000000 0.1624802002 -0.1495536191 54.4400921998 0.1133068312 0.0009362888
0.8547864911 0.1126673208 0.0000000000 0.1867034030 -0.1974528861 43.0854224754 0.1131633715 0.0008856209
0.8499589817 0.1402680595 0.0000000000 0.2169643331 -0.2441428935 28.8597470864 0.1130341268 0.0008343539
0.8441156110 0.1676737037 0.0000000000 0.2528119352 -0.2892605577 11.9838746551 0.1129196769 0.0007830030
0.8372649372 0.1948463312 0.0000000000 0.2937972712 -0.3324182422 -7.2841070819 0.1128205676 0.0007320471
0.8294169381 0.2217483076 0.0000000000 0.3394629149 -0.3732148657 -28.6540140826 0.1127373338 0.0006819266
0.8205830166 0.2483423426 0.0000000000 0.3893279708 -0.4112496993 -51.8102762809 0.1126705189 0.0006330459
0.8107759960 0.2745915509 0.0000000000 0.4428767466 -0.4461372177 -76.4203062825 0.1126206846 0.0005857825
0.8000100983 0.3004595212 0.0000000000 0.4995539955 -0.4775216623 -102.1442054735 0.1125884065 0.0005405028
0.7883008963 0.3259103907 0.0000000000 0.5587668009 -0.5050902161 -128.6451684305 0.1125742455 0.0004975862
0.7756652295 0.3509089239 0.0000000000 0.6198919750 -0.5285839370 -155.5997661868 0.1125786845 0.0004574526
0.7621210730 0.3754205862 0.0000000000 0.6822874759 -0.5478058707 -182.7072504968 0.1126020202 0.0004205861
0.7476873592 0.3994115963 0.0000000000 0.7453063316 -0.5626260637 -209.6971138970 0.1126442098 0.0003875388
0.7323837760 0.4228489433 0.0000000000 0.8083117269 -0.5729834776 -236.3343347551 0.1127046954 0.0003588996
0.7162305745 0.4457003621 0.0000000000 0.8706921348 -0.5788850132 -262.4220012547 0.1127822398 0.0003352228
0.6992483751 0.4679342864 0.0000000000 0.9318756010 -0.5804018996 -287.8013598690 0.1128747633 0.0003169349
0.6814577149 0.4895197921 0.0000000000 0.9913420996 -0.5776635894 -312.3495492614 0.1129789226 0.0003042336
0.6628773912 0.5104267012 0.0000000000 1.0486367059 -0.5708486494 -335.9824327507 0.1130884874 0.0002971478
0.6212858151 0.5520495000 0.0000000000 1.1602114532 -0.5442829374 -382.4561095404 0.1133246364 0.0002565670
0.5981980450 0.5725365068 0.0000000000 1.2134671772 -0.5243693169 -405.0165270341 0.1134736167 0.0002234555
0.5743008436 0.5920527806 0.0000000000 1.2626748714 -0.5009124120 -426.2158983949 0.1136413091 0.0001973985
0.5496348927 0.6105651277 0.0000000000 1.3077300551 -0.4742802374 -446.0382225077 0.1138272813 0.0001785897
0.5242402278 0.6280417219 0.0000000000 1.3485877352 -0.4448714359 -464.4605841177 0.1140291093 0.0001668632
0.4981576549 0.6444519900 0.0000000000 1.3852748410 -0.4130639623 -481.4561603433 0.1142438682 0.0001615241
0.4714292393 0.6597669682 0.0000000000 1.4178701681 -0.3792112065 -496.9916548464 0.1144686946 0.0001616547
0.4440983792 0.6739595819 0.0000000000 1.4464884382 -0.3436369045 -511.0256378928 0.1147009377 0.0001663454
0.4162097420 0.6870048054 0.0000000000 1.4712652432 -0.3066338173 -523.5080931502 0.1149381736 0.0001748104
0.3878091687 0.6988797167 0.0000000000 1.4923443027 -0.2684647511 -534.3809903719 0.1151781909 0.0001864006
0.3589435871 0.7095635000 0.0000000000 1.5098674577 -0.2293654497 -543.5795864567 0.1154189853 0.0002005687
0.3296609362 0.7190374414 0.0000000000 1.5239675563 -0.1895486757 -551.0342123023 0.1156587681 0.0002168295
0.3000100933 0.7272849311 0.0000000000 1.5347640801 -0.1492088832 -556.6723614291 0.1158959780 0.0002347316
0.2700407941 0.7342914792 0.0000000000 1.5423611731 -0.1085269811 -560.4209407891 0.1161292876 0.0002538452
0.2398035408 0.7400447407 0.0000000000 1.5468476273 -0.0676748045 -562.2085726102 0.1163575982 0.0002737631
0.2093494963 0.7445345471 0.0000000000 1.5482983455 -0.0268190344 -561.9678572581 0.1165800229 0.0002941123
0.1787303664 0.7477529423 0.0000000000 1.5467768193 0.0138755823 -559.6375267589 0.1167958574 0.0003145725
0.1479982726 0.7496942186 0.0000000000 1.5423382171 0.0542437666 -555.1644392526 0.1170045421 0.0003348999
0.1172056187 0.7503549499 0.0000000000 1.5350327565 0.0941179868 -548.5053849228 0.1172056189 0.0003549499
0.0864049554 0.7497340150 0.0000000000 1.5249091108 0.1333274261 -539.6286909861 0.1173986862 0.0003746963
0.0556488447 0.7478326106 0.0000000000 1.5120176767 0.1716975669 -528.5156245526 0.1175833540 0.0003942409
0.0249897272 0.7446542479 0.0000000000 1.4964135859 0.2090503078 -515.1615968769 0.1177592008 0.0004138131
-0.0055202072 0.7402047348 0.0000000000 1.4781593875 0.2452045313 -499.5771721713 0.1179257357 0.0004337572
-0.0358291425 0.7344921426 0.0000000000 1.4573273606 0.2799770455 -481.7888815331 0.1180823643 0.0004545086
-0.0658857547 0.7275267623 0.0000000000 1.4340014364 0.3131838234 -461.8398403253 0.1182283608 0.0004765629
-0.0956393211 0.7193210506 0.0000000000 1.4082787308 0.3446414750 -439.7901670272 0.1183628472 0.0005004388
-0.1250398223 0.7098895721 0.0000000000 1.3802706939 0.3741688886 -415.7172030331 0.1184847798 0.0005266409
-0.1540380358 0.6992489367 0.0000000000 1.3501038980 0.4015889897 -389.7155348341 0.1185929423 0.0005556207
-0.1825856226 0.6874177366 0.0000000000 1.3179204809 0.4267305724 -361.8968207304 0.1186859460 0.0005877417
-0.2106352113 0.6744164813 0.0000000000 1.2838782673 0.4494301650 -332.3894218985 0.1187622305 0.0006232449
-0.2381404869 0.6602675311 0.0000000000 1.2481505774 0.4695338948 -301.3378310674 0.1188200581 0.0006622178
-0.2650563057 0.6449950270 0.0000000000 1.2109257227 0.4868993103 -268.9018759098 0.1188574813 0.0007045613
-0.2913388785 0.6286248105 0.0000000000 1.1724061612 0.5013970998 -235.2556486575 0.1188722403 0.0007499519
-0.3169461322 0.6111843221 0.0000000000 1.1328072167 0.5129125759 -200.5860047730 0.1188614795 0.0007977842
-0.3418385653 0.5927024500 0.0000000000 1.0923551294 0.5213465955 -165.0903439678 0.1188209693 0.0008470681
-0.3659816593 0.5732093883 0.0000000000 1.0512835784 0.5266145553 -128.9720420981 0.1187427693 0.0008963373
-0.3893540494 0.5527374951 0.0000000000 1.0098270518 0.5286374420 -92.4302591204 0.1186071295 0.0009445622
-0.4334176659 0.5090309570 0.0000000000 0.9270484971 0.5229699539 -19.2848279770 0.1183752673 0.0010697785
-0.4540273542 0.4858671135 0.0000000000 0.8862178560 0.5153410850 16.8454796434 0.1182856971 0.0011426853
-0.4737141586 0.4618693526 0.0000000000 0.8460532530 0.5044647519 52.4572699413 0.1181412236 0.0012098183
-0.4924250346 0.4370784703 0.0000000000 0.8068291949 0.4904204503 87.2907458547 0.1179615035 0.0012708590
-0.5101198207 0.4115364708 0.0000000000 0.7688099031 0.4732942266 121.1035612081 0.1177550381 0.0013253524
-0.5267635953 0.3852863847 0.0000000000 0.7322474903 0.4531924603 153.6648653309 0.1175268706 0.0013725982
-0.5423244796 0.3583724116 0.0000000000 0.6973830715 0.4302418711 184.7540816657 0.1172808339 0.0014118671
-0.5567729426 0.3308399690 0.0000000000 0.6644452866 0.4045892339 214.1618353564 0.1170202940 0.0014425276
-0.5700815757 0.3027356707 0.0000000000 0.6336487771 0.3764002241 241.6913098926 0.1167484194 0.0014641024
-0.5822250405 0.2741072691 0.0000000000 0.6051926143 0.3458579778 267.1596638768 0.1164682756 0.0014762914
-0.5931800839 0.2450035791 0.0000000000 0.5792588821 0.3131614340 290.3993361114 0.1161828475 0.0014789774
-0.6029255814 0.2154743896 0.0000000000 0.5560114553 0.2785235472 311.2591759666 0.1158950305 0.0014722217
-0.6114425882 0.1855703678 0.0000000000 0.5355950051 0.2421694239 329.6053740331 0.1156076113 0.0014562527
-0.6187143874 0.1553429579 0.0000000000 0.5181342371 0.2043344270 345.3221921945 0.1153232467 0.0014314515
-0.6247265285 0.1248442768 0.0000000000 0.5037333536 0.1652622722 358.3125055409 0.1150444491 0.0013983344
-0.6294668522 0.0941270060 0.0000000000 0.4924757117 0.1252031308 368.4981713446 0.1147735827 0.0013575328
-0.6329254994 0.0632442783 0.0000000000 0.4844236481 0.0844117481 375.8202344247 0.1145128704 0.0013097695
-0.6350949090 0.0322495615 0.0000000000 0.4796184518 0.0431455906 380.2389721425 0.1142644098 0.0012558311
-0.6359698055 0.0011965350 0.0000000000 0.4780804882 0.0016630418 381.7337808542 0.1140301945 0.0011965353
-0.6355471844 -0.0298610348 0.0000000000 0.4798094969 -0.0397783373 380.3029135844 0.1138121344 0.0011326962
-0.6338262967 -0.0608694219 0.0000000000 0.4847850543 -0.0809234598 375.9630752162 0.1136120731 0.0010650875
-0.6308086336 -0.0917750649 0.0000000000 0.4929671869 -0.1215212496 368.7488909423 0.1134318011 0.0009944089
-0.6264979072 -0.1225246852 0.0000000000 0.5042971212 -0.1613260494 358.7122771210 0.1132730703 0.0009212579
-0.6209000190 -0.1530653975 0.0000000000 0.5186981177 -0.2000989042 345.9217347247 0.1131376149 0.0008461094
-0.6140230070 -0.1833448094 0.0000000000 0.5360763361 -0.2376087325 330.4615873198 0.1130271924 0.0007693063