 TITLE = "Tecplot data"
 VARIABLES = "X", "Y", "Z" "U", "V", "p", "dispX", "dispY"
 ZONE SOLUTIONTIME=20.900000, NODES=26114 , ELEMENTS=25916, DATAPACKING=POINT, ZONETYPE=FEQUADRILATERAL
0.4086631487 0.3584264786 0.0000000000 0.0000000000 0.0000000000 -239.5056202565 0.0551097582 0.0048730880
0.4086631490 -0.3486803024 0.0000000000 0.0000000000 0.0000000000 -213.3960950855 0.0551097582 0.0048730880
-0.2984436325 0.3584264785 0.0000000000 0.0000000000 0.0000000000 -82.1977879662 0.0551097582 0.0048730880
-0.2984436322 -0.3486803028 0.0000000000 0.0000000000 0.0000000000 -65.1334884993 0.0551097582 0.0048730880
0.5845037985 0.5353997626 0.0000000000 0.0536902083 0.0732429058 -232.7046006834 0.0541737127 0.0050696766
0.5868926306 -0.5247974715 0.0000000000 0.0465769235 -0.0423101037 -208.3837321348 0.0565625444 0.0055326140
-0.4736208278 0.5358951192 0.0000000000 0.8134777307 0.4962540416 78.1406666662 0.0567092582 0.0055650334
-0.4753084769 -0.5253262376 0.0000000000 0.7988486968 -0.4807306634 96.3162462293 0.0550216087 0.0050038485
1.1158051727 1.0657333868 0.0000000000 1.2335207371 0.1493713150 -250.1699439641 0.0551450010 0.0050732149
1.1161244597 -1.0549587496 0.0000000000 1.1835061433 -0.1824800537 -195.9233445816 0.0554642871 0.0057014214
-1.0022478220 1.0672805390 0.0000000000 0.9181865155 0.1915208126 91.9110592265 0.0584123501 0.0066203675
-1.0062705800 -1.0548439185 0.0000000000 0.9096424498 -0.1858614637 101.1603376288 0.0543895912 0.0058162538
4.2526615455 3.3047171821 0.0000000000 1.0863612302 -0.0555086346 -66.7311980456 0.0526615455 0.0047171821
4.2499204209 -3.2952230322 0.0000000000 1.0879708578 0.0687407938 -73.1140576895 0.0499204209 0.0047769678
20.0000000000 4.7000000000 0.0000000000 1.0000275633 -0.0038254752 0.0042827325 0.0000000000 0.0000000000
20.0000000000 -4.7000000000 0.0000000000 1.0000957814 0.0038447222 0.0047874126 0.0000000000 0.0000000000
-10.0000000000 15.0000000000 0.0000000000 1.0000000000 0.0000000000 2.2884283270 0.0000000000 0.0000000000
20.0000000000 15.0000000000 0.0000000000 1.0009633136 0.0000000000 -0.0041999473 0.0000000000 0.0000000000
20.0000000000 -15.0000000000 0.0000000000 1.0010749186 0.0000000000 -0.0040246223 0.0000000000 0.0000000000
-10.0000000000 -15.0000000000 0.0000000000 1.0000000000 0.0000000000 4.2871956293 0.0000000000 0.0000000000
0.4216356943 -0.3352132807 0.0000000000 0.0000000000 0.0000000000 -212.0185021272 0.0551097582 0.0048730880
0.4340956200 -0.3212706174 0.0000000000 0.0000000000 0.0000000000 -211.0865529851 0.0551097582 0.0048730880
0.4460254996 -0.3068718127 0.0000000000 0.0000000000 0.0000000000 -210.0830335332 0.0551097582 0.0048730880
0.4574086483 -0.2920370045 0.0000000000 0.0000000000 0.0000000000 -209.1987187589 0.0551097582 0.0048730880
0.4682291455 -0.2767869408 0.0000000000 0.0000000000 0.0000000000 -208.3126546333 0.0551097582 0.0048730880
0.4784718580 -0.2611429500 0.0000000000 0.0000000000 0.0000000000 -207.4498255240 0.0551097582 0.0048730880
0.4881224602 -0.2451269118 0.0000000000 0.0000000000 0.0000000000 -206.5792189766 0.0551097582 0.0048730880
0.4971674551 -0.2287612259 0.0000000000 0.0000000000 0.0000000000 -205.7074142996 0.0551097582 0.0048730880
0.5055941923 -0.2120687813 0.0000000000 0.0000000000 0.0000000000 -204.8370474962 0.0551097582 0.0048730880
0.5133908862 -0.1950729239 0.0000000000 0.0000000000 0.0000000000 -203.9863726453 0.0551097582 0.0048730880
0.5205466326 -0.1777974239 0.0000000000 0.0000000000 0.0000000000 -203.1793894747 0.0551097582 0.0048730880
0.5270514234 -0.1602664427 0.0000000000 0.0000000000 0.0000000000 -202.4501525380 0.0551097582 0.0048730880
0.5328961612 -0.1425044990 0.0000000000 0.0000000000 0.0000000000 -201.8347584754 0.0551097582 0.0048730880
0.5380726714 -0.1245364343 0.0000000000 0.0000000000 0.0000000000 -201.3853962797 0.0551097582 0.0048730880
0.5425737143 -0.1063873788 0.0000000000 0.0000000000 0.0000000000 -201.1125153825 0.0551097582 0.0048730880
0.5463929948 -0.0880827154 0.0000000000 0.0000000000 0.0000000000 -201.1740708560 0.0551097582 0.0048730880
0.5495251713 -0.0696480449 0.0000000000 0.0000000000 0.0000000000 -201.2095102459 0.0551097582 0.0048730880
0.5519658632 -0.0511091499 0.0000000000 0.0000000000 0.0000000000 -202.4645841982 0.0551097582 0.0048730880
0.5537116568 -0.0324919586 0.0000000000 0.0000000000 0.0000000000 -202.8773247032 0.0551097582 0.0048730880
0.5547601106 -0.0138225090 0.0000000000 0.0000000000 0.0000000000 -204.1442130980 0.0551097582 0.0048730880
0.5551097582 0.0048730882 0.0000000000 0.0000000000 0.0000000000 -205.6906007504 0.0551097582 0.0048730880
0.5547601106 0.0235686853 0.0000000000 0.0000000000 0.0000000000 -207.5425161586 0.0551097582 0.0048730880
0.5537116568 0.0422381350 0.0000000000 0.0000000000 0.0000000000 -209.6662763996 0.0551097582 0.0048730880
0.5519658631 0.0608553262 0.0000000000 0.0000000000 0.0000000000 -211.9941148417 0.0551097582 0.0048730880
0.5495251713 0.0793942212 0.0000000000 0.0000000000 0.0000000000 -214.4699520031 0.0551097582 0.0048730880
0.5463929948 0.0978288917 0.0000000000 0.0000000000 0.0000000000 -217.0402100546 0.0551097582 0.0048730880
0.5425737142 0.1161335551 0.0000000000 0.0000000000 0.0000000000 -219.6334013108 0.0551097582 0.0048730880
0.5380726713 0.1342826107 0.0000000000 0.0000000000 0.0000000000 -222.1886131352 0.0551097582 0.0048730880
0.5328961610 0.1522506753 0.0000000000 0.0000000000 0.0000000000 -224.6466552792 0.0551097582 0.0048730880
0.5270514233 0.1700126191 0.0000000000 0.0000000000 0.0000000000 -226.9580147897 0.0551097582 0.0048730880
0.5205466325 0.1875436003 0.0000000000 0.0000000000 0.0000000000 -229.0809386964 0.0551097582 0.0048730880
0.5133908861 0.2048191002 0.0000000000 0.0000000000 0.0000000000 -230.9882266543 0.0551097582 0.0048730880
0.5055941921 0.2218149576 0.0000000000 0.0000000000 0.0000000000 -232.6584673363 0.0551097582 0.0048730880
0.4971674549 0.2385074022 0.0000000000 0.0000000000 0.0000000000 -234.0924216646 0.0551097582 0.0048730880
0.4881224600 0.2548730881 0.0000000000 0.0000000000 0.0000000000 -235.2837996352 0.0551097582 0.0048730880
0.4784718578 0.2708891263 0.0000000000 0.0000000000 0.0000000000 -236.2690545303 0.0551097582 0.0048730880
0.4682291453 0.2865331171 0.0000000000 0.0000000000 0.0000000000 -237.0388388035 0.0551097582 0.0048730880
0.4574086480 0.3017831808 0.0000000000 0.0000000000 0.0000000000 -237.6947638386 0.0551097582 0.0048730880
0.4460254994 0.3166179890 0.0000000000 0.0000000000 0.0000000000 -238.1646616768 0.0551097582 0.0048730880
0.4340956197 0.3310167937 0.0000000000 0.0000000000 0.0000000000 -238.6926706766 0.0551097582 0.0048730880
0.4216356941 0.3449594569 0.0000000000 0.0000000000 0.0000000000 -239.0825722937 0.0551097582 0.0048730880
0.3937505440 0.3727350433 0.0000000000 0.0000000000 0.0000000000 -241.0888733024 0.0551097582 0.0048730880
0.3782593771 0.3864151221 0.0000000000 0.0000000000 0.0000000000 -241.2599514833 0.0551097582 0.0048730880
0.3622161145 0.3994433427 0.0000000000 0.0000000000 0.0000000000 -243.2978899146 0.0551097582 0.0048730880
0.3456481658 0.4117974466 0.0000000000 0.0000000000 0.0000000000 -244.9541827101 0.0551097582 0.0048730880
0.3285838372 0.4234563271 0.0000000000 0.0000000000 0.0000000000 -247.3928041167 0.0551097582 0.0048730880
0.3110522827 0.4344000652 0.0000000000 0.0000000000 0.0000000000 -250.3682235256 0.0551097582 0.0048730880
0.2930834546 0.4446099636 0.0000000000 0.0000000000 0.0000000000 -253.9630712533 0.0551097582 0.0048730880
0.2747080525 0.4540685790 0.0000000000 0.0000000000 0.0000000000 -258.2248158399 0.0551097582 0.0048730880
0.2559574704 0.4627597513 0.0000000000 0.0000000000 0.0000000000 -263.1735138712 0.0551097582 0.0048730880
0.2368637434 0.4706686320 0.0000000000 0.0000000000 0.0000000000 -268.8527695243 0.0551097582 0.0048730880
0.2174594927 0.4777817089 0.0000000000 0.0000000000 0.0000000000 -275.2793487771 0.0551097582 0.0048730880
0.1977778702 0.4840868292 0.0000000000 0.0000000000 0.0000000000 -282.4646440648 0.0551097582 0.0048730880
0.1778525017 0.4895732210 0.0000000000 0.0000000000 0.0000000000 -290.3876446727 0.0551097582 0.0048730880
0.1577174292 0.4942315107 0.0000000000 0.0000000000 0.0000000000 -298.9968775189 0.0551097582 0.0048730880
0.1374070532 0.4980537397 0.0000000000 0.0000000000 0.0000000000 -308.1975323139 0.0551097582 0.0048730880
0.1169560737 0.5010333779 0.0000000000 0.0000000000 0.0000000000 -317.8492924576 0.0551097582 0.0048730880
0.0963994308 0.5031653345 0.0000000000 0.0000000000 0.0000000000 -327.7610279278 0.0551097582 0.0048730880
0.0757722452 0.5044459672 0.0000000000 0.0000000000 0.0000000000 -337.6908807956 0.0551097582 0.0048730880
0.0551097581 0.5048730880 0.0000000000 0.0000000000 0.0000000000 -347.3479402245 0.0551097582 0.0048730880
0.0344472710 0.5044459672 0.0000000000 0.0000000000 0.0000000000 -356.3981588103 0.0551097582 0.0048730880
0.0138200853 0.5031653345 0.0000000000 0.0000000000 0.0000000000 -364.4731179034 0.0551097582 0.0048730880
-0.0067365576 0.5010333778 0.0000000000 0.0000000000 0.0000000000 -371.1818884262 0.0551097582 0.0048730880
-0.0271875371 0.4980537397 0.0000000000 0.0000000000 0.0000000000 -376.1248639538 0.0551097582 0.0048730880
-0.0474979130 0.4942315106 0.0000000000 0.0000000000 0.0000000000 -378.9087999842 0.0551097582 0.0048730880
-0.0676329855 0.4895732209 0.0000000000 0.0000000000 0.0000000000 -379.1619093205 0.0551097582 0.0048730880
-0.0875583541 0.4840868292 0.0000000000 0.0000000000 0.0000000000 -376.5480651738 0.0551097582 0.0048730880
-0.1072399765 0.4777817088 0.0000000000 0.0000000000 0.0000000000 -370.7792447943 0.0551097582 0.0048730880
-0.1266442272 0.4706686320 0.0000000000 0.0000000000 0.0000000000 -361.6256238586 0.0551097582 0.0048730880
-0.1457379543 0.4627597513 0.0000000000 0.0000000000 0.0000000000 -348.9229788719 0.0551097582 0.0048730880
-0.1644885364 0.4540685789 0.0000000000 0.0000000000 0.0000000000 -332.5773181134 0.0551097582 0.0048730880
-0.1828639384 0.4446099635 0.0000000000 0.0000000000 0.0000000000 -312.5668626663 0.0551097582 0.0048730880
-0.2008327665 0.4344000651 0.0000000000 0.0000000000 0.0000000000 -288.9416418018 0.0551097582 0.0048730880
-0.2183643210 0.4234563270 0.0000000000 0.0000000000 0.0000000000 -261.8210400313 0.0551097582 0.0048730880
-0.2354286496 0.4117974465 0.0000000000 0.0000000000 0.0000000000 -231.3896549679 0.0551097582 0.0048730880
-0.2519965983 0.3994433426 0.0000000000 0.0000000000 0.0000000000 -197.8918147864 0.0551097582 0.0048730880
-0.2680398609 0.3864151220 0.0000000000 0.0000000000 0.0000000000 -161.6250832970 0.0551097582 0.0048730880
-0.2835310277 0.3727350432 0.0000000000 0.0000000000 0.0000000000 -122.9330625340 0.0551097582 0.0048730880
-0.3127521973 0.3435138737 0.0000000000 0.0000000000 0.0000000000 -39.8319899828 0.0551097582 0.0048730880
-0.3264322760 0.3280227068 0.0000000000 0.0000000000 0.0000000000 3.7285320514 0.0551097582 0.0048730880
-0.3394604966 0.3119794442 0.0000000000 0.0000000000 0.0000000000 48.0322278650 0.0551097582 0.0048730880
-0.3518146005 0.2954114955 0.0000000000 0.0000000000 0.0000000000 92.6186711741 0.0551097582 0.0048730880
-0.3634734810 0.2783471669 0.0000000000 0.0000000000 0.0000000000 137.0249195345 0.0551097582 0.0048730880
-0.3744172191 0.2608156124 0.0000000000 0.0000000000 0.0000000000 180.7913488858 0.0551097582 0.0048730880
-0.3846271175 0.2428467843 0.0000000000 0.0000000000 0.0000000000 223.4669905973 0.0551097582 0.0048730880
-0.3940857328 0.2244713822 0.0000000000 0.0000000000 0.0000000000 264.6144158264 0.0551097582 0.0048730880
-0.4027769052 0.2057208001 0.0000000000 0.0000000000 0.0000000000 303.8142174965 0.0551097582 0.0048730880
-0.4106857859 0.1866270731 0.0000000000 0.0000000000 0.0000000000 340.6691203783 0.0551097582 0.0048730880
-0.4177988627 0.1672228224 0.0000000000 0.0000000000 0.0000000000 374.8077497528 0.0551097582 0.0048730880
-0.4241039831 0.1475411999 0.0000000000 0.0000000000 0.0000000000 405.8880496723 0.0551097582 0.0048730880
-0.4295903748 0.1276158314 0.0000000000 0.0000000000 0.0000000000 433.6003828750 0.0551097582 0.0048730880
-0.4342486645 0.1074807589 0.0000000000 0.0000000000 0.0000000000 457.6702443517 0.0551097582 0.0048730880
-0.4380708935 0.0871703829 0.0000000000 0.0000000000 0.0000000000 477.8607019420 0.0551097582 0.0048730880
-0.4410505317 0.0667194034 0.0000000000 0.0000000000 0.0000000000 493.9743309002 0.0551097582 0.0048730880
-0.4431824883 0.0461627605 0.0000000000 0.0000000000 0.0000000000 505.8550682716 0.0551097582 0.0048730880
-0.4444631210 0.0255355749 0.0000000000 0.0000000000 0.0000000000 513.3891778940 0.0551097582 0.0048730880
-0.4448902418 0.0048730878 0.0000000000 0.0000000000 0.0000000000 516.5068350426 0.0551097582 0.0048730880
-0.4444631210 -0.0157893994 0.0000000000 0.0000000000 0.0000000000 515.1815202489 0.0551097582 0.0048730880
-0.4431824883 -0.0364165850 0.0000000000 0.0000000000 0.0000000000 509.4324373276 0.0551097582 0.0048730880
-0.4410505317 -0.0569732279 0.0000000000 0.0000000000 0.0000000000 499.3203135460 0.0551097582 0.0048730880
-0.4380708935 -0.0774242074 0.0000000000 0.0000000000 0.0000000000 484.9543642938 0.0551097582 0.0048730880
-0.4342486644 -0.0977345833 0.0000000000 0.0000000000 0.0000000000 466.4776982609 0.0551097582 0.0048730880
-0.4295903747 -0.1178696558 0.0000000000 0.0000000000 0.0000000000 444.0912805345 0.0551097582 0.0048730880
-0.4241039830 -0.1377950244 0.0000000000 0.0000000000 0.0000000000 418.0061248029 0.0551097582 0.0048730880
-0.4177988626 -0.1574766468 0.0000000000 0.0000000000 0.0000000000 388.5260823986 0.0551097582 0.0048730880
-0.4106857858 -0.1768808975 0.0000000000 0.0000000000 0.0000000000 355.8899638171 0.0551097582 0.0048730880
-0.4027769050 -0.1959746246 0.0000000000 0.0000000000 0.0000000000 320.5548136637 0.0551097582 0.0048730880
-0.3940857327 -0.2147252067 0.0000000000 0.0000000000 0.0000000000 282.6654731352 0.0551097582 0.0048730880
-0.3846271173 -0.2331006088 0.0000000000 0.0000000000 0.0000000000 243.0286270574 0.0551097582 0.0048730880
-0.3744172189 -0.2510694368 0.0000000000 0.0000000000 0.0000000000 201.2833366416 0.0551097582 0.0048730880
-0.3634734808 -0.2686009913 0.0000000000 0.0000000000 0.0000000000 159.3460075769 0.0551097582 0.0048730880
-0.3518146003 -0.2856653199 0.0000000000 0.0000000000 0.0000000000 114.7943483309 0.0551097582 0.0048730880
-0.3394604964 -0.3022332686 0.0000000000 0.0000000000 0.0000000000 73.8509463998 0.0551097582 0.0048730880
-0.3264322758 -0.3182765311 0.0000000000 0.0000000000 0.0000000000 25.8148124135 0.0551097582 0.0048730880
-0.3127521970 -0.3337676980 0.0000000000 0.0000000000 0.0000000000 18.2212673594 0.0551097582 0.0048730880
-0.2835310274 -0.3629888675 0.0000000000 0.0000000000 0.0000000000 11.3892193888 0.0551097582 0.0048730880
-0.2680398605 -0.3766689463 0.0000000000 0.0000000000 0.0000000000 -230.4242145209 0.0551097582 0.0048730880
-0.2519965979 -0.3896971669 0.0000000000 0.0000000000 0.0000000000 -224.1236520819 0.0551097582 0.0048730880
-0.2354286493 -0.4020512708 0.0000000000 0.0000000000 0.0000000000 -216.4691850918 0.0551097582 0.0048730880
-0.2183643206 -0.4137101513 0.0000000000 0.0000000000 0.0000000000 -230.0445627349 0.0551097582 0.0048730880
-0.2008327661 -0.4246538893 0.0000000000 0.0000000000 0.0000000000 -261.5618107994 0.0551097582 0.0048730880
-0.1828639381 -0.4348637878 0.0000000000 0.0000000000 0.0000000000 -283.6672775331 0.0551097582 0.0048730880
-0.1644885360 -0.4443224031 0.0000000000 0.0000000000 0.0000000000 -303.9691366221 0.0551097582 0.0048730880
-0.1457379539 -0.4530135755 0.0000000000 0.0000000000 0.0000000000 -320.2296239512 0.0551097582 0.0048730880
-0.1266442268 -0.4609224562 0.0000000000 0.0000000000 0.0000000000 -333.0271209818 0.0551097582 0.0048730880
-0.1072399761 -0.4680355330 0.0000000000 0.0000000000 0.0000000000 -342.3029024390 0.0551097582 0.0048730880
-0.0875583537 -0.4743406533 0.0000000000 0.0000000000 0.0000000000 -348.2365538408 0.0551097582 0.0048730880
-0.0676329851 -0.4798270451 0.0000000000 0.0000000000 0.0000000000 -351.0468046939 0.0551097582 0.0048730880
-0.0474979126 -0.4844853347 0.0000000000 0.0000000000 0.0000000000 -351.0100137216 0.0551097582 0.0048730880
-0.0271875367 -0.4883075638 0.0000000000 0.0000000000 0.0000000000 -348.4586997650 0.0551097582 0.0048730880
-0.0067365572 -0.4912872019 0.0000000000 0.0000000000 0.0000000000 -343.7576730564 0.0551097582 0.0048730880
0.0138200858 -0.4934191586 0.0000000000 0.0000000000 0.0000000000 -337.2978329208 0.0551097582 0.0048730880
0.0344472714 -0.4946997912 0.0000000000 0.0000000000 0.0000000000 -329.4756659114 0.0551097582 0.0048730880
0.0551097585 -0.4951269120 0.0000000000 0.0000000000 0.0000000000 -320.6808938427 0.0551097582 0.0048730880
0.0757722456 -0.4946997912 0.0000000000 0.0000000000 0.0000000000 -311.2805089427 0.0551097582 0.0048730880
0.0963994312 -0.4934191585 0.0000000000 0.0000000000 0.0000000000 -301.6076233234 0.0551097582 0.0048730880
0.1169560741 -0.4912872019 0.0000000000 0.0000000000 0.0000000000 -291.9517770968 0.0551097582 0.0048730880
0.1374070536 -0.4883075637 0.0000000000 0.0000000000 0.0000000000 -282.5535153210 0.0551097582 0.0048730880
0.1577174296 -0.4844853346 0.0000000000 0.0000000000 0.0000000000 -273.6021703644 0.0551097582 0.0048730880
0.1778525021 -0.4798270449 0.0000000000 0.0000000000 0.0000000000 -265.2370392702 0.0551097582 0.0048730880
0.1977778706 -0.4743406532 0.0000000000 0.0000000000 0.0000000000 -257.5510819739 0.0551097582 0.0048730880
0.2174594931 -0.4680355328 0.0000000000 0.0000000000 0.0000000000 -250.5955522343 0.0551097582 0.0048730880
0.2368637438 -0.4609224559 0.0000000000 0.0000000000 0.0000000000 -244.3859984042 0.0551097582 0.0048730880
0.2559574708 -0.4530135752 0.0000000000 0.0000000000 0.0000000000 -238.9066680979 0.0551097582 0.0048730880
0.2747080529 -0.4443224028 0.0000000000 0.0000000000 0.0000000000 -234.1194380231 0.0551097582 0.0048730880
0.2930834550 -0.4348637875 0.0000000000 0.0000000000 0.0000000000 -229.9651980071 0.0551097582 0.0048730880
0.3110522830 -0.4246538890 0.0000000000 0.0000000000 0.0000000000 -226.3829802448 0.0551097582 0.0048730880
0.3285838375 -0.4137101510 0.0000000000 0.0000000000 0.0000000000 -223.2918962974 0.0551097582 0.0048730880
0.3456481662 -0.4020512705 0.0000000000 0.0000000000 0.0000000000 -220.6502918029 0.0551097582 0.0048730880
0.3622161148 -0.3896971665 0.0000000000 0.0000000000 0.0000000000 -218.3441931867 0.0551097582 0.0048730880
0.3782593774 -0.3766689459 0.0000000000 0.0000000000 0.0000000000 -216.4365301632 0.0551097582 0.0048730880
0.3937505443 -0.3629888671 0.0000000000 0.0000000000 0.0000000000 -214.6244286551 0.0551097582 0.0048730880
0.6062437543 -0.5045686390 0.0000000000 0.0205800326 -0.0434754411 -208.1700421916 0.0564548501 0.0055609139
0.6248595223 -0.4836316380 0.0000000000 0.0011570048 -0.0452682653 -207.9525605113 0.0563807296 0.0055839201
0.6426841519 -0.4620078388 0.0000000000 -0.0129981719 -0.0473708818 -207.7722873275 0.0563105398 0.0056095122
0.6596852298 -0.4397294282 0.0000000000 -0.0232263363 -0.0494652105 -207.6338894907 0.0562368947 0.0056357106
0.6758365059 -0.4168290307 0.0000000000 -0.0307924460 -0.0512328255 -207.5374405482 0.0561574248 0.0056610125
0.6911147127 -0.3933396301 0.0000000000 -0.0367850277 -0.0523765469 -207.4795768228 0.0560715630 0.0056844269
0.7054985780 -0.3692947146 0.0000000000 -0.0420505501 -0.0526414666 -207.4555511871 0.0559795249 0.0057052850
0.7189684484 -0.3447283391 0.0000000000 -0.0471717022 -0.0518297914 -207.4619074443 0.0558819031 0.0057231317
0.7315061269 -0.3196751404 0.0000000000 -0.0524846358 -0.0498071933 -207.4988272385 0.0557794758 0.0057376635
0.7430948022 -0.2941703294 0.0000000000 -0.0581213069 -0.0465015227 -207.5717310803 0.0556731102 0.0057486884
0.7537190240 -0.2682496698 0.0000000000 -0.0640615256 -0.0418964312 -207.6919929566 0.0555637124 0.0057560981
0.7633646992 -0.2419494466 0.0000000000 -0.0701830051 -0.0360227265 -207.8767746262 0.0554522013 0.0057598495
0.7720190957 -0.2153064263 0.0000000000 -0.0763031427 -0.0289496498 -208.1480475229 0.0553394913 0.0057599541
0.7796708488 -0.1883578136 0.0000000000 -0.0822108520 -0.0207772978 -208.5309121126 0.0552264790 0.0057564699
0.7863099657 -0.1611412033 0.0000000000 -0.0876894842 -0.0116305574 -209.0513716857 0.0551140314 0.0057494968
0.7919278315 -0.1336945325 0.0000000000 -0.0925328962 -0.0016543489 -209.7337656549 0.0550029765 0.0057391725
0.7965172145 -0.1060560311 0.0000000000 -0.0965566794 0.0089902720 -210.5981046346 0.0548940947 0.0057256682
0.8000722723 -0.0782641730 0.0000000000 -0.0996060584 0.0201296125 -211.6575671789 0.0547881149 0.0057091838
0.8025885582 -0.0503576267 0.0000000000 -0.1015614127 0.0315807760 -212.9164114298 0.0546857102 0.0056899432
0.8040630262 -0.0223752064 0.0000000000 -0.1023419391 0.0431551964 -214.3685223280 0.0545874976 0.0056681890
0.8044940367 0.0056441771 0.0000000000 -0.1019077113 0.0546622937 -215.9967578564 0.0544940367 0.0056441768
0.8038813596 0.0336615665 0.0000000000 -0.1002602679 0.0659131648 -217.7731814728 0.0544058311 0.0056181705
0.8022261781 0.0616380081 0.0000000000 -0.0974418244 0.0767241668 -219.6601816090 0.0543233302 0.0055904376
0.7995310910 0.0895346030 0.0000000000 -0.0935332062 0.0869202299 -221.6123938101 0.0542469336 0.0055612457
0.7958001169 0.1173125588 0.0000000000 -0.0886506166 0.0963377362 -223.5792648925 0.0541769972 0.0055308589
0.7910386967 0.1449332415 0.0000000000 -0.0829413562 0.1048268321 -225.5080395834 0.0541138418 0.0054995359
0.7852536976 0.1723582284 0.0000000000 -0.0765785850 0.1122530963 -227.3469142259 0.0540577635 0.0054675277
0.7784534147 0.1995493603 0.0000000000 -0.0697551249 0.1184985854 -229.0480926205 0.0540090450 0.0054350762
0.7706475702 0.2264687957 0.0000000000 -0.0626761015 0.1234624095 -230.5704953467 0.0539679659 0.0054024147
0.7618473086 0.2530790656 0.0000000000 -0.0555498927 0.1270611555 -231.8819122903 0.0539348110 0.0053697689
0.7520651849 0.2793431298 0.0000000000 -0.0485763564 0.1292296415 -232.9604442657 0.0539098735 0.0053373613
0.7413151432 0.3052244370 0.0000000000 -0.0419307050 0.1299226249 -233.7951519979 0.0538934513 0.0053054185
0.7296124822 0.3306869855 0.0000000000 -0.0357408034 0.1291181592 -234.3859209586 0.0538858313 0.0052741810
0.7169738013 0.3556953856 0.0000000000 -0.0300554431 0.1268232586 -234.7426590944 0.0538872562 0.0052439143
0.7034169238 0.3802149178 0.0000000000 -0.0248018478 0.1230823400 -234.8840588434 0.0538978710 0.0052149177
0.6889607981 0.4042115798 0.0000000000 -0.0197330399 0.1179884745 -234.8362411302 0.0539176487 0.0051875223
0.6736253886 0.4276521164 0.0000000000 -0.0143701956 0.1116966648 -234.6316018592 0.0539463079 0.0051620727
0.6574315742 0.4505040312 0.0000000000 -0.0079512675 0.1044371125 -234.3080574276 0.0539832394 0.0051388919
0.6404010472 0.4727355931 0.0000000000 0.0005970384 0.0965249298 -233.9086142685 0.0540274354 0.0051182416
0.6225560888 0.4943158533 0.0000000000 0.0126447254 0.0883617037 -233.4808273795 0.0540772965 0.0051002947
0.6039187602 0.5152147796 0.0000000000 0.0297851731 0.0804247070 -233.0722081637 0.0541298564 0.0050852262
0.5622069048 0.5568349059 0.0000000000 0.0900858226 0.0669444669 -232.5346044478 0.0542457262 0.0050419728
0.5390441199 0.5773283592 0.0000000000 0.1385779163 0.0630378342 -232.5343170158 0.0543196916 0.0050153080
0.5150621758 0.5968485851 0.0000000000 0.2002059957 0.0622221082 -232.7950738964 0.0544026413 0.0049932030
0.4903019781 0.6153620889 0.0000000000 0.2749960872 0.0650729900 -233.3584641634 0.0544943666 0.0049755509
0.4648048259 0.6328370383 0.0000000000 0.3617604181 0.0719966618 -234.2563868960 0.0545937074 0.0049621795
0.4386130643 0.6492431803 0.0000000000 0.4580376321 0.0831573421 -235.5084288960 0.0546992776 0.0049527145
0.4117702716 0.6645520238 0.0000000000 0.5602298903 0.0984058154 -237.1113268113 0.0548097269 0.0049467103
0.3843212470 0.6787369898 0.0000000000 0.6639721324 0.1172476611 -239.0207312026 0.0549238054 0.0049437533
0.3563119353 0.6917735023 0.0000000000 0.7646903384 0.1388821792 -241.1349315597 0.0550403669 0.0049435073
0.3277893376 0.7036390258 0.0000000000 0.8582207950 0.1623130898 -243.2949965052 0.0551583598 0.0049457097
0.2988014272 0.7143130790 0.0000000000 0.9413294419 0.1865015370 -245.3063378303 0.0552768254 0.0049501477
0.2693970715 0.7237772446 0.0000000000 1.0120090161 0.2105170955 -246.9711242078 0.0553949035 0.0049566328
0.2396259532 0.7320151835 0.0000000000 1.0695154778 0.2336477604 -248.1155234616 0.0555118379 0.0049649840
0.2095384874 0.7390126536 0.0000000000 1.1141876221 0.2554494770 -248.6028154399 0.0556269808 0.0049750196
0.1791857322 0.7447575332 0.0000000000 1.1471404297 0.2757376437 -248.3329206343 0.0557397897 0.0049865556
0.1486192918 0.7492398455 0.0000000000 1.1699271980 0.2945374738 -247.2335844842 0.0558498185 0.0049994107
0.1178912126 0.7524517859 0.0000000000 1.1842419275 0.3120147048 -245.2486191653 0.0559567036 0.0050134162
0.0870538762 0.7543877467 0.0000000000 1.1917001882 0.3284054487 -242.3270328376 0.0560601457 0.0050284279
0.0561598889 0.7550443394 0.0000000000 1.1937069323 0.3439576497 -238.4151984233 0.0561598891 0.0050443394
0.0252619700 0.7544204111 0.0000000000 1.1913997405 0.3588897486 -233.4528434895 0.0562557009 0.0050610923
-0.0055871582 0.7525170523 0.0000000000 1.1856466809 0.3733667042 -227.3726328557 0.0563473510 0.0050786825
-0.0363348806 0.7493375954 0.0000000000 1.1770769847 0.3874902920 -220.1025011842 0.0564345930 0.0050971606
-0.0669287960 0.7448876032 0.0000000000 1.1661266109 0.4012994149 -211.5696674083 0.0565171469 0.0051166257
-0.0973168220 0.7391748476 0.0000000000 1.1530863607 0.4147763796 -201.7053382249 0.0565946848 0.0051372136
-0.1274472965 0.7322092811 0.0000000000 1.1381454591 0.4278559957 -190.4493483661 0.0566668191 0.0051590817
-0.1572690751 0.7240030021 0.0000000000 1.1214274981 0.4404354054 -177.7542659029 0.0567330932 0.0051823903
-0.1867316252 0.7145702151 0.0000000000 1.1030181739 0.4523834550 -163.5887313563 0.0567929769 0.0052072839
-0.2157851143 0.7039271888 0.0000000000 1.0829855998 0.4635490618 -147.9399678809 0.0568458638 0.0052338728
-0.2443804961 0.6920922100 0.0000000000 1.0613945134 0.4737684291 -130.8154976070 0.0568910726 0.0052622151
-0.2724695939 0.6790855367 0.0000000000 1.0383157582 0.4828711698 -112.2441433200 0.0569278479 0.0052923004
-0.3000051865 0.6649293462 0.0000000000 1.0138322522 0.4906854816 -92.2764046379 0.0569553584 0.0053240329
-0.3269411056 0.6496476793 0.0000000000 0.9880424067 0.4970425298 -70.9842878647 0.0569726814 0.0053572137
-0.3532323661 0.6332663750 0.0000000000 0.9610617150 0.5017801636 -48.4606495518 0.0569787527 0.0053915164
-0.3788353825 0.6158129836 0.0000000000 0.9330230014 0.5047460350 -24.8180624293 0.0569722292 0.0054264458
-0.4037084232 0.5973166332 0.0000000000 0.9040756221 0.5058000876 -0.1871748233 0.0569511115 0.0054612513
-0.4278128123 0.5778078271 0.0000000000 0.8743835553 0.5048159544 25.2860263732 0.0569116163 0.0054947760
-0.4511168719 0.5573184609 0.0000000000 0.8441221550 0.5016793171 51.4445277596 0.0568443070 0.0055255281
-0.4950649319 0.5135684042 0.0000000000 0.7827671358 0.4886730758 105.0008782573 0.0567280013 0.0056072257
-0.5156306255 0.4903813233 0.0000000000 0.7520765273 0.4787158804 132.0091160795 0.0566824258 0.0056568950
-0.5352449183 0.4663612051 0.0000000000 0.7216410200 0.4663854122 158.9349526682 0.0566104639 0.0057016708
-0.5538649991 0.4415497258 0.0000000000 0.6916826198 0.4516892902 185.5644153245 0.0565215390 0.0057421145
-0.5714550970 0.4159893853 0.0000000000 0.6624217097 0.4346514407 211.6869803047 0.0564197618 0.0057782669
-0.5879828923 0.3897236960 0.0000000000 0.6340745131 0.4153170494 237.0953495722 0.0563075736 0.0058099094
-0.6034184889 0.3627973015 0.0000000000 0.6068519017 0.3937524034 261.5867281788 0.0561868246 0.0058367570
-0.6177341030 0.3352559906 0.0000000000 0.5809573609 0.3700444408 284.9647348390 0.0560591335 0.0058585492
-0.6309039773 0.3071466563 0.0000000000 0.5565850378 0.3442998310 307.0413744643 0.0559260178 0.0058750880
-0.6429043759 0.2785172309 0.0000000000 0.5339178719 0.3166438159 327.6389397253 0.0557889402 0.0058862533
-0.6537136110 0.2494166079 0.0000000000 0.5131258908 0.2872188499 346.5917748534 0.0556493203 0.0058920062
-0.6633120806 0.2198945560 0.0000000000 0.4943646924 0.2561830805 363.7478720947 0.0555085314 0.0058923881
-0.6716823078 0.1900016295 0.0000000000 0.4777741242 0.2237086996 378.9702847187 0.0553678917 0.0058875144
-0.6788089778 0.1597890750 0.0000000000 0.4634771557 0.1899801885 392.1383487154 0.0552286563 0.0058775686
-0.6846789671 0.1293087362 0.0000000000 0.4515789221 0.1551924760 403.1487087800 0.0550920105 0.0058627938
-0.6892813645 0.0986129569 0.0000000000 0.4421659090 0.1195490333 411.9161441432 0.0549590704 0.0058434838
-0.6926074830 0.0677544819 0.0000000000 0.4353052597 0.0832599374 418.3741901086 0.0548308868 0.0058199731
-0.6946508635 0.0367863550 0.0000000000 0.4310442135 0.0465399378 422.4755573150 0.0547084553 0.0057926246
-0.6954072729 0.0057618159 0.0000000000 0.4294097171 0.0096065588 424.1923609674 0.0545927271 0.0057618162
-0.6948746989 -0.0252658058 0.0000000000 0.4304082605 -0.0273217530 423.5161821244 0.0544846199 0.0057279252
-0.6930533431 -0.0562431964 0.0000000000 0.4340259583 -0.0640274324 420.4579752466 0.0543850266 0.0056913130
-0.6899456131 -0.0871171621 0.0000000000 0.4402288844 -0.1002955531 415.0478346126 0.0542948217 0.0056523116
-0.6855561111 -0.1178347310 0.0000000000 0.4489636517 -0.1359155527 407.3346287547 0.0542148664 0.0056112121
-0.6798916152 -0.1483432497 0.0000000000 0.4601581695 -0.1706829361 397.3854935239 0.0541460188 0.0055682572
-0.6729610490 -0.1785904762 0.0000000000 0.4737225082 -0.2044009500 385.2851772041 0.0540891504 0.0055236395
-0.6647754347 -0.2085246651 0.0000000000 0.4895498261 -0.2368822145 371.1352341970 0.0540451770 0.0054775034