 TITLE = "Tecplot data"
 VARIABLES = "X", "Y", "Z" "U", "V", "p", "dispX", "dispY"
 ZONE SOLUTIONTIME=67.900000, NODES=26114 , ELEMENTS=25916, DATAPACKING=POINT, ZONETYPE=FEQUADRILATERAL
0.4729678991 1.1225601298 0.0000000000 0.0000000000 0.0000000000 -1875.7091646732 0.1194145085 0.7690067392
0.4729678994 0.4154533489 0.0000000000 0.0000000000 0.0000000000 -178.1157912307 0.1194145085 0.7690067392
-0.2341388822 1.1225601297 0.0000000000 0.0000000000 0.0000000000 40.3130996765 0.1194145085 0.7690067392
-0.2341388819 0.4154533484 0.0000000000 0.0000000000 0.0000000000 520.1053177799 0.1194145085 0.7690067392
0.6482864230 1.2989660852 0.0000000000 1.0021547354 -0.3890052808 -872.4318827831 0.1179563371 0.7686359993
0.6585258527 0.2664095510 0.0000000000 0.1063040336 0.2226098609 -192.8359610591 0.1281957664 0.7967396365
-0.3959517664 1.3219566026 0.0000000000 1.1721357293 0.6627361921 188.0105000721 0.1343783197 0.7916265168
-0.4178315508 0.2516415423 0.0000000000 0.2362972684 -0.1618077789 519.9803970424 0.1124985348 0.7819716285
1.1925707322 1.8399693456 0.0000000000 1.0493734351 0.0548270474 -365.1287420321 0.1319105606 0.7793091737
1.1746249025 -0.2692168708 0.0000000000 -0.0064841790 -0.0055322625 -249.2034555892 0.1139647300 0.7914433003
-0.9013435647 1.9048224574 0.0000000000 1.0394721397 0.2510019730 158.7868899686 0.1593166074 0.8441622859
-0.9635576393 -0.2347336241 0.0000000000 0.6384456118 -0.1438468885 404.2767412199 0.0971025319 0.8259265482
4.3885122347 3.9841559524 0.0000000000 1.0925788876 -0.0360456844 -64.6623315471 0.1885122347 0.6841559524
4.2351348040 -2.6177405303 0.0000000000 1.0823263300 0.0953780223 -35.3692559822 0.0351348040 0.6822594697
20.0000000000 4.7000000000 0.0000000000 1.0504785570 0.0550161697 0.6025906909 0.0000000000 0.0000000000
20.0000000000 -4.7000000000 0.0000000000 1.0608713135 -0.0174903836 -0.2103247175 0.0000000000 0.0000000000
-10.0000000000 15.0000000000 0.0000000000 1.0000000000 0.0000000000 58.3738665435 0.0000000000 0.0000000000
20.0000000000 15.0000000000 0.0000000000 1.0431427950 0.0000000000 0.0111031107 0.0000000000 0.0000000000
20.0000000000 -15.0000000000 0.0000000000 1.0433729587 0.0000000000 0.0241204063 0.0000000000 0.0000000000
-10.0000000000 -15.0000000000 0.0000000000 1.0000000000 0.0000000000 107.6363150450 0.0000000000 0.0000000000
0.4859404447 0.4289203706 0.0000000000 0.0000000000 0.0000000000 -189.4584517411 0.1194145085 0.7690067392
0.4984003703 0.4428630338 0.0000000000 0.0000000000 0.0000000000 -198.9056753323 0.1194145085 0.7690067392
0.5103302500 0.4572618385 0.0000000000 0.0000000000 0.0000000000 -208.0639516471 0.1194145085 0.7690067392
0.5217133986 0.4720966467 0.0000000000 0.0000000000 0.0000000000 -219.3659538900 0.1194145085 0.7690067392
0.5325338959 0.4873467104 0.0000000000 0.0000000000 0.0000000000 -227.6512539299 0.1194145085 0.7690067392
0.5427766083 0.5029907012 0.0000000000 0.0000000000 0.0000000000 -236.8850045547 0.1194145085 0.7690067392
0.5524272106 0.5190067395 0.0000000000 0.0000000000 0.0000000000 -246.5218762718 0.1194145085 0.7690067392
0.5614722054 0.5353724253 0.0000000000 0.0000000000 0.0000000000 -256.3896040532 0.1194145085 0.7690067392
0.5698989426 0.5520648699 0.0000000000 0.0000000000 0.0000000000 -266.8278470920 0.1194145085 0.7690067392
0.5776956366 0.5690607273 0.0000000000 0.0000000000 0.0000000000 -277.8513623237 0.1194145085 0.7690067392
0.5848513829 0.5863362273 0.0000000000 0.0000000000 0.0000000000 -290.0333192750 0.1194145085 0.7690067392
0.5913561738 0.6038672085 0.0000000000 0.0000000000 0.0000000000 -303.2946329106 0.1194145085 0.7690067392
0.5972009115 0.6216291522 0.0000000000 0.0000000000 0.0000000000 -318.2688063561 0.1194145085 0.7690067392
0.6023774217 0.6395972169 0.0000000000 0.0000000000 0.0000000000 -334.9991259477 0.1194145085 0.7690067392
0.6068784647 0.6577462725 0.0000000000 0.0000000000 0.0000000000 -353.9174398160 0.1194145085 0.7690067392
0.6106977452 0.6760509358 0.0000000000 0.0000000000 0.0000000000 -375.3734276654 0.1194145085 0.7690067392
0.6138299217 0.6944856063 0.0000000000 0.0000000000 0.0000000000 -399.4535331987 0.1194145085 0.7690067392
0.6162706135 0.7130245014 0.0000000000 0.0000000000 0.0000000000 -426.6340047114 0.1194145085 0.7690067392
0.6180164071 0.7316416926 0.0000000000 0.0000000000 0.0000000000 -456.9816805238 0.1194145085 0.7690067392
0.6190648609 0.7503111423 0.0000000000 0.0000000000 0.0000000000 -490.7558952095 0.1194145085 0.7690067392
0.6194145085 0.7690067394 0.0000000000 0.0000000000 0.0000000000 -528.0439089186 0.1194145085 0.7690067392
0.6190648609 0.7877023365 0.0000000000 0.0000000000 0.0000000000 -568.9745714871 0.1194145085 0.7690067392
0.6180164071 0.8063717862 0.0000000000 0.0000000000 0.0000000000 -613.5442857181 0.1194145085 0.7690067392
0.6162706134 0.8249889774 0.0000000000 0.0000000000 0.0000000000 -661.8066512961 0.1194145085 0.7690067392
0.6138299216 0.8435278725 0.0000000000 0.0000000000 0.0000000000 -713.6619870599 0.1194145085 0.7690067392
0.6106977451 0.8619625429 0.0000000000 0.0000000000 0.0000000000 -769.0712335691 0.1194145085 0.7690067392
0.6068784646 0.8802672063 0.0000000000 0.0000000000 0.0000000000 -827.6493096635 0.1194145085 0.7690067392
0.6023774216 0.8984162619 0.0000000000 0.0000000000 0.0000000000 -889.9648218022 0.1194145085 0.7690067392
0.5972009114 0.9163843265 0.0000000000 0.0000000000 0.0000000000 -954.0501124347 0.1194145085 0.7690067392
0.5913561736 0.9341462703 0.0000000000 0.0000000000 0.0000000000 -1022.3578172816 0.1194145085 0.7690067392
0.5848513828 0.9516772515 0.0000000000 0.0000000000 0.0000000000 -1090.7393323943 0.1194145085 0.7690067392
0.5776956364 0.9689527515 0.0000000000 0.0000000000 0.0000000000 -1163.3624771967 0.1194145085 0.7690067392
0.5698989424 0.9859486089 0.0000000000 0.0000000000 0.0000000000 -1234.6267658231 0.1194145085 0.7690067392
0.5614722052 1.0026410534 0.0000000000 0.0000000000 0.0000000000 -1309.3912490175 0.1194145085 0.7690067392
0.5524272104 1.0190067393 0.0000000000 0.0000000000 0.0000000000 -1381.1375719747 0.1194145085 0.7690067392
0.5427766081 1.0350227775 0.0000000000 0.0000000000 0.0000000000 -1458.4360440998 0.1194145085 0.7690067392
0.5325338956 1.0506667683 0.0000000000 0.0000000000 0.0000000000 -1525.9291916127 0.1194145085 0.7690067392
0.5217133984 1.0659168320 0.0000000000 0.0000000000 0.0000000000 -1605.8260935172 0.1194145085 0.7690067392
0.5103302497 1.0807516402 0.0000000000 0.0000000000 0.0000000000 -1659.2293192372 0.1194145085 0.7690067392
0.4984003701 1.0951504449 0.0000000000 0.0000000000 0.0000000000 -1762.4477166276 0.1194145085 0.7690067392
0.4859404444 1.1090931081 0.0000000000 0.0000000000 0.0000000000 -1770.3809080048 0.1194145085 0.7690067392
0.4580552943 1.1368686946 0.0000000000 0.0000000000 0.0000000000 -1922.2324011295 0.1194145085 0.7690067392
0.4425641274 1.1505487733 0.0000000000 0.0000000000 0.0000000000 -1993.4321710012 0.1194145085 0.7690067392
0.4265208648 1.1635769939 0.0000000000 0.0000000000 0.0000000000 -2040.3157768300 0.1194145085 0.7690067392
0.4099529162 1.1759310979 0.0000000000 0.0000000000 0.0000000000 -2092.8665443667 0.1194145085 0.7690067392
0.3928885875 1.1875899784 0.0000000000 0.0000000000 0.0000000000 -2132.1165666894 0.1194145085 0.7690067392
0.3753570330 1.1985337164 0.0000000000 0.0000000000 0.0000000000 -2166.4846866927 0.1194145085 0.7690067392
0.3573882050 1.2087436148 0.0000000000 0.0000000000 0.0000000000 -2193.1858984503 0.1194145085 0.7690067392
0.3390128029 1.2182022302 0.0000000000 0.0000000000 0.0000000000 -2214.9676982940 0.1194145085 0.7690067392
0.3202622208 1.2268934026 0.0000000000 0.0000000000 0.0000000000 -2226.2528217297 0.1194145085 0.7690067392
0.3011684937 1.2348022832 0.0000000000 0.0000000000 0.0000000000 -2230.6250673741 0.1194145085 0.7690067392
0.2817642430 1.2419153601 0.0000000000 0.0000000000 0.0000000000 -2228.6780757147 0.1194145085 0.7690067392
0.2620826206 1.2482204804 0.0000000000 0.0000000000 0.0000000000 -2210.9599991998 0.1194145085 0.7690067392
0.2421572520 1.2537068722 0.0000000000 0.0000000000 0.0000000000 -2195.8462618255 0.1194145085 0.7690067392
0.2220221795 1.2583651619 0.0000000000 0.0000000000 0.0000000000 -2160.4684795128 0.1194145085 0.7690067392
0.2017118036 1.2621873909 0.0000000000 0.0000000000 0.0000000000 -2125.8178041140 0.1194145085 0.7690067392
0.1812608241 1.2651670291 0.0000000000 0.0000000000 0.0000000000 -2077.7491725300 0.1194145085 0.7690067392
0.1607041812 1.2672989857 0.0000000000 0.0000000000 0.0000000000 -2022.6095291764 0.1194145085 0.7690067392
0.1400769955 1.2685796184 0.0000000000 0.0000000000 0.0000000000 -1960.9890077350 0.1194145085 0.7690067392
0.1194145084 1.2690067392 0.0000000000 0.0000000000 0.0000000000 -1890.6042098063 0.1194145085 0.7690067392
0.0987520213 1.2685796184 0.0000000000 0.0000000000 0.0000000000 -1814.7391716426 0.1194145085 0.7690067392
0.0781248357 1.2672989857 0.0000000000 0.0000000000 0.0000000000 -1730.5101795163 0.1194145085 0.7690067392
0.0575681928 1.2651670290 0.0000000000 0.0000000000 0.0000000000 -1645.2328672306 0.1194145085 0.7690067392
0.0371172133 1.2621873909 0.0000000000 0.0000000000 0.0000000000 -1549.1609392542 0.1194145085 0.7690067392
0.0168068373 1.2583651618 0.0000000000 0.0000000000 0.0000000000 -1449.9473873659 0.1194145085 0.7690067392
-0.0033282352 1.2537068721 0.0000000000 0.0000000000 0.0000000000 -1351.5307403928 0.1194145085 0.7690067392
-0.0232536037 1.2482204804 0.0000000000 0.0000000000 0.0000000000 -1241.1789278843 0.1194145085 0.7690067392
-0.0429352262 1.2419153600 0.0000000000 0.0000000000 0.0000000000 -1137.5488481018 0.1194145085 0.7690067392
-0.0623394769 1.2348022832 0.0000000000 0.0000000000 0.0000000000 -1025.5731692415 0.1194145085 0.7690067392
-0.0814332039 1.2268934025 0.0000000000 0.0000000000 0.0000000000 -915.4065532025 0.1194145085 0.7690067392
-0.1001837860 1.2182022301 0.0000000000 0.0000000000 0.0000000000 -801.1895172728 0.1194145085 0.7690067392
-0.1185591881 1.2087436147 0.0000000000 0.0000000000 0.0000000000 -694.1319824090 0.1194145085 0.7690067392
-0.1365280161 1.1985337163 0.0000000000 0.0000000000 0.0000000000 -574.2129260367 0.1194145085 0.7690067392
-0.1540595707 1.1875899782 0.0000000000 0.0000000000 0.0000000000 -470.2561666292 0.1194145085 0.7690067392
-0.1711238993 1.1759310977 0.0000000000 0.0000000000 0.0000000000 -356.3898095305 0.1194145085 0.7690067392
-0.1876918479 1.1635769938 0.0000000000 0.0000000000 0.0000000000 -246.6747609702 0.1194145085 0.7690067392
-0.2037351105 1.1505487732 0.0000000000 0.0000000000 0.0000000000 -141.8366869409 0.1194145085 0.7690067392
-0.2192262774 1.1368686944 0.0000000000 0.0000000000 0.0000000000 -30.6598185699 0.1194145085 0.7690067392
-0.2484474469 1.1076475249 0.0000000000 0.0000000000 0.0000000000 162.5614288935 0.1194145085 0.7690067392
-0.2621275257 1.0921563580 0.0000000000 0.0000000000 0.0000000000 320.9943304793 0.1194145085 0.7690067392
-0.2751557463 1.0761130954 0.0000000000 0.0000000000 0.0000000000 356.3368624183 0.1194145085 0.7690067392
-0.2875098502 1.0595451468 0.0000000000 0.0000000000 0.0000000000 460.8240542710 0.1194145085 0.7690067392
-0.2991687307 1.0424808181 0.0000000000 0.0000000000 0.0000000000 536.7033352357 0.1194145085 0.7690067392
-0.3101124687 1.0249492636 0.0000000000 0.0000000000 0.0000000000 611.9984777239 0.1194145085 0.7690067392
-0.3203223672 1.0069804356 0.0000000000 0.0000000000 0.0000000000 678.6586594728 0.1194145085 0.7690067392
-0.3297809825 0.9886050335 0.0000000000 0.0000000000 0.0000000000 738.7928965860 0.1194145085 0.7690067392
-0.3384721549 0.9698544514 0.0000000000 0.0000000000 0.0000000000 791.7233410778 0.1194145085 0.7690067392
-0.3463810356 0.9507607243 0.0000000000 0.0000000000 0.0000000000 837.6355965770 0.1194145085 0.7690067392
-0.3534941124 0.9313564736 0.0000000000 0.0000000000 0.0000000000 876.5330559497 0.1194145085 0.7690067392
-0.3597992328 0.9116748511 0.0000000000 0.0000000000 0.0000000000 908.5527870064 0.1194145085 0.7690067392
-0.3652856245 0.8917494826 0.0000000000 0.0000000000 0.0000000000 933.8664955598 0.1194145085 0.7690067392
-0.3699439142 0.8716144101 0.0000000000 0.0000000000 0.0000000000 952.7150343187 0.1194145085 0.7690067392
-0.3737661432 0.8513040341 0.0000000000 0.0000000000 0.0000000000 965.3940461974 0.1194145085 0.7690067392
-0.3767457814 0.8308530546 0.0000000000 0.0000000000 0.0000000000 972.2568968479 0.1194145085 0.7690067392
-0.3788777380 0.8102964117 0.0000000000 0.0000000000 0.0000000000 973.7086172211 0.1194145085 0.7690067392
-0.3801583707 0.7896692261 0.0000000000 0.0000000000 0.0000000000 970.2010627584 0.1194145085 0.7690067392
-0.3805854915 0.7690067390 0.0000000000 0.0000000000 0.0000000000 962.2260796950 0.1194145085 0.7690067392
-0.3801583707 0.7483442519 0.0000000000 0.0000000000 0.0000000000 950.3038065762 0.1194145085 0.7690067392
-0.3788777380 0.7277170662 0.0000000000 0.0000000000 0.0000000000 934.9742934771 0.1194145085 0.7690067392
-0.3767457813 0.7071604233 0.0000000000 0.0000000000 0.0000000000 916.7735346002 0.1194145085 0.7690067392
-0.3737661431 0.6867094438 0.0000000000 0.0000000000 0.0000000000 896.2325374922 0.1194145085 0.7690067392
-0.3699439141 0.6663990679 0.0000000000 0.0000000000 0.0000000000 873.8258518088 0.1194145085 0.7690067392
-0.3652856244 0.6462639954 0.0000000000 0.0000000000 0.0000000000 850.0202386736 0.1194145085 0.7690067392
-0.3597992326 0.6263386269 0.0000000000 0.0000000000 0.0000000000 825.1328020598 0.1194145085 0.7690067392
-0.3534941123 0.6066570044 0.0000000000 0.0000000000 0.0000000000 799.5779159519 0.1194145085 0.7690067392
-0.3463810354 0.5872527537 0.0000000000 0.0000000000 0.0000000000 773.3698227118 0.1194145085 0.7690067392
-0.3384721547 0.5681590267 0.0000000000 0.0000000000 0.0000000000 747.0954652190 0.1194145085 0.7690067392
-0.3297809823 0.5494084446 0.0000000000 0.0000000000 0.0000000000 720.0654914130 0.1194145085 0.7690067392
-0.3203223670 0.5310330425 0.0000000000 0.0000000000 0.0000000000 693.8665036325 0.1194145085 0.7690067392
-0.3101124685 0.5130642144 0.0000000000 0.0000000000 0.0000000000 665.7497862049 0.1194145085 0.7690067392
-0.2991687305 0.4955326599 0.0000000000 0.0000000000 0.0000000000 640.7529529330 0.1194145085 0.7690067392
-0.2875098500 0.4784683313 0.0000000000 0.0000000000 0.0000000000 610.4455283046 0.1194145085 0.7690067392
-0.2751557460 0.4619003827 0.0000000000 0.0000000000 0.0000000000 587.6088533741 0.1194145085 0.7690067392
-0.2621275254 0.4458571201 0.0000000000 0.0000000000 0.0000000000 555.3105162080 0.1194145085 0.7690067392
-0.2484474466 0.4303659532 0.0000000000 0.0000000000 0.0000000000 522.9812481731 0.1194145085 0.7690067392
-0.2192262771 0.4011447837 0.0000000000 0.0000000000 0.0000000000 475.7814998656 0.1194145085 0.7690067392
-0.2037351102 0.3874647049 0.0000000000 0.0000000000 0.0000000000 460.3903146577 0.1194145085 0.7690067392
-0.1876918476 0.3744364843 0.0000000000 0.0000000000 0.0000000000 422.7997038093 0.1194145085 0.7690067392
-0.1711238990 0.3620823804 0.0000000000 0.0000000000 0.0000000000 404.6732259001 0.1194145085 0.7690067392
-0.1540595703 0.3504234999 0.0000000000 0.0000000000 0.0000000000 377.9047423215 0.1194145085 0.7690067392
-0.1365280158 0.3394797619 0.0000000000 0.0000000000 0.0000000000 356.1608964576 0.1194145085 0.7690067392
-0.1185591878 0.3292698635 0.0000000000 0.0000000000 0.0000000000 332.2571328707 0.1194145085 0.7690067392
-0.1001837857 0.3198112481 0.0000000000 0.0000000000 0.0000000000 310.0058234201 0.1194145085 0.7690067392
-0.0814332035 0.3111200758 0.0000000000 0.0000000000 0.0000000000 287.5339721305 0.1194145085 0.7690067392
-0.0623394765 0.3032111951 0.0000000000 0.0000000000 0.0000000000 265.8193732189 0.1194145085 0.7690067392
-0.0429352258 0.2960981183 0.0000000000 0.0000000000 0.0000000000 244.3943315644 0.1194145085 0.7690067392
-0.0232536033 0.2897929979 0.0000000000 0.0000000000 0.0000000000 223.5027082540 0.1194145085 0.7690067392
-0.0033282348 0.2843066062 0.0000000000 0.0000000000 0.0000000000 203.0306116717 0.1194145085 0.7690067392
0.0168068377 0.2796483165 0.0000000000 0.0000000000 0.0000000000 183.0327815975 0.1194145085 0.7690067392
0.0371172137 0.2758260874 0.0000000000 0.0000000000 0.0000000000 163.4828013499 0.1194145085 0.7690067392
0.0575681932 0.2728464493 0.0000000000 0.0000000000 0.0000000000 144.3885844424 0.1194145085 0.7690067392
0.0781248361 0.2707144927 0.0000000000 0.0000000000 0.0000000000 125.7398160216 0.1194145085 0.7690067392
0.0987520217 0.2694338600 0.0000000000 0.0000000000 0.0000000000 107.5326185329 0.1194145085 0.7690067392
0.1194145088 0.2690067392 0.0000000000 0.0000000000 0.0000000000 89.7571376732 0.1194145085 0.7690067392
0.1400769960 0.2694338600 0.0000000000 0.0000000000 0.0000000000 72.4072015165 0.1194145085 0.7690067392
0.1607041816 0.2707144927 0.0000000000 0.0000000000 0.0000000000 55.4623023831 0.1194145085 0.7690067392
0.1812608245 0.2728464494 0.0000000000 0.0000000000 0.0000000000 38.9318129659 0.1194145085 0.7690067392
0.2017118040 0.2758260875 0.0000000000 0.0000000000 0.0000000000 22.7991850722 0.1194145085 0.7690067392
0.2220221799 0.2796483166 0.0000000000 0.0000000000 0.0000000000 7.0460053220 0.1194145085 0.7690067392
0.2421572524 0.2843066063 0.0000000000 0.0000000000 0.0000000000 -8.3261250158 0.1194145085 0.7690067392
0.2620826210 0.2897929981 0.0000000000 0.0000000000 0.0000000000 -23.3581541533 0.1194145085 0.7690067392
0.2817642434 0.2960981184 0.0000000000 0.0000000000 0.0000000000 -38.0308349229 0.1194145085 0.7690067392
0.3011684941 0.3032111953 0.0000000000 0.0000000000 0.0000000000 -52.3509049633 0.1194145085 0.7690067392
0.3202622212 0.3111200760 0.0000000000 0.0000000000 0.0000000000 -66.3800527156 0.1194145085 0.7690067392
0.3390128032 0.3198112484 0.0000000000 0.0000000000 0.0000000000 -80.0356192909 0.1194145085 0.7690067392
0.3573882053 0.3292698638 0.0000000000 0.0000000000 0.0000000000 -93.4646843231 0.1194145085 0.7690067392
0.3753570334 0.3394797622 0.0000000000 0.0000000000 0.0000000000 -106.4749489675 0.1194145085 0.7690067392
0.3928885879 0.3504235003 0.0000000000 0.0000000000 0.0000000000 -119.3750404691 0.1194145085 0.7690067392
0.4099529165 0.3620823808 0.0000000000 0.0000000000 0.0000000000 -131.6541651572 0.1194145085 0.7690067392
0.4265208651 0.3744364847 0.0000000000 0.0000000000 0.0000000000 -144.2940455090 0.1194145085 0.7690067392
0.4425641277 0.3874647053 0.0000000000 0.0000000000 0.0000000000 -155.4578183924 0.1194145085 0.7690067392
0.4580552946 0.4011447841 0.0000000000 0.0000000000 0.0000000000 -168.2234330401 0.1194145085 0.7690067392
0.6780109364 0.2862541865 0.0000000000 0.1040491603 0.2313804487 -201.5950378592 0.1282220322 0.7963837394
0.6964482596 0.3076476505 0.0000000000 0.1030359700 0.2332264675 -210.3066926548 0.1279694669 0.7968632086
0.7140445903 0.3299445327 0.0000000000 0.1038624194 0.2285654031 -218.9929715365 0.1276709782 0.7975618837
0.7307893811 0.3529440893 0.0000000000 0.1068487036 0.2183640033 -227.6444755149 0.1273410460 0.7983092281
0.7466656591 0.3765456340 0.0000000000 0.1121005624 0.2040233612 -236.2610661913 0.1269865781 0.7990356771
0.7616588396 0.4006844412 0.0000000000 0.1195388537 0.1870474633 -244.8463743245 0.1266156900 0.7997084982
0.7757549334 0.4253113456 0.0000000000 0.1289542143 0.1687676369 -253.4125187208 0.1262358803 0.8003113452
0.7889393594 0.4503845634 0.0000000000 0.1400670081 0.1501806627 -261.9860618526 0.1258528141 0.8008360342
0.8011967871 0.4758658300 0.0000000000 0.1525838657 0.1318996045 -270.6106573700 0.1254701360 0.8012786339
0.8125115125 0.5017183947 0.0000000000 0.1662405183 0.1141909672 -279.3452417054 0.1250898204 0.8016374126
0.8228679790 0.5279059453 0.0000000000 0.1808262344 0.0970607394 -288.2592813808 0.1247126674 0.8019117132
0.8322512315 0.5543920314 0.0000000000 0.1961904354 0.0803541146 -297.4273852675 0.1243387336 0.8021013275
0.8406472427 0.5811397578 0.0000000000 0.2122362480 0.0638435270 -306.9251115319 0.1239676383 0.8022061382
0.8480431323 0.6081116220 0.0000000000 0.2289076126 0.0472921035 -316.8267118955 0.1235987625 0.8022259055
0.8544273216 0.6352694353 0.0000000000 0.2461759620 0.0304906990 -327.2045655695 0.1232313873 0.8021601354
0.8597896586 0.6625742962 0.0000000000 0.2640302156 0.0132738959 -338.1295189214 0.1228648036 0.8020080012
0.8641215337 0.6899866085 0.0000000000 0.2824711844 -0.0044769080 -349.6712943003 0.1224984140 0.8017683078
0.8674159870 0.7174661373 0.0000000000 0.3015095221 -0.0228360084 -361.8983831929 0.1221318295 0.8014394941
0.8696678060 0.7449721054 0.0000000000 0.3211655349 -0.0418367917 -374.8771747140 0.1217649581 0.8010196753
0.8708736056 0.7724633298 0.0000000000 0.3414692942 -0.0614740884 -388.6703405595 0.1213980770 0.8005067252
0.8710318860 0.7998983993 0.0000000000 0.3624600906 -0.0817054920 -403.3346532895 0.1210318860 0.7998983990
0.8701430688 0.8272358896 0.0000000000 0.3841848843 -0.1024525341 -418.9184771721 0.1206675402 0.7991924936
0.8682095152 0.8544346132 0.0000000000 0.4066958232 -0.1236026817 -435.4591812345 0.1203066673 0.7983870427
0.8652355308 0.8814538922 0.0000000000 0.4300470887 -0.1450127875 -452.9807119794 0.1199513734 0.7974805348
0.8612273620 0.9082538441 0.0000000000 0.4542913793 -0.1665141886 -471.4915391886 0.1196042424 0.7964721442
0.8561931828 0.9347956642 0.0000000000 0.4794763252 -0.1879192916 -490.9831521234 0.1192683280 0.7953619586
0.8501430665 0.9610418891 0.0000000000 0.5056410985 -0.2090292265 -511.4292332251 0.1189471324 0.7941511884
0.8430889312 0.9869566263 0.0000000000 0.5328134555 -0.2296420127 -532.7855735018 0.1186445615 0.7928423422
0.8350444459 1.0125057357 0.0000000000 0.5610074137 -0.2495606115 -554.9907237798 0.1183648416 0.7914393547
0.8260248814 1.0376569524 0.0000000000 0.5902217172 -0.2686002411 -577.9673077215 0.1181123837 0.7899476557
0.8160468920 1.0623799383 0.0000000000 0.6204391880 -0.2865943915 -601.6238661440 0.1178915806 0.7883741698
0.8051282157 1.0866462524 0.0000000000 0.6516269829 -0.3033990904 -625.8570662200 0.1177065239 0.7867272340
0.7932872878 1.1104292236 0.0000000000 0.6837377012 -0.3188951399 -650.5540950578 0.1175606370 0.7850164191
0.7805427841 1.1337037061 0.0000000000 0.7167112077 -0.3329882303 -675.5950511282 0.1174562390 0.7832522348
0.7669131592 1.1564457003 0.0000000000 0.7504769662 -0.3456070111 -700.8551161406 0.1173941065 0.7814457002
0.7524163304 1.1786318552 0.0000000000 0.7849566115 -0.3566993201 -726.2061986744 0.1173731810 0.7796077977
0.7370697279 1.2002389653 0.0000000000 0.8200664644 -0.3662268401 -751.5176311318 0.1173906472 0.7777489217
0.7208908844 1.2212437698 0.0000000000 0.8557197829 -0.3741585231 -776.6554683093 0.1174425497 0.7758786305
0.7038984201 1.2416236836 0.0000000000 0.8918290120 -0.3804632645 -801.4805901381 0.1175248083 0.7740063321
0.6861128734 1.2613599875 0.0000000000 0.9283091649 -0.3851012248 -825.8433831307 0.1176340811 0.7721444290
0.6675552584 1.2804476001 0.0000000000 0.9650907955 -0.3880135973 -849.5906343190 0.1177663546 0.7703180467
0.6264153870 1.3183566450 0.0000000000 1.0426166794 -0.3880226817 -896.1439975591 0.1184542084 0.7665637120
0.6037475198 1.3371573816 0.0000000000 1.0831815113 -0.3843402478 -918.0931570225 0.1190230914 0.7648443304
0.5802753047 1.3551720153 0.0000000000 1.1235317020 -0.3781007946 -938.1512941890 0.1196157703 0.7633166332
0.5560391521 1.3723362102 0.0000000000 1.1634373434 -0.3692438145 -956.0564423577 0.1202315406 0.7619496722
0.5310789892 1.3886037233 0.0000000000 1.2026777980 -0.3577180329 -971.5493104942 0.1208678707 0.7607288646
0.5054377071 1.4039374327 0.0000000000 1.2410314778 -0.3434876117 -984.3741454848 0.1215239203 0.7596469669
0.4791603776 1.4183073619 0.0000000000 1.2782725675 -0.3265391744 -994.2829581612 0.1221998329 0.7587020484
0.4522932662 1.4316897798 0.0000000000 1.3141709877 -0.3068854940 -1001.0394075413 0.1228958247 0.7578965434
0.4248830821 1.4440658465 0.0000000000 1.3484935637 -0.2845684943 -1004.4240129856 0.1236115138 0.7572358515
0.3969766666 1.4554201364 0.0000000000 1.3810064069 -0.2596612568 -1004.2401194442 0.1243456888 0.7567268204
0.3686209873 1.4657394221 0.0000000000 1.4114784439 -0.2322688734 -1000.3199919120 0.1250963855 0.7563764908
0.3398632358 1.4750118086 0.0000000000 1.4396858920 -0.2025281853 -992.5306280804 0.1258610677 0.7561911967
0.3107508865 1.4832261459 0.0000000000 1.4654173589 -0.1706065035 -980.7789490745 0.1266367713 0.7561759464
0.2813316622 1.4903716386 0.0000000000 1.4884791351 -0.1366993026 -965.0159082106 0.1274201557 0.7563340045
0.2516534103 1.4964376237 0.0000000000 1.5087001503 -0.1010268418 -945.2389662352 0.1282074677 0.7566666461
0.2217639258 1.5014135174 0.0000000000 1.5259360485 -0.0638297684 -921.4924847958 0.1289944524 0.7571730826
0.1917107672 1.5052889228 0.0000000000 1.5400719433 -0.0253639578 -893.8659016846 0.1297762583 0.7578505530
0.1615411095 1.5080538649 0.0000000000 1.5510236548 0.0141049756 -862.4899584006 0.1305473790 0.7586945461
0.1313016581 1.5096990893 0.0000000000 1.5587375091 0.0543069979 -827.5315868886 0.1313016583 0.7596990893
0.1010386345 1.5102163485 0.0000000000 1.5631890166 0.0949723921 -789.1881995455 0.1320323654 0.7608570297
0.0707978215 1.5095986123 0.0000000000 1.5643808449 0.1358356883 -747.6820359174 0.1327323308 0.7621602425
0.0406246495 1.5078401677 0.0000000000 1.5623404640 0.1766387642 -703.2549745589 0.1333941231 0.7635997329
0.0105643016 1.5049366068 0.0000000000 1.5571177119 0.2171332399 -656.1639499806 0.1340102445 0.7651656293
-0.0193381797 1.5008847287 0.0000000000 1.5487823898 0.2570823304 -606.6769279134 0.1345733271 0.7668470948
-0.0490377919 1.4956823927 0.0000000000 1.5374219107 0.2962622910 -555.0693264223 0.1350763236 0.7686321932
-0.0784894816 1.4893283571 0.0000000000 1.5231390057 0.3344635237 -501.6207951548 0.1355126868 0.7705077453
-0.1076480596 1.4818221276 0.0000000000 1.5060495072 0.3714913650 -446.6123150040 0.1358765425 0.7724591964
-0.1364681234 1.4731638179 0.0000000000 1.4862802383 0.4071665682 -390.3236075125 0.1361628547 0.7744705020
-0.1649039911 1.4633540134 0.0000000000 1.4639670071 0.4413255204 -333.0308307834 0.1363675776 0.7765240185
-0.1929096606 1.4523936074 0.0000000000 1.4392526549 0.4738202809 -275.0045023865 0.1364877813 0.7786003711
-0.2204388193 1.4402835478 0.0000000000 1.4122850616 0.5045185740 -216.5075412939 0.1365217257 0.7806782345
-0.2474449489 1.4270243645 0.0000000000 1.3832149790 0.5333039086 -157.7932320369 0.1364688381 0.7827338988
-0.2738816163 1.4126151702 0.0000000000 1.3521934315 0.5600761468 -99.1026904254 0.1363295025 0.7847403116
-0.2997031658 1.3970513493 0.0000000000 1.3193678855 0.5847533465 -40.6605277027 0.1361044459 0.7866648115
-0.3248663802 1.3803186829 0.0000000000 1.2848754750 0.6072777833 17.3333042558 0.1357931545 0.7884633010
-0.3493343402 1.3623764018 0.0000000000 1.2488251801 0.6276329515 74.7337771932 0.1353900884 0.7900633508
-0.3730839173 1.3431011838 0.0000000000 1.2112743847 0.6459173282 131.4695370284 0.1348772616 0.7913082509
-0.4179865962 1.3027899854 0.0000000000 1.1336248053 0.6732044931 239.8897164754 0.1338063369 0.7948288069
-0.4390209993 1.2819303772 0.0000000000 1.0943254765 0.6822551211 290.6300662198 0.1332920520 0.7972059489
-0.4591514649 1.2599048238 0.0000000000 1.0544142706 0.6891187297 339.7671864084 0.1327039173 0.7992452894
-0.4783218004 1.2368653020 0.0000000000 1.0141067979 0.6936337525 387.0218207920 0.1320647377 0.8010576906
-0.4964850542 1.2128941102 0.0000000000 0.9735808907 0.6957522773 432.2059142626 0.1313898047 0.8026829919
-0.5136018266 1.1880523803 0.0000000000 0.9329984936 0.6954627821 475.1679312764 0.1306886393 0.8041385937
-0.5296376304 1.1623942690 0.0000000000 0.8925135103 0.6927726088 515.7768699674 0.1299676832 0.8054337245
-0.5445616383 1.1359716858 0.0000000000 0.8522754795 0.6877018038 553.9161356447 0.1292315982 0.8065742444
-0.5583461730 1.1088359842 0.0000000000 0.8124311484 0.6802809066 589.4813236101 0.1284838221 0.8075644160
-0.5709664791 1.0810385363 0.0000000000 0.7731251159 0.6705501697 622.3795673598 0.1277268371 0.8084075586
-0.5824005973 1.0526308644 0.0000000000 0.7344998475 0.6585594852 652.5296593870 0.1269623340 0.8091062628
-0.5926292671 1.0236646031 0.0000000000 0.6966952335 0.6443686715 679.8626010188 0.1261913448 0.8096624352
-0.6016358226 0.9941914117 0.0000000000 0.6598478000 0.6280479146 704.3224129332 0.1254143769 0.8100772966
-0.6094060640 0.9642628958 0.0000000000 0.6240896382 0.6096782210 725.8671092324 0.1246315701 0.8103513895
-0.6159280919 0.9339305642 0.0000000000 0.5895470802 0.5893517774 744.4697646430 0.1238428857 0.8104846218
-0.6211921048 0.9032458304 0.0000000000 0.5563391300 0.5671721338 760.1196044521 0.1230483300 0.8104763573
-0.6251901670 0.8722600598 0.0000000000 0.5245756723 0.5432541152 772.8230258862 0.1222482028 0.8103255510
-0.6279159709 0.8410246572 0.0000000000 0.4943555123 0.5177233511 782.6044285950 0.1214433479 0.8100309269
-0.6293646219 0.8095911903 0.0000000000 0.4657643530 0.4907153114 789.5067079461 0.1206353781 0.8095911906
-0.6295324804 0.7780115455 0.0000000000 0.4388728686 0.4623737822 793.5912694613 0.1198268383 0.8090052765
-0.6284170866 0.7463381157 0.0000000000 0.4137350735 0.4328488320 794.9374727384 0.1190212831 0.8082726251
-0.6260171787 0.7146240181 0.0000000000 0.3903871973 0.4022945127 793.6415080339 0.1182232560 0.8073934919
-0.6223328011 0.6829233415 0.0000000000 0.3688472332 0.3708667805 789.8148280643 0.1174381764 0.8063692845
-0.6173654772 0.6512914110 0.0000000000 0.3491152189 0.3387222904 783.5823466558 0.1166721567 0.8052029180
-0.6111184198 0.6197850581 0.0000000000 0.3311740844 0.3060185572 775.0806244936 0.1159317796 0.8038991738
-0.6035967504 0.5884628692 0.0000000000 0.3149906713 0.2729151152 764.4560874856 0.1152238613 0.8024650377
-0.5948077091 0.5573853840 0.0000000000 0.3005162689 0.2395733186 751.8630198052 0.1145552220 0.8009099862