 TITLE = "Tecplot data"
 VARIABLES = "X", "Y", "Z" "U", "V", "p", "dispX", "dispY"
 ZONE SOLUTIONTIME=19.900000, NODES=26114 , ELEMENTS=25916, DATAPACKING=POINT, ZONETYPE=FEQUADRILATERAL
0.3703031645 0.3604083596 0.0000000000 0.0000000000 0.0000000000 -233.8047316885 0.0167497739 0.0068549689
0.3703031648 -0.3466984214 0.0000000000 0.0000000000 0.0000000000 -203.8763226697 0.0167497739 0.0068549689
-0.3368036168 0.3604083594 0.0000000000 0.0000000000 0.0000000000 -94.7928761881 0.0167497739 0.0068549689
-0.3368036165 -0.3466984218 0.0000000000 0.0000000000 0.0000000000 -39.2324375548 0.0167497739 0.0068549689
0.5467994023 0.5372391600 0.0000000000 0.0800528688 0.0527472336 -226.9258857076 0.0164693165 0.0069090740
0.5475613263 -0.5230882919 0.0000000000 0.0456005614 -0.0366371088 -197.4021280098 0.0172312401 0.0072417936
-0.5130127014 0.5375450067 0.0000000000 0.8228915058 0.4906364402 74.8170734139 0.0173173846 0.0072149210
-0.5136547521 -0.5233455213 0.0000000000 0.8038802795 -0.4789090334 97.5495411429 0.0166753335 0.0069845649
1.0775086550 1.0676458902 0.0000000000 1.2010742865 0.1585838662 -226.1494103176 0.0168484833 0.0069857183
1.0774736435 -1.0534071891 0.0000000000 1.1880365551 -0.1982946257 -198.2651611055 0.0168134710 0.0072529819
-1.0426746094 1.0685518772 0.0000000000 0.9200028735 0.1867001654 89.7259968495 0.0179855627 0.0078917058
-1.0442763127 -1.0531297259 0.0000000000 0.9120475961 -0.1843637365 101.1495124101 0.0163838585 0.0075304465
4.2165328458 3.3062087796 0.0000000000 1.0854975159 -0.0590425560 -66.1252059880 0.0165328458 0.0062087796
4.2146550736 -3.2937874046 0.0000000000 1.0797636231 0.0671072020 -67.3590102940 0.0146550736 0.0062125954
20.0000000000 4.7000000000 0.0000000000 0.9997865648 -0.0035175643 0.0051136461 0.0000000000 0.0000000000
20.0000000000 -4.7000000000 0.0000000000 0.9998335231 0.0035221323 0.0057974254 0.0000000000 0.0000000000
-10.0000000000 15.0000000000 0.0000000000 1.0000000000 0.0000000000 2.2615732018 0.0000000000 0.0000000000
20.0000000000 15.0000000000 0.0000000000 1.0010056398 0.0000000000 -0.0034377240 0.0000000000 0.0000000000
20.0000000000 -15.0000000000 0.0000000000 1.0010769701 0.0000000000 -0.0032678542 0.0000000000 0.0000000000
-10.0000000000 -15.0000000000 0.0000000000 1.0000000000 0.0000000000 4.3838208886 0.0000000000 0.0000000000
0.3832757101 -0.3332313997 0.0000000000 0.0000000000 0.0000000000 -202.4130178519 0.0167497739 0.0068549689
0.3957356357 -0.3192887364 0.0000000000 0.0000000000 0.0000000000 -201.3921642045 0.0167497739 0.0068549689
0.4076655154 -0.3048899317 0.0000000000 0.0000000000 0.0000000000 -200.4462654634 0.0167497739 0.0068549689
0.4190486640 -0.2900551236 0.0000000000 0.0000000000 0.0000000000 -199.6852903033 0.0167497739 0.0068549689
0.4298691613 -0.2748050598 0.0000000000 0.0000000000 0.0000000000 -199.0049970982 0.0167497739 0.0068549689
0.4401118737 -0.2591610691 0.0000000000 0.0000000000 0.0000000000 -198.4003156452 0.0167497739 0.0068549689
0.4497624760 -0.2431450308 0.0000000000 0.0000000000 0.0000000000 -197.8291043150 0.0167497739 0.0068549689
0.4588074708 -0.2267793449 0.0000000000 0.0000000000 0.0000000000 -197.2777437165 0.0167497739 0.0068549689
0.4672342080 -0.2100869004 0.0000000000 0.0000000000 0.0000000000 -196.7331550820 0.0167497739 0.0068549689
0.4750309020 -0.1930910430 0.0000000000 0.0000000000 0.0000000000 -196.1965054765 0.0167497739 0.0068549689
0.4821866484 -0.1758155430 0.0000000000 0.0000000000 0.0000000000 -195.6766512531 0.0167497739 0.0068549689
0.4886914392 -0.1582845618 0.0000000000 0.0000000000 0.0000000000 -195.1921905218 0.0167497739 0.0068549689
0.4945361769 -0.1405226180 0.0000000000 0.0000000000 0.0000000000 -194.7687816469 0.0167497739 0.0068549689
0.4997126872 -0.1225545534 0.0000000000 0.0000000000 0.0000000000 -194.4380237323 0.0167497739 0.0068549689
0.5042137301 -0.1044054978 0.0000000000 0.0000000000 0.0000000000 -194.2349497541 0.0167497739 0.0068549689
0.5080330106 -0.0861008344 0.0000000000 0.0000000000 0.0000000000 -194.1956137163 0.0167497739 0.0068549689
0.5111651871 -0.0676661639 0.0000000000 0.0000000000 0.0000000000 -194.3542207332 0.0167497739 0.0068549689
0.5136058789 -0.0491272689 0.0000000000 0.0000000000 0.0000000000 -194.7403249241 0.0167497739 0.0068549689
0.5153516725 -0.0305100776 0.0000000000 0.0000000000 0.0000000000 -195.3761684465 0.0167497739 0.0068549689
0.5164001263 -0.0118406280 0.0000000000 0.0000000000 0.0000000000 -196.2744974020 0.0167497739 0.0068549689
0.5167497739 0.0068549691 0.0000000000 0.0000000000 0.0000000000 -197.4370321784 0.0167497739 0.0068549689
0.5164001263 0.0255505663 0.0000000000 0.0000000000 0.0000000000 -198.8538011141 0.0167497739 0.0068549689
0.5153516725 0.0442200159 0.0000000000 0.0000000000 0.0000000000 -200.5033769700 0.0167497739 0.0068549689
0.5136058789 0.0628372072 0.0000000000 0.0000000000 0.0000000000 -202.3540761174 0.0167497739 0.0068549689
0.5111651870 0.0813761022 0.0000000000 0.0000000000 0.0000000000 -204.3658802293 0.0167497739 0.0068549689
0.5080330105 0.0998107727 0.0000000000 0.0000000000 0.0000000000 -206.4931213056 0.0167497739 0.0068549689
0.5042137300 0.1181154361 0.0000000000 0.0000000000 0.0000000000 -208.6872433334 0.0167497739 0.0068549689
0.4997126870 0.1362644916 0.0000000000 0.0000000000 0.0000000000 -210.9001662450 0.0167497739 0.0068549689
0.4945361768 0.1542325563 0.0000000000 0.0000000000 0.0000000000 -213.0865296701 0.0167497739 0.0068549689
0.4886914390 0.1719945000 0.0000000000 0.0000000000 0.0000000000 -215.2072874050 0.0167497739 0.0068549689
0.4821866482 0.1895254812 0.0000000000 0.0000000000 0.0000000000 -217.2296543552 0.0167497739 0.0068549689
0.4750309018 0.2068009812 0.0000000000 0.0000000000 0.0000000000 -219.1322009002 0.0167497739 0.0068549689
0.4672342078 0.2237968386 0.0000000000 0.0000000000 0.0000000000 -220.8991635208 0.0167497739 0.0068549689
0.4588074706 0.2404892832 0.0000000000 0.0000000000 0.0000000000 -222.5328639904 0.0167497739 0.0068549689
0.4497624758 0.2568549690 0.0000000000 0.0000000000 0.0000000000 -224.0325479632 0.0167497739 0.0068549689
0.4401118735 0.2728710073 0.0000000000 0.0000000000 0.0000000000 -225.4326122820 0.0167497739 0.0068549689
0.4298691610 0.2885149980 0.0000000000 0.0000000000 0.0000000000 -226.7338203793 0.0167497739 0.0068549689
0.4190486638 0.3037650618 0.0000000000 0.0000000000 0.0000000000 -228.0247395385 0.0167497739 0.0068549689
0.4076655151 0.3185998699 0.0000000000 0.0000000000 0.0000000000 -229.2623845995 0.0167497739 0.0068549689
0.3957356355 0.3329986746 0.0000000000 0.0000000000 0.0000000000 -230.6588765372 0.0167497739 0.0068549689
0.3832757098 0.3469413379 0.0000000000 0.0000000000 0.0000000000 -231.9836552220 0.0167497739 0.0068549689
0.3553905597 0.3747169243 0.0000000000 0.0000000000 0.0000000000 -235.6470479800 0.0167497739 0.0068549689
0.3398993928 0.3883970031 0.0000000000 0.0000000000 0.0000000000 -238.1794474457 0.0167497739 0.0068549689
0.3238561302 0.4014252237 0.0000000000 0.0000000000 0.0000000000 -240.9256806693 0.0167497739 0.0068549689
0.3072881816 0.4137793276 0.0000000000 0.0000000000 0.0000000000 -244.2498169360 0.0167497739 0.0068549689
0.2902238529 0.4254382081 0.0000000000 0.0000000000 0.0000000000 -248.0423015937 0.0167497739 0.0068549689
0.2726922984 0.4363819462 0.0000000000 0.0000000000 0.0000000000 -252.4657582686 0.0167497739 0.0068549689
0.2547234704 0.4465918446 0.0000000000 0.0000000000 0.0000000000 -257.5368527987 0.0167497739 0.0068549689
0.2363480683 0.4560504599 0.0000000000 0.0000000000 0.0000000000 -263.3619696422 0.0167497739 0.0068549689
0.2175974862 0.4647416323 0.0000000000 0.0000000000 0.0000000000 -269.9961228081 0.0167497739 0.0068549689
0.1985037591 0.4726505130 0.0000000000 0.0000000000 0.0000000000 -277.5100661926 0.0167497739 0.0068549689
0.1790995085 0.4797635898 0.0000000000 0.0000000000 0.0000000000 -285.9368102658 0.0167497739 0.0068549689
0.1594178860 0.4860687102 0.0000000000 0.0000000000 0.0000000000 -295.2864657312 0.0167497739 0.0068549689
0.1394925174 0.4915551019 0.0000000000 0.0000000000 0.0000000000 -305.5243111333 0.0167497739 0.0068549689
0.1193574450 0.4962133916 0.0000000000 0.0000000000 0.0000000000 -316.5711328367 0.0167497739 0.0068549689
0.0990470690 0.5000356207 0.0000000000 0.0000000000 0.0000000000 -328.2925688165 0.0167497739 0.0068549689
0.0785960895 0.5030152588 0.0000000000 0.0000000000 0.0000000000 -340.4968370130 0.0167497739 0.0068549689
0.0580394466 0.5051472154 0.0000000000 0.0000000000 0.0000000000 -352.9316892340 0.0167497739 0.0068549689
0.0374122610 0.5064278481 0.0000000000 0.0000000000 0.0000000000 -365.2871365755 0.0167497739 0.0068549689
0.0167497738 0.5068549689 0.0000000000 0.0000000000 0.0000000000 -377.2011826130 0.0167497739 0.0068549689
-0.0039127133 0.5064278481 0.0000000000 0.0000000000 0.0000000000 -388.2700985966 0.0167497739 0.0068549689
-0.0245398989 0.5051472154 0.0000000000 0.0000000000 0.0000000000 -398.0617292682 0.0167497739 0.0068549689
-0.0450965418 0.5030152588 0.0000000000 0.0000000000 0.0000000000 -406.1313644170 0.0167497739 0.0068549689
-0.0655475213 0.5000356206 0.0000000000 0.0000000000 0.0000000000 -412.0387383624 0.0167497739 0.0068549689
-0.0858578973 0.4962133916 0.0000000000 0.0000000000 0.0000000000 -415.3650438034 0.0167497739 0.0068549689
-0.1059929697 0.4915551019 0.0000000000 0.0000000000 0.0000000000 -415.7287332493 0.0167497739 0.0068549689
-0.1259183383 0.4860687101 0.0000000000 0.0000000000 0.0000000000 -412.7992067679 0.0167497739 0.0068549689
-0.1455999608 0.4797635897 0.0000000000 0.0000000000 0.0000000000 -406.3077285110 0.0167497739 0.0068549689
-0.1650042115 0.4726505129 0.0000000000 0.0000000000 0.0000000000 -396.0552599111 0.0167497739 0.0068549689
-0.1840979385 0.4647416322 0.0000000000 0.0000000000 0.0000000000 -381.9171759733 0.0167497739 0.0068549689
-0.2028485206 0.4560504598 0.0000000000 0.0000000000 0.0000000000 -363.8450700753 0.0167497739 0.0068549689
-0.2212239227 0.4465918445 0.0000000000 0.0000000000 0.0000000000 -341.8660072910 0.0167497739 0.0068549689
-0.2391927507 0.4363819460 0.0000000000 0.0000000000 0.0000000000 -316.0796702122 0.0167497739 0.0068549689
-0.2567243052 0.4254382080 0.0000000000 0.0000000000 0.0000000000 -286.6538581033 0.0167497739 0.0068549689
-0.2737886339 0.4137793275 0.0000000000 0.0000000000 0.0000000000 -253.8187699182 0.0167497739 0.0068549689
-0.2903565825 0.4014252235 0.0000000000 0.0000000000 0.0000000000 -217.8604423974 0.0167497739 0.0068549689
-0.3063998451 0.3883970029 0.0000000000 0.0000000000 0.0000000000 -179.1136462754 0.0167497739 0.0068549689
-0.3218910120 0.3747169242 0.0000000000 0.0000000000 0.0000000000 -137.9544826295 0.0167497739 0.0068549689
-0.3511121815 0.3454957546 0.0000000000 0.0000000000 0.0000000000 -50.0651332470 0.0167497739 0.0068549689
-0.3647922603 0.3300045877 0.0000000000 0.0000000000 0.0000000000 -4.2267117175 0.0167497739 0.0068549689
-0.3778204809 0.3139613252 0.0000000000 0.0000000000 0.0000000000 42.2546731785 0.0167497739 0.0068549689
-0.3901745848 0.2973933765 0.0000000000 0.0000000000 0.0000000000 88.9055164257 0.0167497739 0.0068549689
-0.4018334653 0.2803290479 0.0000000000 0.0000000000 0.0000000000 135.2525142043 0.0167497739 0.0068549689
-0.4127772033 0.2627974933 0.0000000000 0.0000000000 0.0000000000 180.8280707943 0.0167497739 0.0068549689
-0.4229871017 0.2448286653 0.0000000000 0.0000000000 0.0000000000 225.1753451638 0.0167497739 0.0068549689
-0.4324457171 0.2264532632 0.0000000000 0.0000000000 0.0000000000 267.8528774419 0.0167497739 0.0068549689
-0.4411368895 0.2077026811 0.0000000000 0.0000000000 0.0000000000 308.4388364811 0.0167497739 0.0068549689
-0.4490457702 0.1886089540 0.0000000000 0.0000000000 0.0000000000 346.5349201884 0.0167497739 0.0068549689
-0.4561588470 0.1692047034 0.0000000000 0.0000000000 0.0000000000 381.7699283229 0.0167497739 0.0068549689
-0.4624639673 0.1495230809 0.0000000000 0.0000000000 0.0000000000 413.8030134768 0.0167497739 0.0068549689
-0.4679503591 0.1295977123 0.0000000000 0.0000000000 0.0000000000 442.3266116853 0.0167497739 0.0068549689
-0.4726086488 0.1094626398 0.0000000000 0.0000000000 0.0000000000 467.0690415810 0.0167497739 0.0068549689
-0.4764308778 0.0891522639 0.0000000000 0.0000000000 0.0000000000 487.7967750108 0.0167497739 0.0068549689
-0.4794105160 0.0687012844 0.0000000000 0.0000000000 0.0000000000 504.3163533723 0.0167497739 0.0068549689
-0.4815424726 0.0481446415 0.0000000000 0.0000000000 0.0000000000 516.4759810806 0.0167497739 0.0068549689
-0.4828231053 0.0275174559 0.0000000000 0.0000000000 0.0000000000 524.1667246633 0.0167497739 0.0068549689
-0.4832502261 0.0068549687 0.0000000000 0.0000000000 0.0000000000 527.3234442114 0.0167497739 0.0068549689
-0.4828231052 -0.0138075184 0.0000000000 0.0000000000 0.0000000000 525.9252169572 0.0167497739 0.0068549689
-0.4815424725 -0.0344347040 0.0000000000 0.0000000000 0.0000000000 519.9956990122 0.0167497739 0.0068549689
-0.4794105159 -0.0549913469 0.0000000000 0.0000000000 0.0000000000 509.6025964402 0.0167497739 0.0068549689
-0.4764308777 -0.0754423264 0.0000000000 0.0000000000 0.0000000000 494.8577796144 0.0167497739 0.0068549689
-0.4726086487 -0.0957527024 0.0000000000 0.0000000000 0.0000000000 475.9152022918 0.0167497739 0.0068549689
-0.4679503590 -0.1158877749 0.0000000000 0.0000000000 0.0000000000 452.9718621803 0.0167497739 0.0068549689
-0.4624639672 -0.1358131434 0.0000000000 0.0000000000 0.0000000000 426.2621397822 0.0167497739 0.0068549689
-0.4561588468 -0.1554947659 0.0000000000 0.0000000000 0.0000000000 396.0633225859 0.0167497739 0.0068549689
-0.4490457700 -0.1748990166 0.0000000000 0.0000000000 0.0000000000 362.6795016251 0.0167497739 0.0068549689
-0.4411368893 -0.1939927436 0.0000000000 0.0000000000 0.0000000000 326.4642494759 0.0167497739 0.0068549689
-0.4324457169 -0.2127433257 0.0000000000 0.0000000000 0.0000000000 287.7710845908 0.0167497739 0.0068549689
-0.4229871016 -0.2311187278 0.0000000000 0.0000000000 0.0000000000 247.0344522409 0.0167497739 0.0068549689
-0.4127772031 -0.2490875558 0.0000000000 0.0000000000 0.0000000000 204.6166096499 0.0167497739 0.0068549689
-0.4018334651 -0.2666191103 0.0000000000 0.0000000000 0.0000000000 161.0512219333 0.0167497739 0.0068549689
-0.3901745846 -0.2836834390 0.0000000000 0.0000000000 0.0000000000 116.7009258566 0.0167497739 0.0068549689
-0.3778204806 -0.3002513876 0.0000000000 0.0000000000 0.0000000000 71.9192997710 0.0167497739 0.0068549689
-0.3647922600 -0.3162946502 0.0000000000 0.0000000000 0.0000000000 28.7948751473 0.0167497739 0.0068549689
-0.3511121812 -0.3317858171 0.0000000000 0.0000000000 0.0000000000 -15.7264160029 0.0167497739 0.0068549689
-0.3218910117 -0.3610069866 0.0000000000 0.0000000000 0.0000000000 -175.6931810728 0.0167497739 0.0068549689
-0.3063998448 -0.3746870653 0.0000000000 0.0000000000 0.0000000000 -139.4863631091 0.0167497739 0.0068549689
-0.2903565822 -0.3877152859 0.0000000000 0.0000000000 0.0000000000 -176.4439691085 0.0167497739 0.0068549689
-0.2737886335 -0.4000693899 0.0000000000 0.0000000000 0.0000000000 -209.8903268806 0.0167497739 0.0068549689
-0.2567243049 -0.4117282703 0.0000000000 0.0000000000 0.0000000000 -241.0485830066 0.0167497739 0.0068549689
-0.2391927504 -0.4226720084 0.0000000000 0.0000000000 0.0000000000 -268.6506761493 0.0167497739 0.0068549689
-0.2212239223 -0.4328819068 0.0000000000 0.0000000000 0.0000000000 -292.8604924533 0.0167497739 0.0068549689
-0.2028485202 -0.4423405221 0.0000000000 0.0000000000 0.0000000000 -313.3381209664 0.0167497739 0.0068549689
-0.1840979381 -0.4510316945 0.0000000000 0.0000000000 0.0000000000 -330.1173332760 0.0167497739 0.0068549689
-0.1650042111 -0.4589405752 0.0000000000 0.0000000000 0.0000000000 -343.1337449096 0.0167497739 0.0068549689
-0.1455999604 -0.4660536520 0.0000000000 0.0000000000 0.0000000000 -352.4967875718 0.0167497739 0.0068549689
-0.1259183379 -0.4723587724 0.0000000000 0.0000000000 0.0000000000 -358.3325435834 0.0167497739 0.0068549689
-0.1059929693 -0.4778451641 0.0000000000 0.0000000000 0.0000000000 -360.8716808652 0.0167497739 0.0068549689
-0.0858578969 -0.4825034538 0.0000000000 0.0000000000 0.0000000000 -360.3900358465 0.0167497739 0.0068549689
-0.0655475209 -0.4863256828 0.0000000000 0.0000000000 0.0000000000 -357.2299261220 0.0167497739 0.0068549689
-0.0450965414 -0.4893053210 0.0000000000 0.0000000000 0.0000000000 -351.7701133793 0.0167497739 0.0068549689
-0.0245398985 -0.4914372776 0.0000000000 0.0000000000 0.0000000000 -344.4213154369 0.0167497739 0.0068549689
-0.0039127129 -0.4927179103 0.0000000000 0.0000000000 0.0000000000 -335.6042565163 0.0167497739 0.0068549689
0.0167497742 -0.4931450311 0.0000000000 0.0000000000 0.0000000000 -325.7363343422 0.0167497739 0.0068549689
0.0374122614 -0.4927179102 0.0000000000 0.0000000000 0.0000000000 -315.2139363850 0.0167497739 0.0068549689
0.0580394470 -0.4914372775 0.0000000000 0.0000000000 0.0000000000 -304.3995465804 0.0167497739 0.0068549689
0.0785960899 -0.4893053209 0.0000000000 0.0000000000 0.0000000000 -293.6102177096 0.0167497739 0.0068549689
0.0990470694 -0.4863256827 0.0000000000 0.0000000000 0.0000000000 -283.1105358928 0.0167497739 0.0068549689
0.1193574454 -0.4825034537 0.0000000000 0.0000000000 0.0000000000 -273.1090685421 0.0167497739 0.0068549689
0.1394925178 -0.4778451640 0.0000000000 0.0000000000 0.0000000000 -263.7586881689 0.0167497739 0.0068549689
0.1594178864 -0.4723587722 0.0000000000 0.0000000000 0.0000000000 -255.1598203193 0.0167497739 0.0068549689
0.1790995089 -0.4660536518 0.0000000000 0.0000000000 0.0000000000 -247.3651785685 0.0167497739 0.0068549689
0.1985037595 -0.4589405750 0.0000000000 0.0000000000 0.0000000000 -240.3857881039 0.0167497739 0.0068549689
0.2175974866 -0.4510316943 0.0000000000 0.0000000000 0.0000000000 -234.1963471778 0.0167497739 0.0068549689
0.2363480687 -0.4423405219 0.0000000000 0.0000000000 0.0000000000 -228.7446819368 0.0167497739 0.0068549689
0.2547234708 -0.4328819065 0.0000000000 0.0000000000 0.0000000000 -223.9578747030 0.0167497739 0.0068549689
0.2726922988 -0.4226720081 0.0000000000 0.0000000000 0.0000000000 -219.7616660113 0.0167497739 0.0068549689
0.2902238533 -0.4117282700 0.0000000000 0.0000000000 0.0000000000 -216.0748901732 0.0167497739 0.0068549689
0.3072881819 -0.4000693895 0.0000000000 0.0000000000 0.0000000000 -212.8536049846 0.0167497739 0.0068549689
0.3238561306 -0.3877152855 0.0000000000 0.0000000000 0.0000000000 -210.0174167883 0.0167497739 0.0068549689
0.3398993931 -0.3746870649 0.0000000000 0.0000000000 0.0000000000 -207.6142974313 0.0167497739 0.0068549689
0.3553905600 -0.3610069862 0.0000000000 0.0000000000 0.0000000000 -205.4484162773 0.0167497739 0.0068549689
0.5669892518 -0.5028821142 0.0000000000 0.0178912178 -0.0382443578 -196.8025312754 0.0172003476 0.0072474388
0.5856559609 -0.4819580829 0.0000000000 -0.0016324210 -0.0413297251 -196.2948212851 0.0171771682 0.0072574751
0.6035284100 -0.4603475401 0.0000000000 -0.0145635618 -0.0455304592 -195.9389557290 0.0171547978 0.0072698109
0.6205795426 -0.4380824723 0.0000000000 -0.0226829432 -0.0503787032 -195.7371261845 0.0171312075 0.0072826665
0.6367848434 -0.4151949278 0.0000000000 -0.0277213975 -0.0553418082 -195.6742749805 0.0171057624 0.0072951153
0.6521215060 -0.3917174175 0.0000000000 -0.0311621700 -0.0598934586 -195.7252964310 0.0170783563 0.0073066395
0.6665681578 -0.3676830695 0.0000000000 -0.0341227493 -0.0635759165 -195.8622878918 0.0170491047 0.0073169301
0.6801047640 -0.3431256728 0.0000000000 -0.0373289907 -0.0660378395 -196.0601852079 0.0170182187 0.0073257980
0.6927125997 -0.3180796764 0.0000000000 -0.0411599539 -0.0670455858 -196.3000768385 0.0169859486 0.0073331276
0.7043742508 -0.2925801666 0.0000000000 -0.0457276981 -0.0664748751 -196.5708084284 0.0169525587 0.0073388512
0.7150736279 -0.2666628349 0.0000000000 -0.0509614004 -0.0642922101 -196.8695343813 0.0169183162 0.0073429330
0.7247959846 -0.2403639370 0.0000000000 -0.0566784991 -0.0605337714 -197.2015227337 0.0168834867 0.0073453591
0.7335279357 -0.2137202485 0.0000000000 -0.0626375995 -0.0552864361 -197.5792714563 0.0168483313 0.0073461319
0.7412574742 -0.1867690170 0.0000000000 -0.0685748491 -0.0486728765 -198.0209584571 0.0168131044 0.0073452665
0.7479739853 -0.1595479119 0.0000000000 -0.0742279659 -0.0408409238 -198.5483211504 0.0167780511 0.0073427882
0.7536682602 -0.1320949742 0.0000000000 -0.0793520196 -0.0319564591 -199.1841423048 0.0167434052 0.0073387309
0.7583325076 -0.1044485639 0.0000000000 -0.0837300463 -0.0221987704 -199.9495684777 0.0167093879 0.0073331354
0.7619603641 -0.0766473082 0.0000000000 -0.0871804647 -0.0117573570 -200.8615057465 0.0166762067 0.0073260486
0.7645469030 -0.0487300483 0.0000000000 -0.0895623943 -0.0008293843 -201.9303323026 0.0166440551 0.0073175215
0.7660886419 -0.0207357862 0.0000000000 -0.0907794028 0.0103827253 -203.1581426803 0.0166131133 0.0073076092
0.7665835475 0.0072963698 0.0000000000 -0.0907818773 0.0216738256 -204.5376951042 0.0165835475 0.0072963695
0.7660310400 0.0353272590 0.0000000000 -0.0895680547 0.0328387673 -206.0521735928 0.0165555115 0.0072838630
0.7644319942 0.0633177234 0.0000000000 -0.0871836910 0.0436752444 -207.6758043777 0.0165291463 0.0072701529
0.7617887396 0.0912286630 0.0000000000 -0.0837203497 0.0539866397 -209.3752883194 0.0165045822 0.0072553057
0.7581050600 0.1190210917 0.0000000000 -0.0793123000 0.0635847461 -211.1119339171 0.0164819403 0.0072393918
0.7533861896 0.1466561921 0.0000000000 -0.0741320039 0.0722922989 -212.8443082106 0.0164613347 0.0072224865
0.7476388099 0.1740953715 0.0000000000 -0.0683840815 0.0799453703 -214.5311718497 0.0164428758 0.0072046708
0.7408710423 0.2013003163 0.0000000000 -0.0622974307 0.0863958416 -216.1344344603 0.0164266727 0.0071860322
0.7330924403 0.2282330471 0.0000000000 -0.0561147835 0.0915143480 -217.6218585966 0.0164128361 0.0071666660
0.7243139771 0.2548559725 0.0000000000 -0.0500783704 0.0951942438 -218.9692560961 0.0164014794 0.0071466758
0.7145480298 0.2811319434 0.0000000000 -0.0444095524 0.0973572058 -220.1619646343 0.0163927184 0.0071261749
0.7038083599 0.3070243061 0.0000000000 -0.0392794331 0.0979610066 -221.1954754298 0.0163866681 0.0071052877
0.6921100863 0.3324969558 0.0000000000 -0.0347670634 0.0970096906 -222.0752122473 0.0163834354 0.0070841513
0.6794696520 0.3575143884 0.0000000000 -0.0308029123 0.0945657577 -222.8156133629 0.0163831069 0.0070629171
0.6659047827 0.3820417494 0.0000000000 -0.0270992275 0.0907629185 -223.4387589677 0.0163857299 0.0070417492
0.6514344385 0.4060448787 0.0000000000 -0.0230767453 0.0858164781 -223.9727018793 0.0163912892 0.0070208212
0.6360787641 0.4294903498 0.0000000000 -0.0178075881 0.0800268239 -224.4493827492 0.0163996835 0.0070003061
0.6198590437 0.4523455042 0.0000000000 -0.0100018454 0.0737709515 -224.9017879221 0.0164107090 0.0069803649
0.6027976577 0.4745784912 0.0000000000 0.0019375416 0.0674790989 -225.3602545369 0.0164240460 0.0069611397
0.5849180015 0.4961583269 0.0000000000 0.0197849341 0.0615992561 -225.8487132264 0.0164392092 0.0069427683
0.5662442180 0.5170550327 0.0000000000 0.0453061963 0.0565599156 -226.3788970683 0.0164553142 0.0069254793
0.5244548045 0.5586793294 0.0000000000 0.1307663641 0.0504470186 -227.7119958071 0.0164936259 0.0068863963
0.5012434300 0.5791795701 0.0000000000 0.1951582037 0.0505718949 -228.5405001333 0.0165190017 0.0068665189
0.4772066733 0.5987046977 0.0000000000 0.2731243119 0.0535926373 -229.5075876529 0.0165471388 0.0068493156
0.4523855835 0.6172210741 0.0000000000 0.3634008373 0.0599343773 -230.6820556751 0.0165779720 0.0068345361
0.4268222671 0.6346968862 0.0000000000 0.4634032189 0.0698772662 -232.1440283952 0.0166111486 0.0068220275
0.4005600493 0.6511020963 0.0000000000 0.5692875953 0.0834177018 -233.9612705332 0.0166462626 0.0068116304
0.3736434700 0.6664085161 0.0000000000 0.6763309835 0.1001858010 -236.1562007426 0.0166829253 0.0068032026
0.3461182192 0.6805898785 0.0000000000 0.7795917216 0.1194729643 -238.6779497584 0.0167207777 0.0067966420
0.3180310545 0.6936218848 0.0000000000 0.8746564590 0.1403595072 -241.3984747752 0.0167594861 0.0067918898
0.2894297164 0.7054822348 0.0000000000 0.9582404253 0.1618891399 -244.1372440634 0.0167987386 0.0067889187
0.2603628464 0.7161506485 0.0000000000 1.0284884208 0.1832302823 -246.6991940965 0.0168382446 0.0067877172
0.2308799059 0.7256088877 0.0000000000 1.0849525328 0.2037825346 -248.9061749928 0.0168777379 0.0067882758
0.2010310944 0.7338407773 0.0000000000 1.1283258311 0.2232139677 -250.6123276701 0.0169169792 0.0067905778
0.1708672644 0.7408322278 0.0000000000 1.1600557591 0.2414384734 -251.7047612801 0.0169557579 0.0067945938
0.1404398334 0.7465712573 0.0000000000 1.1819520892 0.2585552266 -252.0953643087 0.0169938908 0.0068002797
0.1098006925 0.7510480126 0.0000000000 1.1958663232 0.2747742725 -251.7094064070 0.0170312192 0.0068075778
0.0790021127 0.7542547894 0.0000000000 1.2034757735 0.2903471205 -250.4749861363 0.0170676037 0.0068164196
0.0480966494 0.7561860505 0.0000000000 1.2061708769 0.3055132597 -248.3156896717 0.0171029189 0.0068267317
0.0171370472 0.7568384410 0.0000000000 1.2050240901 0.3204659761 -245.1473176722 0.0171370474 0.0068384410
-0.0138238566 0.7562107988 0.0000000000 1.2008120294 0.3353356077 -240.8783614149 0.0171698743 0.0068514800
-0.0447332269 0.7543041597 0.0000000000 1.1940650127 0.3501858336 -235.4132120593 0.0172012823 0.0068657900
-0.0755383258 0.7511217565 0.0000000000 1.1851249811 0.3650181773 -228.6568817391 0.0172311478 0.0068813217
-0.1061866061 0.7466690114 0.0000000000 1.1742002064 0.3797807160 -220.5201669672 0.0172593368 0.0068980339
-0.1366258043 0.7409535229 0.0000000000 1.1614112306 0.3943782099 -210.9245033800 0.0172857025 0.0069158890
-0.1668040325 0.7339850472 0.0000000000 1.1468265195 0.4086820162 -199.8060906803 0.0173100830 0.0069348478
-0.1966698680 0.7257754749 0.0000000000 1.1304885420 0.4225390078 -187.1191234442 0.0173323004 0.0069548631
-0.2261724423 0.7163388049 0.0000000000 1.1124319296 0.4357792550 -172.8381254172 0.0173521597 0.0069758737
-0.2552615275 0.7056911136 0.0000000000 1.0926955495 0.4482225137 -156.9594665592 0.0173694506 0.0069977976
-0.2838876211 0.6938505215 0.0000000000 1.0713301243 0.4596836866 -139.5021701272 0.0173839475 0.0070205266
-0.3120020299 0.6808371566 0.0000000000 1.0484026966 0.4699774416 -120.5081160144 0.0173954119 0.0070439203
-0.3395569535 0.6666731134 0.0000000000 1.0239989065 0.4789221534 -100.0417334550 0.0174035915 0.0070678001
-0.3665055712 0.6513824063 0.0000000000 0.9982237655 0.4863432952 -78.1892596135 0.0174082158 0.0070919406
-0.3928021381 0.6349909145 0.0000000000 0.9712013974 0.4920763686 -55.0576260146 0.0174089807 0.0071160559
-0.4184021082 0.6175263095 0.0000000000 0.9430740484 0.4959694238 -30.7730062366 0.0174055035 0.0071397717
-0.4432623310 0.5990179408 0.0000000000 0.9140005530 0.4978851872 -5.4790642606 0.0173972037 0.0071625588
-0.4673414783 0.5794966214 0.0000000000 0.8841542244 0.4977026709 20.6653828639 0.0173829502 0.0071835704
-0.4906012865 0.5589941983 0.0000000000 0.8537201449 0.4953179489 47.4888630218 0.0173598924 0.0072012654
-0.5344741923 0.5152109648 0.0000000000 0.7919324642 0.4836377666 102.3885107203 0.0173187408 0.0072497863
-0.5550111066 0.4920053910 0.0000000000 0.7609985934 0.4742487255 130.0632267334 0.0173019447 0.0072809628
-0.5745783716 0.4679678681 0.0000000000 0.7303158312 0.4624544546 157.6261570578 0.0172770106 0.0073083338
-0.5931397184 0.4431404579 0.0000000000 0.7001051263 0.4482596887 184.8654055652 0.0172468197 0.0073328466
-0.6106621923 0.4175659137 0.0000000000 0.6705860164 0.4316894551 211.5705142830 0.0172126665 0.0073547953
-0.6271151429 0.3912880268 0.0000000000 0.6419745528 0.4127900619 237.5337235672 0.0171753230 0.0073742402
-0.6424699447 0.3643517090 0.0000000000 0.6144815990 0.3916286196 262.5517725064 0.0171353688 0.0073911644
-0.6566999325 0.3368029756 0.0000000000 0.5883108747 0.3682924070 286.4278478852 0.0170933040 0.0074055342
-0.6697804041 0.3086888910 0.0000000000 0.5636570825 0.3428879932 308.9734904382 0.0170495910 0.0074173228
-0.6816886468 0.2800574965 0.0000000000 0.5407041335 0.3155401834 330.0104056797 0.0170046694 0.0074265188
-0.6924039705 0.2509577312 0.0000000000 0.5196235082 0.2863908068 349.3721510573 0.0169589608 0.0074331296
-0.7019077430 0.2214393484 0.0000000000 0.5005727694 0.2555973642 366.9056841946 0.0169128689 0.0074371805
-0.7101834217 0.1915528285 0.0000000000 0.4836942386 0.2233315507 382.4727623753 0.0168667778 0.0074387134
-0.7172165836 0.1613492917 0.0000000000 0.4691138335 0.1897776608 395.9511863981 0.0168210505 0.0074377853
-0.7229949487 0.1308804080 0.0000000000 0.4569400495 0.1551308850 407.2358814781 0.0167760289 0.0074344656
-0.7275083998 0.1001983076 0.0000000000 0.4472630559 0.1195955118 416.2398043564 0.0167320351 0.0074288345
-0.7307489954 0.0693554900 0.0000000000 0.4401538849 0.0833830649 422.8946638716 0.0166893744 0.0074209812
-0.7327109786 0.0384047318 0.0000000000 0.4356637242 0.0467104162 427.1514488631 0.0166483402 0.0074110014
-0.7333907816 0.0073989947 0.0000000000 0.4338233609 0.0097979104 428.9807712820 0.0166092184 0.0073989950
-0.7327870269 -0.0236086678 0.0000000000 0.4346428389 -0.0271324869 428.3730459866 0.0165722918 0.0073850632
-0.7309005264 -0.0545652029 0.0000000000 0.4381113560 -0.0638590185 425.3385190691 0.0165378434 0.0073693065
-0.7277342772 -0.0854176513 0.0000000000 0.4441974192 -0.1001619485 419.9071536604 0.0165061575 0.0073518225
-0.7232934562 -0.1161132380 0.0000000000 0.4528492684 -0.1358253758 412.1283773767 0.0164775213 0.0073327050
-0.7175854083 -0.1465994621 0.0000000000 0.4639955127 -0.1706390612 402.0706729508 0.0164522256 0.0073120449
-0.7106196308 -0.1768241841 0.0000000000 0.4775459178 -0.2044002570 389.8209956248 0.0164305686 0.0072899315
-0.7024077489 -0.2067357124 0.0000000000 0.4933922961 -0.2369155126 375.4840076048 0.0164128628 0.0072664561