 TITLE = "Tecplot data"
 VARIABLES = "X", "Y", "Z" "U", "V", "p", "dispX", "dispY"
 ZONE SOLUTIONTIME=76.900000, NODES=26114 , ELEMENTS=25916, DATAPACKING=POINT, ZONETYPE=FEQUADRILATERAL
0.6122710467 -0.8961048017 0.0000000000 0.0000000000 0.0000000000 -236.9327252205 0.2587176561 -1.2496581924
0.6122710470 -1.6032115827 0.0000000000 0.0000000000 0.0000000000 -743.1941132152 0.2587176561 -1.2496581924
-0.0948357346 -0.8961048019 0.0000000000 0.0000000000 0.0000000000 461.3344201464 0.2587176561 -1.2496581924
-0.0948357343 -1.6032115832 0.0000000000 0.0000000000 0.0000000000 -552.4013578075 0.2587176561 -1.2496581924
0.7836968742 -0.7170684577 0.0000000000 0.2138166005 -0.1683615206 -165.5624165911 0.2533667883 -1.2473985436
0.7864163520 -1.8210250176 0.0000000000 0.6393681044 0.5422299479 -735.9029938169 0.2560862657 -1.2906949321
-0.2833948568 -0.7515159133 0.0000000000 0.4126350712 0.1055152030 353.2428822134 0.2469352293 -1.2818459991
-0.2607429978 -1.8006517207 0.0000000000 0.9609309541 -0.9247588490 -335.4629877850 0.2695870878 -1.2703216345
1.2987053302 -0.2046165202 0.0000000000 0.3099784904 -0.2276857435 -81.2257795632 0.2380451586 -1.2652766921
1.3314748377 -2.3410626323 0.0000000000 1.0722822705 0.1867619912 -127.4943772608 0.2708146652 -1.2804024613
-0.8413797693 -0.3005400770 0.0000000000 0.6431255959 0.0470969225 225.6748606004 0.2192804028 -1.3612002485
-0.7705062319 -2.3979626058 0.0000000000 1.0516334939 -0.3497872733 -12.7477831083 0.2901539394 -1.3373024335
4.3223903771 2.1914070930 0.0000000000 1.0220104493 0.0540660625 -38.5330451601 0.1223903771 -1.1085929070
4.5568954704 -4.4049129326 0.0000000000 1.1355880197 0.0194558008 -50.3043027915 0.3568954704 -1.1049129326
20.0000000000 4.7000000000 0.0000000000 1.0500735047 0.0396808483 0.0620339217 0.0000000000 0.0000000000
20.0000000000 -4.7000000000 0.0000000000 1.0860441167 -0.0465562946 0.4860446046 0.0000000000 0.0000000000
-10.0000000000 15.0000000000 0.0000000000 1.0000000000 0.0000000000 54.3357890471 0.0000000000 0.0000000000
20.0000000000 15.0000000000 0.0000000000 1.0498703264 0.0000000000 0.0276124163 0.0000000000 0.0000000000
20.0000000000 -15.0000000000 0.0000000000 1.0466496811 0.0000000000 0.0257287967 0.0000000000 0.0000000000
-10.0000000000 -15.0000000000 0.0000000000 1.0000000000 0.0000000000 27.3186590232 0.0000000000 0.0000000000
0.6252435923 -1.5897445610 0.0000000000 0.0000000000 0.0000000000 -715.0813257799 0.2587176561 -1.2496581924
0.6377035179 -1.5758018978 0.0000000000 0.0000000000 0.0000000000 -669.8306959174 0.2587176561 -1.2496581924
0.6496333976 -1.5614030930 0.0000000000 0.0000000000 0.0000000000 -637.7188571174 0.2587176561 -1.2496581924
0.6610165462 -1.5465682849 0.0000000000 0.0000000000 0.0000000000 -601.5042785829 0.2587176561 -1.2496581924
0.6718370435 -1.5313182211 0.0000000000 0.0000000000 0.0000000000 -566.3780129967 0.2587176561 -1.2496581924
0.6820797559 -1.5156742304 0.0000000000 0.0000000000 0.0000000000 -531.4529187190 0.2587176561 -1.2496581924
0.6917303582 -1.4996581921 0.0000000000 0.0000000000 0.0000000000 -497.2762951686 0.2587176561 -1.2496581924
0.7007753530 -1.4832925062 0.0000000000 0.0000000000 0.0000000000 -464.0991585782 0.2587176561 -1.2496581924
0.7092020902 -1.4666000617 0.0000000000 0.0000000000 0.0000000000 -432.1874117210 0.2587176561 -1.2496581924
0.7169987842 -1.4496042043 0.0000000000 0.0000000000 0.0000000000 -401.8085619071 0.2587176561 -1.2496581924
0.7241545305 -1.4323287043 0.0000000000 0.0000000000 0.0000000000 -373.1668995784 0.2587176561 -1.2496581924
0.7306593214 -1.4147977231 0.0000000000 0.0000000000 0.0000000000 -346.4623574210 0.2587176561 -1.2496581924
0.7365040591 -1.3970357793 0.0000000000 0.0000000000 0.0000000000 -322.1241937600 0.2587176561 -1.2496581924
0.7416805693 -1.3790677147 0.0000000000 0.0000000000 0.0000000000 -298.8361292282 0.2587176561 -1.2496581924
0.7461816123 -1.3609186591 0.0000000000 0.0000000000 0.0000000000 -279.1675811591 0.2587176561 -1.2496581924
0.7500008928 -1.3426139957 0.0000000000 0.0000000000 0.0000000000 -259.9150586261 0.2587176561 -1.2496581924
0.7531330693 -1.3241793252 0.0000000000 0.0000000000 0.0000000000 -244.4674162122 0.2587176561 -1.2496581924
0.7555737611 -1.3056404302 0.0000000000 0.0000000000 0.0000000000 -230.6257578221 0.2587176561 -1.2496581924
0.7573195547 -1.2870232390 0.0000000000 0.0000000000 0.0000000000 -218.9507028086 0.2587176561 -1.2496581924
0.7583680085 -1.2683537893 0.0000000000 0.0000000000 0.0000000000 -209.2201422822 0.2587176561 -1.2496581924
0.7587176561 -1.2496581922 0.0000000000 0.0000000000 0.0000000000 -201.2555565702 0.2587176561 -1.2496581924
0.7583680085 -1.2309625950 0.0000000000 0.0000000000 0.0000000000 -194.9864656083 0.2587176561 -1.2496581924
0.7573195547 -1.2122931454 0.0000000000 0.0000000000 0.0000000000 -190.1452267858 0.2587176561 -1.2496581924
0.7555737610 -1.1936759541 0.0000000000 0.0000000000 0.0000000000 -186.6102869341 0.2587176561 -1.2496581924
0.7531330692 -1.1751370591 0.0000000000 0.0000000000 0.0000000000 -184.2140122467 0.2587176561 -1.2496581924
0.7500008927 -1.1567023886 0.0000000000 0.0000000000 0.0000000000 -182.7517525500 0.2587176561 -1.2496581924
0.7461816122 -1.1383977252 0.0000000000 0.0000000000 0.0000000000 -182.1038454954 0.2587176561 -1.2496581924
0.7416805692 -1.1202486697 0.0000000000 0.0000000000 0.0000000000 -182.1269063878 0.2587176561 -1.2496581924
0.7365040590 -1.1022806050 0.0000000000 0.0000000000 0.0000000000 -182.8927355943 0.2587176561 -1.2496581924
0.7306593212 -1.0845186613 0.0000000000 0.0000000000 0.0000000000 -183.6539379367 0.2587176561 -1.2496581924
0.7241545304 -1.0669876801 0.0000000000 0.0000000000 0.0000000000 -187.0567708185 0.2587176561 -1.2496581924
0.7169987840 -1.0497121801 0.0000000000 0.0000000000 0.0000000000 -183.6804150762 0.2587176561 -1.2496581924
0.7092020900 -1.0327163227 0.0000000000 0.0000000000 0.0000000000 -191.1581174273 0.2587176561 -1.2496581924
0.7007753528 -1.0160238781 0.0000000000 0.0000000000 0.0000000000 -191.4463454670 0.2587176561 -1.2496581924
0.6917303580 -0.9996581923 0.0000000000 0.0000000000 0.0000000000 -196.3546202886 0.2587176561 -1.2496581924
0.6820797557 -0.9836421540 0.0000000000 0.0000000000 0.0000000000 -199.9839511561 0.2587176561 -1.2496581924
0.6718370432 -0.9679981633 0.0000000000 0.0000000000 0.0000000000 -205.2917668443 0.2587176561 -1.2496581924
0.6610165460 -0.9527480995 0.0000000000 0.0000000000 0.0000000000 -210.3675465273 0.2587176561 -1.2496581924
0.6496333973 -0.9379132914 0.0000000000 0.0000000000 0.0000000000 -216.9255563293 0.2587176561 -1.2496581924
0.6377035177 -0.9235144867 0.0000000000 0.0000000000 0.0000000000 -222.9341945931 0.2587176561 -1.2496581924
0.6252435920 -0.9095718234 0.0000000000 0.0000000000 0.0000000000 -229.8384244264 0.2587176561 -1.2496581924
0.5973584419 -0.8817962370 0.0000000000 0.0000000000 0.0000000000 -243.4145697044 0.2587176561 -1.2496581924
0.5818672750 -0.8681161582 0.0000000000 0.0000000000 0.0000000000 -251.0409796737 0.2587176561 -1.2496581924
0.5658240124 -0.8550879376 0.0000000000 0.0000000000 0.0000000000 -256.8298782663 0.2587176561 -1.2496581924
0.5492560638 -0.8427338337 0.0000000000 0.0000000000 0.0000000000 -262.1532048074 0.2587176561 -1.2496581924
0.5321917351 -0.8310749532 0.0000000000 0.0000000000 0.0000000000 -266.2114995139 0.2587176561 -1.2496581924
0.5146601806 -0.8201312152 0.0000000000 0.0000000000 0.0000000000 -269.2610641646 0.2587176561 -1.2496581924
0.4966913526 -0.8099213167 0.0000000000 0.0000000000 0.0000000000 -271.0682944252 0.2587176561 -1.2496581924
0.4783159505 -0.8004627014 0.0000000000 0.0000000000 0.0000000000 -271.7257433414 0.2587176561 -1.2496581924
0.4595653684 -0.7917715290 0.0000000000 0.0000000000 0.0000000000 -271.1860788661 0.2587176561 -1.2496581924
0.4404716413 -0.7838626483 0.0000000000 0.0000000000 0.0000000000 -269.4898956254 0.2587176561 -1.2496581924
0.4210673906 -0.7767495715 0.0000000000 0.0000000000 0.0000000000 -266.6244072832 0.2587176561 -1.2496581924
0.4013857682 -0.7704444511 0.0000000000 0.0000000000 0.0000000000 -262.5970346677 0.2587176561 -1.2496581924
0.3814603996 -0.7649580594 0.0000000000 0.0000000000 0.0000000000 -257.3866280419 0.2587176561 -1.2496581924
0.3613253271 -0.7602997697 0.0000000000 0.0000000000 0.0000000000 -250.9706382825 0.2587176561 -1.2496581924
0.3410149512 -0.7564775407 0.0000000000 0.0000000000 0.0000000000 -243.3077137933 0.2587176561 -1.2496581924
0.3205639717 -0.7534979025 0.0000000000 0.0000000000 0.0000000000 -234.3468173249 0.2587176561 -1.2496581924
0.3000073288 -0.7513659459 0.0000000000 0.0000000000 0.0000000000 -224.0196288712 0.2587176561 -1.2496581924
0.2793801431 -0.7500853132 0.0000000000 0.0000000000 0.0000000000 -212.2422459003 0.2587176561 -1.2496581924
0.2587176560 -0.7496581924 0.0000000000 0.0000000000 0.0000000000 -198.9109861414 0.2587176561 -1.2496581924
0.2380551689 -0.7500853132 0.0000000000 0.0000000000 0.0000000000 -183.9020686376 0.2587176561 -1.2496581924
0.2174279833 -0.7513659459 0.0000000000 0.0000000000 0.0000000000 -167.0702550662 0.2587176561 -1.2496581924
0.1968713404 -0.7534979025 0.0000000000 0.0000000000 0.0000000000 -148.2504529191 0.2587176561 -1.2496581924
0.1764203609 -0.7564775407 0.0000000000 0.0000000000 0.0000000000 -127.2611151600 0.2587176561 -1.2496581924
0.1561099849 -0.7602997697 0.0000000000 0.0000000000 0.0000000000 -103.9113503415 0.2587176561 -1.2496581924
0.1359749124 -0.7649580594 0.0000000000 0.0000000000 0.0000000000 -78.0116460675 0.2587176561 -1.2496581924
0.1160495439 -0.7704444512 0.0000000000 0.0000000000 0.0000000000 -49.3890070753 0.2587176561 -1.2496581924
0.0963679214 -0.7767495716 0.0000000000 0.0000000000 0.0000000000 -17.9059863958 0.2587176561 -1.2496581924
0.0769636707 -0.7838626484 0.0000000000 0.0000000000 0.0000000000 16.5166947035 0.2587176561 -1.2496581924
0.0578699437 -0.7917715291 0.0000000000 0.0000000000 0.0000000000 53.8761040446 0.2587176561 -1.2496581924
0.0391193616 -0.8004627015 0.0000000000 0.0000000000 0.0000000000 94.0628113239 0.2587176561 -1.2496581924
0.0207439595 -0.8099213168 0.0000000000 0.0000000000 0.0000000000 136.8418298768 0.2587176561 -1.2496581924
0.0027751315 -0.8201312153 0.0000000000 0.0000000000 0.0000000000 181.8371875349 0.2587176561 -1.2496581924
-0.0147564231 -0.8310749533 0.0000000000 0.0000000000 0.0000000000 228.5366212335 0.2587176561 -1.2496581924
-0.0318207517 -0.8427338338 0.0000000000 0.0000000000 0.0000000000 276.2822559639 0.2587176561 -1.2496581924
-0.0483887003 -0.8550879378 0.0000000000 0.0000000000 0.0000000000 324.3598255077 0.2587176561 -1.2496581924
-0.0644319629 -0.8681161584 0.0000000000 0.0000000000 0.0000000000 371.8201108574 0.2587176561 -1.2496581924
-0.0799231298 -0.8817962371 0.0000000000 0.0000000000 0.0000000000 418.2504395881 0.2587176561 -1.2496581924
-0.1091442993 -0.9110174067 0.0000000000 0.0000000000 0.0000000000 505.4450212067 0.2587176561 -1.2496581924
-0.1228243781 -0.9265085736 0.0000000000 0.0000000000 0.0000000000 533.0044725724 0.2587176561 -1.2496581924
-0.1358525987 -0.9425518362 0.0000000000 0.0000000000 0.0000000000 591.5403461675 0.2587176561 -1.2496581924
-0.1482067026 -0.9591197848 0.0000000000 0.0000000000 0.0000000000 596.9358001511 0.2587176561 -1.2496581924
-0.1598655831 -0.9761841135 0.0000000000 0.0000000000 0.0000000000 621.1614384638 0.2587176561 -1.2496581924
-0.1708093211 -0.9937156680 0.0000000000 0.0000000000 0.0000000000 634.2989734071 0.2587176561 -1.2496581924
-0.1810192196 -1.0116844960 0.0000000000 0.0000000000 0.0000000000 649.1365056058 0.2587176561 -1.2496581924
-0.1904778349 -1.0300598981 0.0000000000 0.0000000000 0.0000000000 649.9547453705 0.2587176561 -1.2496581924
-0.1991690073 -1.0488104802 0.0000000000 0.0000000000 0.0000000000 655.6767601923 0.2587176561 -1.2496581924
-0.2070778880 -1.0679042073 0.0000000000 0.0000000000 0.0000000000 646.3998357031 0.2587176561 -1.2496581924
-0.2141909648 -1.0873084579 0.0000000000 0.0000000000 0.0000000000 634.8704969230 0.2587176561 -1.2496581924
-0.2204960852 -1.1069900804 0.0000000000 0.0000000000 0.0000000000 615.5792336999 0.2587176561 -1.2496581924
-0.2259824769 -1.1269154490 0.0000000000 0.0000000000 0.0000000000 591.6095329510 0.2587176561 -1.2496581924
-0.2306407666 -1.1470505215 0.0000000000 0.0000000000 0.0000000000 563.5827439059 0.2587176561 -1.2496581924
-0.2344629956 -1.1673608974 0.0000000000 0.0000000000 0.0000000000 531.1335075180 0.2587176561 -1.2496581924
-0.2374426338 -1.1878118769 0.0000000000 0.0000000000 0.0000000000 494.9778955321 0.2587176561 -1.2496581924
-0.2395745904 -1.2083685198 0.0000000000 0.0000000000 0.0000000000 455.4695279131 0.2587176561 -1.2496581924
-0.2408552231 -1.2289957055 0.0000000000 0.0000000000 0.0000000000 413.1329615400 0.2587176561 -1.2496581924
-0.2412823439 -1.2496581926 0.0000000000 0.0000000000 0.0000000000 368.4354694976 0.2587176561 -1.2496581924
-0.2408552231 -1.2703206797 0.0000000000 0.0000000000 0.0000000000 321.8538421271 0.2587176561 -1.2496581924
-0.2395745904 -1.2909478653 0.0000000000 0.0000000000 0.0000000000 273.8222208602 0.2587176561 -1.2496581924
-0.2374426337 -1.3115045082 0.0000000000 0.0000000000 0.0000000000 224.7466040739 0.2587176561 -1.2496581924
-0.2344629955 -1.3319554877 0.0000000000 0.0000000000 0.0000000000 174.9642027170 0.2587176561 -1.2496581924
-0.2306407665 -1.3522658637 0.0000000000 0.0000000000 0.0000000000 124.7825302781 0.2587176561 -1.2496581924
-0.2259824768 -1.3724009362 0.0000000000 0.0000000000 0.0000000000 74.4047080213 0.2587176561 -1.2496581924
-0.2204960850 -1.3923263047 0.0000000000 0.0000000000 0.0000000000 24.0332329634 0.2587176561 -1.2496581924
-0.2141909647 -1.4120079272 0.0000000000 0.0000000000 0.0000000000 -26.2074624005 0.2587176561 -1.2496581924
-0.2070778878 -1.4314121779 0.0000000000 0.0000000000 0.0000000000 -76.4050478524 0.2587176561 -1.2496581924
-0.1991690071 -1.4505059049 0.0000000000 0.0000000000 0.0000000000 -125.8023599568 0.2587176561 -1.2496581924
-0.1904778347 -1.4692564870 0.0000000000 0.0000000000 0.0000000000 -175.7411525517 0.2587176561 -1.2496581924
-0.1810192194 -1.4876318891 0.0000000000 0.0000000000 0.0000000000 -227.1769576550 0.2587176561 -1.2496581924
-0.1708093209 -1.5056007171 0.0000000000 0.0000000000 0.0000000000 -271.9764519473 0.2587176561 -1.2496581924
-0.1598655829 -1.5231322716 0.0000000000 0.0000000000 0.0000000000 -330.8352557506 0.2587176561 -1.2496581924
-0.1482067024 -1.5401966003 0.0000000000 0.0000000000 0.0000000000 -342.7161483735 0.2587176561 -1.2496581924
-0.1358525984 -1.5567645489 0.0000000000 0.0000000000 0.0000000000 -510.8236022838 0.2587176561 -1.2496581924
-0.1228243778 -1.5728078115 0.0000000000 0.0000000000 0.0000000000 -411.2895642474 0.2587176561 -1.2496581924
-0.1091442990 -1.5882989784 0.0000000000 0.0000000000 0.0000000000 -574.5418534691 0.2587176561 -1.2496581924
-0.0799231295 -1.6175201479 0.0000000000 0.0000000000 0.0000000000 -512.1928309957 0.2587176561 -1.2496581924
-0.0644319626 -1.6312002266 0.0000000000 0.0000000000 0.0000000000 -709.4020701996 0.2587176561 -1.2496581924
-0.0483887000 -1.6442284472 0.0000000000 0.0000000000 0.0000000000 -702.1174824670 0.2587176561 -1.2496581924
-0.0318207514 -1.6565825512 0.0000000000 0.0000000000 0.0000000000 -759.7391735209 0.2587176561 -1.2496581924
-0.0147564227 -1.6682414317 0.0000000000 0.0000000000 0.0000000000 -779.3529714208 0.2587176561 -1.2496581924
0.0027751318 -1.6791851697 0.0000000000 0.0000000000 0.0000000000 -824.5688836566 0.2587176561 -1.2496581924
0.0207439598 -1.6893950681 0.0000000000 0.0000000000 0.0000000000 -854.3129096633 0.2587176561 -1.2496581924
0.0391193619 -1.6988536834 0.0000000000 0.0000000000 0.0000000000 -890.8705455774 0.2587176561 -1.2496581924
0.0578699441 -1.7075448558 0.0000000000 0.0000000000 0.0000000000 -920.0094661315 0.2587176561 -1.2496581924
0.0769636711 -1.7154537365 0.0000000000 0.0000000000 0.0000000000 -950.4897419863 0.2587176561 -1.2496581924
0.0963679218 -1.7225668133 0.0000000000 0.0000000000 0.0000000000 -976.4114073153 0.2587176561 -1.2496581924
0.1160495443 -1.7288719337 0.0000000000 0.0000000000 0.0000000000 -1001.3822150978 0.2587176561 -1.2496581924
0.1359749128 -1.7343583254 0.0000000000 0.0000000000 0.0000000000 -1022.8771501862 0.2587176561 -1.2496581924
0.1561099853 -1.7390166151 0.0000000000 0.0000000000 0.0000000000 -1042.3875939707 0.2587176561 -1.2496581924
0.1764203613 -1.7428388441 0.0000000000 0.0000000000 0.0000000000 -1058.8322741552 0.2587176561 -1.2496581924
0.1968713408 -1.7458184823 0.0000000000 0.0000000000 0.0000000000 -1072.8277047484 0.2587176561 -1.2496581924
0.2174279837 -1.7479504389 0.0000000000 0.0000000000 0.0000000000 -1083.9266305571 0.2587176561 -1.2496581924
0.2380551693 -1.7492310716 0.0000000000 0.0000000000 0.0000000000 -1092.3912710857 0.2587176561 -1.2496581924
0.2587176564 -1.7496581924 0.0000000000 0.0000000000 0.0000000000 -1098.0556135089 0.2587176561 -1.2496581924
0.2793801436 -1.7492310716 0.0000000000 0.0000000000 0.0000000000 -1101.0441433435 0.2587176561 -1.2496581924
0.3000073292 -1.7479504389 0.0000000000 0.0000000000 0.0000000000 -1101.3151145698 0.2587176561 -1.2496581924
0.3205639721 -1.7458184822 0.0000000000 0.0000000000 0.0000000000 -1098.9424893388 0.2587176561 -1.2496581924
0.3410149516 -1.7428388440 0.0000000000 0.0000000000 0.0000000000 -1093.9383477115 0.2587176561 -1.2496581924
0.3613253275 -1.7390166150 0.0000000000 0.0000000000 0.0000000000 -1086.3598294442 0.2587176561 -1.2496581924
0.3814604000 -1.7343583253 0.0000000000 0.0000000000 0.0000000000 -1076.2415446146 0.2587176561 -1.2496581924
0.4013857686 -1.7288719335 0.0000000000 0.0000000000 0.0000000000 -1063.6372515749 0.2587176561 -1.2496581924
0.4210673910 -1.7225668131 0.0000000000 0.0000000000 0.0000000000 -1048.5905269754 0.2587176561 -1.2496581924
0.4404716417 -1.7154537363 0.0000000000 0.0000000000 0.0000000000 -1031.1602844015 0.2587176561 -1.2496581924
0.4595653688 -1.7075448556 0.0000000000 0.0000000000 0.0000000000 -1011.3916688040 0.2587176561 -1.2496581924
0.4783159508 -1.6988536832 0.0000000000 0.0000000000 0.0000000000 -989.3633744987 0.2587176561 -1.2496581924
0.4966913529 -1.6893950678 0.0000000000 0.0000000000 0.0000000000 -965.1069372999 0.2587176561 -1.2496581924
0.5146601810 -1.6791851694 0.0000000000 0.0000000000 0.0000000000 -938.7655211841 0.2587176561 -1.2496581924
0.5321917355 -1.6682414313 0.0000000000 0.0000000000 0.0000000000 -910.2836323614 0.2587176561 -1.2496581924
0.5492560641 -1.6565825508 0.0000000000 0.0000000000 0.0000000000 -880.0508839960 0.2587176561 -1.2496581924
0.5658240127 -1.6442284469 0.0000000000 0.0000000000 0.0000000000 -847.5281890223 0.2587176561 -1.2496581924
0.5818672753 -1.6312002262 0.0000000000 0.0000000000 0.0000000000 -814.3291693365 0.2587176561 -1.2496581924
0.5973584422 -1.6175201475 0.0000000000 0.0000000000 0.0000000000 -777.2955329779 0.2587176561 -1.2496581924
0.8049339902 -1.7999916123 0.0000000000 0.5831499489 0.5509087779 -695.3929181982 0.2551450860 -1.2898620593
0.8234302011 -1.7796904332 0.0000000000 0.5357693460 0.5590689729 -652.9349162145 0.2549514084 -1.2904748751
0.8412411368 -1.7590512880 0.0000000000 0.4906829341 0.5639443146 -609.8071865335 0.2548675247 -1.2914339370
0.8582559496 -1.7378347454 0.0000000000 0.4472872648 0.5645449045 -566.6940264063 0.2548076145 -1.2924696066
0.8744194309 -1.7159677289 0.0000000000 0.4056605018 0.5605454816 -524.1413320274 0.2547403499 -1.2934776858
0.8896905390 -1.6934355670 0.0000000000 0.3661429777 0.5518648370 -482.6371075987 0.2546473893 -1.2944115100
0.9040370008 -1.6702492243 0.0000000000 0.3291263773 0.5386072006 -442.6217476763 0.2545179477 -1.2952492247
0.9174340018 -1.6464323613 0.0000000000 0.2949750651 0.5210213582 -404.4778445054 0.2543474564 -1.2959808904
0.9298629349 -1.6220152428 0.0000000000 0.2639847060 0.4994704306 -368.5220405817 0.2541362838 -1.2966024388
0.9413100324 -1.5970315820 0.0000000000 0.2363617606 0.4744037206 -335.0002922349 0.2538883403 -1.2971125641
0.9517651444 -1.5715168347 0.0000000000 0.2122147265 0.4463304949 -304.0868311063 0.2536098327 -1.2975110668
0.9612208171 -1.5455072504 0.0000000000 0.1915530513 0.4157958703 -275.8862531186 0.2533083193 -1.2977979544
0.9696716607 -1.5190393168 0.0000000000 0.1742911331 0.3833589884 -250.4381122958 0.2529920562 -1.2979729364
0.9771139206 -1.4921494099 0.0000000000 0.1602559690 0.3495734590 -227.7234270421 0.2526695508 -1.2980351265
0.9835451669 -1.4648735631 0.0000000000 0.1491979592 0.3149698795 -207.6725594625 0.2523492327 -1.2979828630
0.9889640417 -1.4372473177 0.0000000000 0.1408051062 0.2800401678 -190.1740174296 0.2520391867 -1.2978136127
0.9933700384 -1.4093056440 0.0000000000 0.1347210367 0.2452236055 -175.0838285407 0.2517469187 -1.2975239447
0.9967633080 -1.3810829304 0.0000000000 0.1305666577 0.2108949119 -162.2351829307 0.2514791505 -1.2971095736
0.9991444940 -1.3526130418 0.0000000000 0.1279639625 0.1773552311 -151.4479980951 0.2512416461 -1.2965654720
1.0005146064 -1.3239294478 0.0000000000 0.1265591005 0.1448273162 -142.5379496572 0.2510390778 -1.2958860524
1.0008749344 -1.2950654181 0.0000000000 0.1260411033 0.1134561500 -135.3244209862 0.2508749344 -1.2950654184
1.0002270008 -1.2660542798 0.0000000000 0.1261531654 0.0833156385 -129.6368388954 0.2507514722 -1.2940976758
0.9985725529 -1.2369297262 0.0000000000 0.1266951486 0.0544210455 -125.3190190458 0.2506697050 -1.2929772966
0.9959135845 -1.2077261596 0.0000000000 0.1275184034 0.0267459007 -122.2314057784 0.2506294272 -1.2916995169
0.9922523872 -1.1784790498 0.0000000000 0.1285161373 0.0002415971 -120.2513712115 0.2506292676 -1.2902607497
0.9875916301 -1.1492252824 0.0000000000 0.1296135836 -0.0251420902 -119.2719454743 0.2506667752 -1.2886589880
0.9819344750 -1.1200034717 0.0000000000 0.1307617912 -0.0494369315 -119.1994317274 0.2507385409 -1.2868941724
0.9752847358 -1.0908542111 0.0000000000 0.1319372328 -0.0726375612 -119.9503179191 0.2508403661 -1.2849684951
0.9676470935 -1.0618202349 0.0000000000 0.1331472159 -0.0946849909 -121.4477725300 0.2509674892 -1.2828866159
0.9590273786 -1.0329464678 0.0000000000 0.1344389596 -0.1154534272 -123.6178724120 0.2511148810 -1.2806557645
0.9494329260 -1.0042799363 0.0000000000 0.1359086904 -0.1347421695 -126.3856217614 0.2512776146 -1.2782857048
0.9388729986 -0.9758695197 0.0000000000 0.1377065124 -0.1522750884 -129.6708329255 0.2514513067 -1.2757885382
0.9273592529 -0.9477655153 0.0000000000 0.1400332399 -0.1677105291 -133.3840746423 0.2516326021 -1.2731783198
0.9149061773 -0.9200189980 0.0000000000 0.1431267898 -0.1806640028 -137.4231357722 0.2518196323 -1.2704704694
0.9015313550 -0.8926809829 0.0000000000 0.1472379106 -0.1907444463 -141.6707330834 0.2520123022 -1.2676809830
0.8872553122 -0.8658014716 0.0000000000 0.1525976849 -0.1976020717 -145.9943690249 0.2522121628 -1.2648255291
0.8721006743 -0.8394286326 0.0000000000 0.1593818335 -0.2009822467 -150.2491253517 0.2524215937 -1.2619186763
0.8560904909 -0.8136086323 0.0000000000 0.1676786182 -0.2007764110 -154.2836802772 0.2526421561 -1.2589737716
0.8392459125 -0.7883870683 0.0000000000 0.1774672169 -0.1970592380 -157.9489616884 0.2528723007 -1.2560044198
0.8215831043 -0.7638144309 0.0000000000 0.1886107757 -0.1901023552 -161.1090218849 0.2531043120 -1.2530299894
0.8031091178 -0.7399616261 0.0000000000 0.2008619589 -0.1803576187 -163.6479516973 0.2533202140 -1.2500911795
0.7610925149 -0.6923594708 0.0000000000 0.2288615063 -0.1532430729 -166.7469392956 0.2531313362 -1.2441524039
0.7375174275 -0.6691766694 0.0000000000 0.2438691704 -0.1371963650 -167.0387360329 0.2527929992 -1.2414897206
0.7131491122 -0.6472552814 0.0000000000 0.2585876663 -0.1211348318 -166.3781459866 0.2524895777 -1.2391106635
0.6880281266 -0.6265776620 0.0000000000 0.2728466131 -0.1055651892 -164.7917583576 0.2522205151 -1.2369642000
0.6621915133 -0.6071524363 0.0000000000 0.2865805241 -0.0907046319 -162.3203111885 0.2519803948 -1.2350272951
0.6356728680 -0.5890004488 0.0000000000 0.2998265472 -0.0765050029 -159.0076170842 0.2517590812 -1.2332909147
0.6085056294 -0.5721502178 0.0000000000 0.3126815205 -0.0627406165 -154.8931136499 0.2515450847 -1.2317555312
0.5807250731 -0.5566354380 0.0000000000 0.3252615902 -0.0491034455 -150.0081560119 0.2513276316 -1.2304286745
0.5523693815 -0.5424922097 0.0000000000 0.3376726847 -0.0352819348 -144.3746677310 0.2510978131 -1.2293222047
0.5234798799 -0.5297564810 0.0000000000 0.3499961889 -0.0210075544 -138.0055307400 0.2508489021 -1.2284497971
0.4941008112 -0.5184621081 0.0000000000 0.3622866988 -0.0060704605 -130.9058675587 0.2505762094 -1.2278250395
0.4642789905 -0.5086395168 0.0000000000 0.3745760342 0.0096843393 -123.0744312254 0.2502768224 -1.2274601287
0.4340635329 -0.5003147746 0.0000000000 0.3868781782 0.0263670775 -114.5046235920 0.2499494177 -1.2273649741
0.4035057085 -0.4935089343 0.0000000000 0.3991919472 0.0440502196 -105.1850919638 0.2495942020 -1.2275465683
0.3726588955 -0.4882376057 0.0000000000 0.4115002031 0.0627678916 -95.1001216093 0.2492129529 -1.2280085833
0.3415785684 -0.4845107705 0.0000000000 0.4237656128 0.0825064809 -84.2300553149 0.2488090951 -1.2287512054
0.3103222485 -0.4823328385 0.0000000000 0.4359235294 0.1031866319 -72.5518306337 0.2483877395 -1.2297712083
0.2789493608 -0.4817029042 0.0000000000 0.4478729684 0.1246378708 -60.0395877877 0.2479556303 -1.2310622230
0.2475209665 -0.4826151164 0.0000000000 0.4594672245 0.1465687201 -46.6652445235 0.2475209666 -1.2326151164
0.2160993719 -0.4850590543 0.0000000000 0.4705065022 0.1685378877 -32.3989838783 0.2470931028 -1.2344183731
0.1847476410 -0.4890200251 0.0000000000 0.4807358752 0.1899356726 -17.2097543906 0.2466821503 -1.2364583949
0.1535290504 -0.4944792343 0.0000000000 0.4898524361 0.2099878734 -1.0660850491 0.2462985241 -1.2387196691
0.1225065302 -0.5014138306 0.0000000000 0.4975248993 0.2277949859 16.0623283841 0.2459524730 -1.2411848082
0.0917421207 -0.5097968629 0.0000000000 0.5034264899 0.2424146253 34.2018181761 0.2456536275 -1.2438344968
0.0612964665 -0.5195971994 0.0000000000 0.5072776718 0.2529835115 53.3704872509 0.2454105820 -1.2466473988
0.0312283510 -0.5307794542 0.0000000000 0.5088903591 0.2588590522 73.5726281386 0.2452305194 -1.2496000659
0.0015942752 -0.5433039427 0.0000000000 0.5082020007 0.2597459867 94.7922480167 0.2451188773 -1.2526668739
-0.0275519232 -0.5571266689 0.0000000000 0.5052886713 0.2557688990 116.9863114429 0.2450790549 -1.2558199849
-0.0561594049 -0.5721993168 0.0000000000 0.5003517274 0.2474622387 140.0782948876 0.2451121638 -1.2590293117
-0.0841806135 -0.5884691977 0.0000000000 0.4936810367 0.2356737127 163.9525413427 0.2452168283 -1.2622624341
-0.1115715020 -0.6058790564 0.0000000000 0.4856056123 0.2214049878 188.4498199947 0.2453890429 -1.2654843697
-0.1382917055 -0.6243665290 0.0000000000 0.4764462323 0.2056332868 213.3643975006 0.2456220815 -1.2686569947
-0.1643046829 -0.6438627800 0.0000000000 0.4664829783 0.1891599521 238.4429783953 0.2459064358 -1.2717376386
-0.1895779135 -0.6642890902 0.0000000000 0.4559448416 0.1725182775 263.3854278430 0.2462296982 -1.2746756281
-0.2140834608 -0.6855478450 0.0000000000 0.4450218360 0.1559518376 287.8452156686 0.2465760739 -1.2774032269
-0.2378010853 -0.7074954986 0.0000000000 0.4339037186 0.1394480935 311.4224135589 0.2469233433 -1.2798085496
-0.2607381045 -0.7298481607 0.0000000000 0.4228449688 0.1228243562 333.6114865446 0.2472230744 -1.2816410936
-0.3037418892 -0.7789062058 0.0000000000 0.3996978881 0.0881641878 374.7778857962 0.2480510440 -1.2868673843
-0.3237787828 -0.8057176092 0.0000000000 0.3876142623 0.0691669323 393.2942881569 0.2485342685 -1.2904420374
-0.3429337867 -0.8328311517 0.0000000000 0.3761497785 0.0486523387 409.2348825949 0.2489215955 -1.2934906860
-0.3611332754 -0.8603870483 0.0000000000 0.3654403901 0.0265131089 422.4515638242 0.2492532627 -1.2961946596
-0.3783370033 -0.8884093416 0.0000000000 0.3557060608 0.0027029005 432.8082913361 0.2495378555 -1.2986204600
-0.3945107303 -0.9168853186 0.0000000000 0.3471712713 -0.0227491099 440.2091054473 0.2497797356 -1.3007991052
-0.4096218045 -0.9457879073 0.0000000000 0.3400440823 -0.0497470320 444.6152043738 0.2499835090 -1.3027484518
-0.4236383999 -0.9750830605 0.0000000000 0.3345040860 -0.0781439375 446.0442418773 0.2501548366 -1.3044805019
-0.4365294031 -1.0047324880 0.0000000000 0.3306961536 -0.1077580588 444.5649393576 0.2503005920 -1.3060040563
-0.4482645211 -1.0346947086 0.0000000000 0.3287277449 -0.1383874135 440.2889362781 0.2504287951 -1.3073256862
-0.4588144974 -1.0649254583 0.0000000000 0.3286690221 -0.1698221259 433.3613682212 0.2505484339 -1.3084500599
-0.4681513949 -1.0953778662 0.0000000000 0.3305551232 -0.2018543507 423.9510632102 0.2506692170 -1.3093800341
-0.4762489241 -1.1260025786 0.0000000000 0.3343899877 -0.2342859121 412.2410329832 0.2508012754 -1.3101166937
-0.4830828068 -1.1567479148 0.0000000000 0.3401511724 -0.2669338625 398.4197524231 0.2509548272 -1.3106594212
-0.4886311642 -1.1875600950 0.0000000000 0.3477951833 -0.2996342168 382.6735496753 0.2511398134 -1.3110060375
-0.4928749165 -1.2183835534 0.0000000000 0.3572629417 -0.3322441341 365.1802759617 0.2513655183 -1.3111530266
-0.4957981750 -1.2491613405 0.0000000000 0.3684850985 -0.3646428055 346.1043065306 0.2516401948 -1.3110958494
-0.4973885999 -1.2798356105 0.0000000000 0.3813869885 -0.3967312870 325.5928360828 0.2519707189 -1.3108293409
-0.4976376914 -1.3103481837 0.0000000000 0.3958930968 -0.4284315065 303.7733612635 0.2523623086 -1.3103481834
-0.4965409797 -1.3406411765 0.0000000000 0.4119309724 -0.4596846661 280.7521844189 0.2528183391 -1.3096474455
-0.4940980851 -1.3706576859 0.0000000000 0.4294345915 -0.4904492521 256.6137303665 0.2533402846 -1.3087231765
-0.4903126297 -1.4003425142 0.0000000000 0.4483472199 -0.5206988250 231.4204495634 0.2539278051 -1.3075730405
-0.4851919934 -1.4296429180 0.0000000000 0.4686238723 -0.5504197146 205.2130917109 0.2545789840 -1.3061969750