 TITLE = "Tecplot data"
 VARIABLES = "X", "Y", "Z" "U", "V", "p", "dispX", "dispY"
 ZONE SOLUTIONTIME=69.900000, NODES=26114 , ELEMENTS=25916, DATAPACKING=POINT, ZONETYPE=FEQUADRILATERAL
0.4636916434 0.2892831312 0.0000000000 0.0000000000 0.0000000000 -340.4303663877 0.1101382528 -0.0642702594
0.4636916437 -0.4178236497 0.0000000000 0.0000000000 0.0000000000 -1581.3045943440 0.1101382528 -0.0642702594
-0.2434151379 0.2892831311 0.0000000000 0.0000000000 0.0000000000 502.8915610330 0.1101382528 -0.0642702594
-0.2434151376 -0.4178236502 0.0000000000 0.0000000000 0.0000000000 608.5563979695 0.1101382528 -0.0642702594
0.6385419978 0.4665304576 0.0000000000 0.0383002062 -0.0510773167 -346.7879794566 0.1082119119 -0.0637996283
0.6428220732 -0.5958489886 0.0000000000 0.6898272965 0.1050848758 -831.6707849437 0.1124919869 -0.0655189031
-0.4181171595 0.4653817663 0.0000000000 0.2852399113 0.3396590104 501.8594811835 0.1122129265 -0.0649483194
-0.4197117800 -0.5955764821 0.0000000000 0.9278734162 -0.5340019516 553.5205229295 0.1106183056 -0.0652463959
1.1696569461 0.9958268755 0.0000000000 0.0334311139 -0.3686692419 -492.1022745333 0.1089967744 -0.0648332964
1.1721137113 -1.1252891993 0.0000000000 0.7660459917 -0.2092157727 -360.3131198000 0.1114535388 -0.0646290283
-0.9471169461 0.9929176685 0.0000000000 0.7335005303 0.2775976740 397.3269235913 0.1135432260 -0.0677425030
-0.9499362623 -1.1284002976 0.0000000000 0.9143285643 -0.2166607299 301.7649028551 0.1107239090 -0.0677401252
4.2979852342 3.2436649272 0.0000000000 1.0854392187 -0.0503967938 -35.2923936412 0.0979852342 -0.0563350728
4.3068939992 -3.3560178896 0.0000000000 1.1364759659 0.1025250409 -100.0685617779 0.1068939992 -0.0560178896
20.0000000000 4.7000000000 0.0000000000 1.0442013065 0.0208722775 -0.0813577976 0.0000000000 0.0000000000
20.0000000000 -4.7000000000 0.0000000000 1.0800114864 -0.0543589296 0.7229140570 0.0000000000 0.0000000000
-10.0000000000 15.0000000000 0.0000000000 1.0000000000 0.0000000000 117.0229392303 0.0000000000 0.0000000000
20.0000000000 15.0000000000 0.0000000000 1.0431483422 0.0000000000 0.0158656323 0.0000000000 0.0000000000
20.0000000000 -15.0000000000 0.0000000000 1.0466081809 0.0000000000 0.0168993480 0.0000000000 0.0000000000
-10.0000000000 -15.0000000000 0.0000000000 1.0000000000 0.0000000000 80.2259854385 0.0000000000 0.0000000000
0.4766641890 -0.4043566280 0.0000000000 0.0000000000 0.0000000000 -1550.0112612529 0.1101382528 -0.0642702594
0.4891241146 -0.3904139648 0.0000000000 0.0000000000 0.0000000000 -1490.1771274802 0.1101382528 -0.0642702594
0.5010539943 -0.3760151600 0.0000000000 0.0000000000 0.0000000000 -1442.0123800422 0.1101382528 -0.0642702594
0.5124371429 -0.3611803519 0.0000000000 0.0000000000 0.0000000000 -1386.6226655029 0.1101382528 -0.0642702594
0.5232576401 -0.3459302881 0.0000000000 0.0000000000 0.0000000000 -1333.1971795589 0.1101382528 -0.0642702594
0.5335003526 -0.3302862974 0.0000000000 0.0000000000 0.0000000000 -1278.1571116188 0.1101382528 -0.0642702594
0.5431509549 -0.3142702591 0.0000000000 0.0000000000 0.0000000000 -1223.9357348082 0.1101382528 -0.0642702594
0.5521959497 -0.2979045733 0.0000000000 0.0000000000 0.0000000000 -1170.1838851926 0.1101382528 -0.0642702594
0.5606226869 -0.2812121287 0.0000000000 0.0000000000 0.0000000000 -1116.9177989278 0.1101382528 -0.0642702594
0.5684193809 -0.2642162713 0.0000000000 0.0000000000 0.0000000000 -1067.4402262884 0.1101382528 -0.0642702594
0.5755751272 -0.2469407713 0.0000000000 0.0000000000 0.0000000000 -1010.4444949989 0.1101382528 -0.0642702594
0.5820799181 -0.2294097901 0.0000000000 0.0000000000 0.0000000000 -986.2264937080 0.1101382528 -0.0642702594
0.5879246558 -0.2116478463 0.0000000000 0.0000000000 0.0000000000 -924.0852289057 0.1101382528 -0.0642702594
0.5931011660 -0.1936797817 0.0000000000 0.0000000000 0.0000000000 -880.0143802531 0.1101382528 -0.0642702594
0.5976022090 -0.1755307261 0.0000000000 0.0000000000 0.0000000000 -838.6096259843 0.1101382528 -0.0642702594
0.6014214895 -0.1572260627 0.0000000000 0.0000000000 0.0000000000 -799.8591762840 0.1101382528 -0.0642702594
0.6045536660 -0.1387913922 0.0000000000 0.0000000000 0.0000000000 -763.5954861047 0.1101382528 -0.0642702594
0.6069943578 -0.1202524972 0.0000000000 0.0000000000 0.0000000000 -729.8088140804 0.1101382528 -0.0642702594
0.6087401514 -0.1016353060 0.0000000000 0.0000000000 0.0000000000 -698.4546285349 0.1101382528 -0.0642702594
0.6097886052 -0.0829658563 0.0000000000 0.0000000000 0.0000000000 -669.4722108826 0.1101382528 -0.0642702594
0.6101382528 -0.0642702592 0.0000000000 0.0000000000 0.0000000000 -642.7580130805 0.1101382528 -0.0642702594
0.6097886052 -0.0455746620 0.0000000000 0.0000000000 0.0000000000 -618.1944187744 0.1101382528 -0.0642702594
0.6087401514 -0.0269052124 0.0000000000 0.0000000000 0.0000000000 -595.6426450251 0.1101382528 -0.0642702594
0.6069943577 -0.0082880212 0.0000000000 0.0000000000 0.0000000000 -574.9456619880 0.1101382528 -0.0642702594
0.6045536659 0.0102508739 0.0000000000 0.0000000000 0.0000000000 -555.9192756991 0.1101382528 -0.0642702594
0.6014214894 0.0286855444 0.0000000000 0.0000000000 0.0000000000 -538.3812680313 0.1101382528 -0.0642702594
0.5976022089 0.0469902078 0.0000000000 0.0000000000 0.0000000000 -522.1393696701 0.1101382528 -0.0642702594
0.5931011659 0.0651392633 0.0000000000 0.0000000000 0.0000000000 -507.0057031585 0.1101382528 -0.0642702594
0.5879246557 0.0831073280 0.0000000000 0.0000000000 0.0000000000 -492.8012737833 0.1101382528 -0.0642702594
0.5820799179 0.1008692717 0.0000000000 0.0000000000 0.0000000000 -479.3568842206 0.1101382528 -0.0642702594
0.5755751271 0.1184002529 0.0000000000 0.0000000000 0.0000000000 -466.5324041589 0.1101382528 -0.0642702594
0.5684193807 0.1356757529 0.0000000000 0.0000000000 0.0000000000 -454.1835912437 0.1101382528 -0.0642702594
0.5606226867 0.1526716103 0.0000000000 0.0000000000 0.0000000000 -442.2233716086 0.1101382528 -0.0642702594
0.5521959495 0.1693640548 0.0000000000 0.0000000000 0.0000000000 -430.5456854716 0.1101382528 -0.0642702594
0.5431509547 0.1857297407 0.0000000000 0.0000000000 0.0000000000 -419.0918795146 0.1101382528 -0.0642702594
0.5335003524 0.2017457790 0.0000000000 0.0000000000 0.0000000000 -407.7789572736 0.1101382528 -0.0642702594
0.5232576399 0.2173897697 0.0000000000 0.0000000000 0.0000000000 -396.5835620002 0.1101382528 -0.0642702594
0.5124371426 0.2326398335 0.0000000000 0.0000000000 0.0000000000 -385.4201621374 0.1101382528 -0.0642702594
0.5010539940 0.2474746416 0.0000000000 0.0000000000 0.0000000000 -374.3082883509 0.1101382528 -0.0642702594
0.4891241143 0.2618734463 0.0000000000 0.0000000000 0.0000000000 -363.0972719660 0.1101382528 -0.0642702594
0.4766641887 0.2758161095 0.0000000000 0.0000000000 0.0000000000 -351.9577519949 0.1101382528 -0.0642702594
0.4487790386 0.3035916960 0.0000000000 0.0000000000 0.0000000000 -328.2192444815 0.1101382528 -0.0642702594
0.4332878717 0.3172717748 0.0000000000 0.0000000000 0.0000000000 -314.6921944808 0.1101382528 -0.0642702594
0.4172446091 0.3302999954 0.0000000000 0.0000000000 0.0000000000 -301.7394310311 0.1101382528 -0.0642702594
0.4006766605 0.3426540993 0.0000000000 0.0000000000 0.0000000000 -288.1518730393 0.1101382528 -0.0642702594
0.3836123318 0.3543129798 0.0000000000 0.0000000000 0.0000000000 -274.3208232422 0.1101382528 -0.0642702594
0.3660807773 0.3652567178 0.0000000000 0.0000000000 0.0000000000 -260.0380946174 0.1101382528 -0.0642702594
0.3481119493 0.3754666163 0.0000000000 0.0000000000 0.0000000000 -245.3412370946 0.1101382528 -0.0642702594
0.3297365472 0.3849252316 0.0000000000 0.0000000000 0.0000000000 -230.1585419939 0.1101382528 -0.0642702594
0.3109859651 0.3936164040 0.0000000000 0.0000000000 0.0000000000 -214.4790041711 0.1101382528 -0.0642702594
0.2918922380 0.4015252847 0.0000000000 0.0000000000 0.0000000000 -198.2637786492 0.1101382528 -0.0642702594
0.2724879873 0.4086383615 0.0000000000 0.0000000000 0.0000000000 -181.4955703769 0.1101382528 -0.0642702594
0.2528063649 0.4149434819 0.0000000000 0.0000000000 0.0000000000 -164.1505757065 0.1101382528 -0.0642702594
0.2328809963 0.4204298736 0.0000000000 0.0000000000 0.0000000000 -146.2143329480 0.1101382528 -0.0642702594
0.2127459238 0.4250881633 0.0000000000 0.0000000000 0.0000000000 -127.6725923247 0.1101382528 -0.0642702594
0.1924355479 0.4289103923 0.0000000000 0.0000000000 0.0000000000 -108.5162531369 0.1101382528 -0.0642702594
0.1719845684 0.4318900305 0.0000000000 0.0000000000 0.0000000000 -88.7378553876 0.1101382528 -0.0642702594
0.1514279254 0.4340219871 0.0000000000 0.0000000000 0.0000000000 -68.3330313590 0.1101382528 -0.0642702594
0.1308007398 0.4353026198 0.0000000000 0.0000000000 0.0000000000 -47.2990803296 0.1101382528 -0.0642702594
0.1101382527 0.4357297406 0.0000000000 0.0000000000 0.0000000000 -25.6349718897 0.1101382528 -0.0642702594
0.0894757656 0.4353026198 0.0000000000 0.0000000000 0.0000000000 -3.3407279616 0.1101382528 -0.0642702594
0.0688485800 0.4340219871 0.0000000000 0.0000000000 0.0000000000 19.5826722628 0.1101382528 -0.0642702594
0.0482919371 0.4318900305 0.0000000000 0.0000000000 0.0000000000 43.1338307498 0.1101382528 -0.0642702594
0.0278409576 0.4289103923 0.0000000000 0.0000000000 0.0000000000 67.3111259349 0.1101382528 -0.0642702594
0.0075305816 0.4250881633 0.0000000000 0.0000000000 0.0000000000 92.1127694793 0.1101382528 -0.0642702594
-0.0126044909 0.4204298736 0.0000000000 0.0000000000 0.0000000000 117.5367936594 0.1101382528 -0.0642702594
-0.0325298594 0.4149434818 0.0000000000 0.0000000000 0.0000000000 143.5812701202 0.1101382528 -0.0642702594
-0.0522114819 0.4086383614 0.0000000000 0.0000000000 0.0000000000 170.2442898818 0.1101382528 -0.0642702594
-0.0716157326 0.4015252846 0.0000000000 0.0000000000 0.0000000000 197.5231517423 0.1101382528 -0.0642702594
-0.0907094596 0.3936164039 0.0000000000 0.0000000000 0.0000000000 225.4146284729 0.1101382528 -0.0642702594
-0.1094600417 0.3849252315 0.0000000000 0.0000000000 0.0000000000 253.9149346068 0.1101382528 -0.0642702594
-0.1278354438 0.3754666162 0.0000000000 0.0000000000 0.0000000000 283.0188148056 0.1101382528 -0.0642702594
-0.1458042719 0.3652567177 0.0000000000 0.0000000000 0.0000000000 312.7204728047 0.1101382528 -0.0642702594
-0.1633358264 0.3543129797 0.0000000000 0.0000000000 0.0000000000 343.0116462909 0.1101382528 -0.0642702594
-0.1804001550 0.3426540992 0.0000000000 0.0000000000 0.0000000000 373.8829269412 0.1101382528 -0.0642702594
-0.1969681037 0.3302999952 0.0000000000 0.0000000000 0.0000000000 405.3229282592 0.1101382528 -0.0642702594
-0.2130113662 0.3172717746 0.0000000000 0.0000000000 0.0000000000 437.3165935341 0.1101382528 -0.0642702594
-0.2285025331 0.3035916959 0.0000000000 0.0000000000 0.0000000000 469.8464729998 0.1101382528 -0.0642702594
-0.2577237026 0.2743705263 0.0000000000 0.0000000000 0.0000000000 536.4299173376 0.1101382528 -0.0642702594
-0.2714037814 0.2588793594 0.0000000000 0.0000000000 0.0000000000 570.4411328308 0.1101382528 -0.0642702594
-0.2844320020 0.2428360968 0.0000000000 0.0000000000 0.0000000000 604.9107782586 0.1101382528 -0.0642702594
-0.2967861059 0.2262681482 0.0000000000 0.0000000000 0.0000000000 639.8370680743 0.1101382528 -0.0642702594
-0.3084449864 0.2092038195 0.0000000000 0.0000000000 0.0000000000 675.2378859669 0.1101382528 -0.0642702594
-0.3193887245 0.1916722650 0.0000000000 0.0000000000 0.0000000000 711.1566441491 0.1101382528 -0.0642702594
-0.3295986229 0.1737034370 0.0000000000 0.0000000000 0.0000000000 747.6645743334 0.1101382528 -0.0642702594
-0.3390572382 0.1553280349 0.0000000000 0.0000000000 0.0000000000 784.8567460876 0.1101382528 -0.0642702594
-0.3477484106 0.1365774528 0.0000000000 0.0000000000 0.0000000000 822.8400879263 0.1101382528 -0.0642702594
-0.3556572913 0.1174837257 0.0000000000 0.0000000000 0.0000000000 861.7122010524 0.1101382528 -0.0642702594
-0.3627703681 0.0980794750 0.0000000000 0.0000000000 0.0000000000 901.5337121615 0.1101382528 -0.0642702594
-0.3690754885 0.0783978526 0.0000000000 0.0000000000 0.0000000000 942.2959007588 0.1101382528 -0.0642702594
-0.3745618802 0.0584724840 0.0000000000 0.0000000000 0.0000000000 983.8930094508 0.1101382528 -0.0642702594
-0.3792201699 0.0383374115 0.0000000000 0.0000000000 0.0000000000 1026.0977875215 0.1101382528 -0.0642702594
-0.3830423989 0.0180270356 0.0000000000 0.0000000000 0.0000000000 1068.5568858013 0.1101382528 -0.0642702594
-0.3860220371 -0.0024239439 0.0000000000 0.0000000000 0.0000000000 1110.7853586432 0.1101382528 -0.0642702594
-0.3881539937 -0.0229805868 0.0000000000 0.0000000000 0.0000000000 1152.1976860440 0.1101382528 -0.0642702594
-0.3894346264 -0.0436077725 0.0000000000 0.0000000000 0.0000000000 1192.1045433210 0.1101382528 -0.0642702594
-0.3898617472 -0.0642702596 0.0000000000 0.0000000000 0.0000000000 1229.7876457485 0.1101382528 -0.0642702594
-0.3894346264 -0.0849327467 0.0000000000 0.0000000000 0.0000000000 1264.4489288163 0.1101382528 -0.0642702594
-0.3881539937 -0.1055599323 0.0000000000 0.0000000000 0.0000000000 1295.3731771467 0.1101382528 -0.0642702594
-0.3860220370 -0.1261165752 0.0000000000 0.0000000000 0.0000000000 1321.7205793328 0.1101382528 -0.0642702594
-0.3830423989 -0.1465675547 0.0000000000 0.0000000000 0.0000000000 1342.9361570252 0.1101382528 -0.0642702594
-0.3792201698 -0.1668779307 0.0000000000 0.0000000000 0.0000000000 1358.1047506012 0.1101382528 -0.0642702594
-0.3745618801 -0.1870130032 0.0000000000 0.0000000000 0.0000000000 1367.0760299237 0.1101382528 -0.0642702594
-0.3690754884 -0.2069383717 0.0000000000 0.0000000000 0.0000000000 1368.5935527618 0.1101382528 -0.0642702594
-0.3627703680 -0.2266199942 0.0000000000 0.0000000000 0.0000000000 1363.4727018503 0.1101382528 -0.0642702594
-0.3556572911 -0.2460242449 0.0000000000 0.0000000000 0.0000000000 1349.2412086207 0.1101382528 -0.0642702594
-0.3477484104 -0.2651179719 0.0000000000 0.0000000000 0.0000000000 1329.2386991015 0.1101382528 -0.0642702594
-0.3390572380 -0.2838685540 0.0000000000 0.0000000000 0.0000000000 1297.1067156989 0.1101382528 -0.0642702594
-0.3295986227 -0.3022439561 0.0000000000 0.0000000000 0.0000000000 1263.4668370317 0.1101382528 -0.0642702594
-0.3193887243 -0.3202127841 0.0000000000 0.0000000000 0.0000000000 1209.4347706761 0.1101382528 -0.0642702594
-0.3084449862 -0.3377443386 0.0000000000 0.0000000000 0.0000000000 1169.2664144090 0.1101382528 -0.0642702594
-0.2967861057 -0.3548086673 0.0000000000 0.0000000000 0.0000000000 1079.3484528437 0.1101382528 -0.0642702594
-0.2844320017 -0.3713766159 0.0000000000 0.0000000000 0.0000000000 1063.2108619257 0.1101382528 -0.0642702594
-0.2714037811 -0.3874198785 0.0000000000 0.0000000000 0.0000000000 885.3106186617 0.1101382528 -0.0642702594
-0.2577237024 -0.4029110454 0.0000000000 0.0000000000 0.0000000000 1132.1110215429 0.1101382528 -0.0642702594
-0.2285025328 -0.4321322149 0.0000000000 0.0000000000 0.0000000000 1858.2539284449 0.1101382528 -0.0642702594
-0.2130113659 -0.4458122937 0.0000000000 0.0000000000 0.0000000000 120.3044625591 0.1101382528 -0.0642702594
-0.1969681033 -0.4588405142 0.0000000000 0.0000000000 0.0000000000 571.4971043234 0.1101382528 -0.0642702594
-0.1804001547 -0.4711946182 0.0000000000 0.0000000000 0.0000000000 285.5425602386 0.1101382528 -0.0642702594
-0.1633358260 -0.4828534987 0.0000000000 0.0000000000 0.0000000000 230.9969761702 0.1101382528 -0.0642702594
-0.1458042715 -0.4937972367 0.0000000000 0.0000000000 0.0000000000 87.6306528585 0.1101382528 -0.0642702594
-0.1278354435 -0.5040071351 0.0000000000 0.0000000000 0.0000000000 -24.4163554092 0.1101382528 -0.0642702594
-0.1094600414 -0.5134657505 0.0000000000 0.0000000000 0.0000000000 -153.2005678244 0.1101382528 -0.0642702594
-0.0907094593 -0.5221569228 0.0000000000 0.0000000000 0.0000000000 -274.8013856551 0.1101382528 -0.0642702594
-0.0716157322 -0.5300658035 0.0000000000 0.0000000000 0.0000000000 -400.5096516983 0.1101382528 -0.0642702594
-0.0522114815 -0.5371788803 0.0000000000 0.0000000000 0.0000000000 -522.5988322014 0.1101382528 -0.0642702594
-0.0325298590 -0.5434840007 0.0000000000 0.0000000000 0.0000000000 -644.3218134063 0.1101382528 -0.0642702594
-0.0126044905 -0.5489703924 0.0000000000 0.0000000000 0.0000000000 -762.4656154394 0.1101382528 -0.0642702594
0.0075305820 -0.5536286821 0.0000000000 0.0000000000 0.0000000000 -877.7443148761 0.1101382528 -0.0642702594
0.0278409580 -0.5574509111 0.0000000000 0.0000000000 0.0000000000 -988.4723386880 0.1101382528 -0.0642702594
0.0482919375 -0.5604305493 0.0000000000 0.0000000000 0.0000000000 -1094.5049101896 0.1101382528 -0.0642702594
0.0688485804 -0.5625625059 0.0000000000 0.0000000000 0.0000000000 -1194.8329885106 0.1101382528 -0.0642702594
0.0894757660 -0.5638431386 0.0000000000 0.0000000000 0.0000000000 -1289.0388292996 0.1101382528 -0.0642702594
0.1101382531 -0.5642702594 0.0000000000 0.0000000000 0.0000000000 -1376.5278685665 0.1101382528 -0.0642702594
0.1308007402 -0.5638431386 0.0000000000 0.0000000000 0.0000000000 -1456.9551668838 0.1101382528 -0.0642702594
0.1514279259 -0.5625625059 0.0000000000 0.0000000000 0.0000000000 -1529.8572881549 0.1101382528 -0.0642702594
0.1719845688 -0.5604305492 0.0000000000 0.0000000000 0.0000000000 -1594.9977401650 0.1101382528 -0.0642702594
0.1924355483 -0.5574509110 0.0000000000 0.0000000000 0.0000000000 -1652.1383703959 0.1101382528 -0.0642702594
0.2127459242 -0.5536286820 0.0000000000 0.0000000000 0.0000000000 -1701.1280071898 0.1101382528 -0.0642702594
0.2328809967 -0.5489703923 0.0000000000 0.0000000000 0.0000000000 -1741.8728703445 0.1101382528 -0.0642702594
0.2528063652 -0.5434840005 0.0000000000 0.0000000000 0.0000000000 -1774.4018603277 0.1101382528 -0.0642702594
0.2724879877 -0.5371788801 0.0000000000 0.0000000000 0.0000000000 -1798.8092881799 0.1101382528 -0.0642702594
0.2918922384 -0.5300658033 0.0000000000 0.0000000000 0.0000000000 -1815.1391892668 0.1101382528 -0.0642702594
0.3109859654 -0.5221569226 0.0000000000 0.0000000000 0.0000000000 -1823.5249241676 0.1101382528 -0.0642702594
0.3297365475 -0.5134657502 0.0000000000 0.0000000000 0.0000000000 -1824.1676738317 0.1101382528 -0.0642702594
0.3481119496 -0.5040071348 0.0000000000 0.0000000000 0.0000000000 -1817.2558224422 0.1101382528 -0.0642702594
0.3660807776 -0.4937972364 0.0000000000 0.0000000000 0.0000000000 -1803.1666689546 0.1101382528 -0.0642702594
0.3836123322 -0.4828534983 0.0000000000 0.0000000000 0.0000000000 -1782.1534226693 0.1101382528 -0.0642702594
0.4006766608 -0.4711946178 0.0000000000 0.0000000000 0.0000000000 -1754.5220862763 0.1101382528 -0.0642702594
0.4172446094 -0.4588405139 0.0000000000 0.0000000000 0.0000000000 -1721.5679408472 0.1101382528 -0.0642702594
0.4332878720 -0.4458122933 0.0000000000 0.0000000000 0.0000000000 -1680.3154727650 0.1101382528 -0.0642702594
0.4487790389 -0.4321322145 0.0000000000 0.0000000000 0.0000000000 -1642.7466855947 0.1101382528 -0.0642702594
0.6620403274 -0.5755511857 0.0000000000 0.6546484807 0.1051861602 -823.1856993294 0.1122514232 -0.0654216328
0.6805910574 -0.5546331345 0.0000000000 0.6192685330 0.1054533288 -813.7394026123 0.1121122647 -0.0654175765
0.6983598862 -0.5330465464 0.0000000000 0.5838386762 0.1059933086 -803.5826627214 0.1119862740 -0.0654291954
0.7153040507 -0.5108093625 0.0000000000 0.5485448869 0.1067712763 -792.8313664793 0.1118557156 -0.0654442237
0.7313937599 -0.4879492374 0.0000000000 0.5135826148 0.1077019793 -781.5588625411 0.1117146789 -0.0654591943
0.7466042681 -0.4644971600 0.0000000000 0.4791506505 0.1086757099 -769.8196494583 0.1115611185 -0.0654731030
0.7609138322 -0.4404858326 0.0000000000 0.4454437656 0.1095753097 -757.6574515421 0.1113947791 -0.0654858330
0.7743029630 -0.4159490624 0.0000000000 0.4126455383 0.1102895767 -745.1104052591 0.1112164177 -0.0654975916
0.7867540496 -0.3909214695 0.0000000000 0.3809220421 0.1107232169 -732.2148802141 0.1110273985 -0.0655086656
0.7982511373 -0.3654383283 0.0000000000 0.3504168867 0.1108030380 -719.0081124363 0.1108294452 -0.0655193105
0.8087797940 -0.3395354696 0.0000000000 0.3212479354 0.1104804592 -705.5298490668 0.1106244824 -0.0655297017
0.8183270329 -0.3132492097 0.0000000000 0.2935057868 0.1097307966 -691.8231380622 0.1104145351 -0.0655399136
0.8268812656 -0.2866162904 0.0000000000 0.2672539075 0.1085500981 -677.9344387572 0.1102016612 -0.0655499100
0.8344322724 -0.2596738224 0.0000000000 0.2425301388 0.1069504342 -663.9132221613 0.1099879026 -0.0655595389
0.8409711800 -0.2324592314 0.0000000000 0.2193492090 0.1049545297 -649.8112139535 0.1097752458 -0.0655685313
0.8464904442 -0.2050102073 0.0000000000 0.1977058639 0.1025904678 -635.6814103278 0.1095655892 -0.0655765023
0.8509838363 -0.1773646565 0.0000000000 0.1775782579 0.0998869858 -621.5769755896 0.1093607166 -0.0655829572
0.8544464334 -0.1495606583 0.0000000000 0.1589313010 0.0968696618 -607.5501117835 0.1091622759 -0.0655873016
0.8568746123 -0.1216364266 0.0000000000 0.1417197227 0.0935581199 -593.6509734889 0.1089717644 -0.0655888567
0.8582660466 -0.0936302746 0.0000000000 0.1258906700 0.0899642700 -579.9266833296 0.1087905180 -0.0655868792
0.8586197054 -0.0655805846 0.0000000000 0.1113857378 0.0860915557 -566.4204850297 0.1086197054 -0.0655805849
0.8579358554 -0.0375257798 0.0000000000 0.0981424315 0.0819351757 -553.1710516042 0.1084603268 -0.0655691758
0.8562160645 -0.0095042982 0.0000000000 0.0860952002 0.0774832440 -540.2119466126 0.1083132166 -0.0655518686
0.8534632097 0.0184454324 0.0000000000 0.0751763091 0.0727187906 -527.5712136881 0.1081790523 -0.0655279249
0.8496814879 0.0462850199 0.0000000000 0.0653168983 0.0676223349 -515.2710390747 0.1080583683 -0.0654966799
0.8448764303 0.0739761348 0.0000000000 0.0564485491 0.0621744769 -503.3273932176 0.1079515754 -0.0654575708
0.8390549206 0.1014805396 0.0000000000 0.0485055563 0.0563576295 -491.7495252404 0.1078589865 -0.0654101612
0.8322252148 0.1287601234 0.0000000000 0.0414279670 0.0501559113 -480.5391949035 0.1077808451 -0.0653541606
0.8243969610 0.1557769430 0.0000000000 0.0351653973 0.0435526979 -469.6896280487 0.1077173567 -0.0652894381
0.8155812179 0.1824932723 0.0000000000 0.0296817158 0.0365266962 -459.1843974081 0.1076687202 -0.0652160243
0.8057904666 0.2088716652 0.0000000000 0.0249607209 0.0290495599 -448.9967146723 0.1076351551 -0.0651341033
0.7950386125 0.2348750305 0.0000000000 0.0210125890 0.0210901404 -439.0898339226 0.1076169206 -0.0650439879
0.7833409671 0.2604667238 0.0000000000 0.0178798374 0.0126308304 -429.4192214011 0.1076143163 -0.0649460807
0.7707141974 0.2856106512 0.0000000000 0.0156399508 0.0036983806 -419.9367035312 0.1076276524 -0.0648408201
0.7571762264 0.3102713801 0.0000000000 0.0144005115 -0.0055954898 -410.5959971565 0.1076571736 -0.0647286201
0.7427460729 0.3344142369 0.0000000000 0.0142830112 -0.0150173947 -401.3581175189 0.1077029236 -0.0646098206
0.7274436358 0.3580053693 0.0000000000 0.0153945740 -0.0241994907 -392.1946134660 0.1077645552 -0.0644846744
0.7112894426 0.3810117390 0.0000000000 0.0177922477 -0.0326685882 -383.0868353694 0.1078411078 -0.0643534003
0.6943043644 0.4034010135 0.0000000000 0.0214502756 -0.0399220001 -374.0207421371 0.1079307526 -0.0642163380
0.6765090734 0.4251412429 0.0000000000 0.0262425035 -0.0455341672 -364.9780963567 0.1080302811 -0.0640743157
0.6579224333 0.4462001550 0.0000000000 0.0319496970 -0.0492602618 -355.9255873074 0.1081335295 -0.0639293984
0.6162836558 0.4881342940 0.0000000000 0.0456878597 -0.0511389225 -336.6333543690 0.1083224771 -0.0636586391
0.5931548550 0.5087632608 0.0000000000 0.0531690331 -0.0496389077 -326.1804184079 0.1084304267 -0.0635497904
0.5692154437 0.5284058131 0.0000000000 0.0604953037 -0.0471068265 -315.3807314438 0.1085559092 -0.0634495690
0.5445061437 0.5470313462 0.0000000000 0.0675741629 -0.0439768767 -304.1373078364 0.1086985322 -0.0633551918
0.5190670974 0.5646092430 0.0000000000 0.0744190296 -0.0405277116 -292.3718926845 0.1088559789 -0.0632656157
0.4929390550 0.5811095043 0.0000000000 0.0811088230 -0.0369180117 -280.0238394816 0.1090252682 -0.0631809615
0.4661639466 0.5965032879 0.0000000000 0.0877421619 -0.0332450670 -267.0448602722 0.1092034019 -0.0631020255
0.4387850385 0.6107632772 0.0000000000 0.0943997579 -0.0295721702 -253.3922002468 0.1093875969 -0.0630299593
0.4108469254 0.6238639622 0.0000000000 0.1011220926 -0.0259197456 -239.0253640409 0.1095753570 -0.0629660328
0.3823954543 0.6357818219 0.0000000000 0.1079052690 -0.0222517322 -223.9076934344 0.1097644765 -0.0629114942
0.3534776305 0.6464954300 0.0000000000 0.1147120857 -0.0184834897 -208.0102688345 0.1099530287 -0.0628675013
0.3241415276 0.6559855233 0.0000000000 0.1214903341 -0.0145078170 -191.3149693154 0.1101393595 -0.0628350886
0.2944362029 0.6642350551 0.0000000000 0.1281895891 -0.0102192794 -173.8154641360 0.1103220877 -0.0628151444
0.2644116136 0.6712292447 0.0000000000 0.1347716505 -0.0055252366 -155.5164612768 0.1105001070 -0.0628083894
0.2341185274 0.6769556231 0.0000000000 0.1412145913 -0.0003462015 -136.4317616088 0.1106725849 -0.0628153544
0.2036084242 0.6814040717 0.0000000000 0.1475127145 0.0053876059 -116.5815343068 0.1108389509 -0.0628363631
0.1729333839 0.6845668507 0.0000000000 0.1536745251 0.0117400710 -95.9892778882 0.1109988750 -0.0628715190
0.1421459631 0.6864386185 0.0000000000 0.1597198741 0.0187730646 -74.6789345708 0.1111522326 -0.0629207003
0.1112990594 0.6870164403 0.0000000000 0.1656767485 0.0265507670 -52.6724916021 0.1112990595 -0.0629835597
0.0804457673 0.6862997906 0.0000000000 0.1715775585 0.0351440418 -29.9883024304 0.1114394981 -0.0630595281
0.0496392300 0.6842905480 0.0000000000 0.1774538220 0.0446327990 -6.6403506270 0.1115737393 -0.0631478217
0.0189324898 0.6809929837 0.0000000000 0.1833273977 0.0551021537 17.3615219714 0.1117019634 -0.0632474511
-0.0116216592 0.6764137435 0.0000000000 0.1891991969 0.0666296176 42.0111639232 0.1118242836 -0.0633572340
-0.0419708125 0.6705618213 0.0000000000 0.1950470706 0.0792769225 67.3073372907 0.1119406943 -0.0634758126
-0.0720630893 0.6634485248 0.0000000000 0.2008576611 0.0931343295 93.2589206663 0.1120510262 -0.0636016747
-0.1018472588 0.6550874321 0.0000000000 0.2067090771 0.1084785541 119.8942978239 0.1121549096 -0.0637331797
-0.1312728566 0.6454943431 0.0000000000 0.2128725090 0.1260277229 147.2700280184 0.1122517455 -0.0638685881
-0.1602902925 0.6346872253 0.0000000000 0.2198358720 0.1471012745 175.4691648993 0.1123406856 -0.0640060907
-0.1888509502 0.6226861579 0.0000000000 0.2281455524 0.1733624814 204.5813357422 0.1124206185 -0.0641438371
-0.2169072806 0.6095132764 0.0000000000 0.2380709547 0.2059573443 234.6679924197 0.1124901612 -0.0642799600
-0.2444128987 0.5951927233 0.0000000000 0.2492700280 0.2443192835 265.7332186400 0.1125476462 -0.0644125900
-0.2713226969 0.5797506126 0.0000000000 0.2607130970 0.2853747312 297.7257405661 0.1125910901 -0.0645398531
-0.2975930149 0.5632150279 0.0000000000 0.2709898259 0.3238683039 330.5675551489 0.1126181039 -0.0646598307
-0.3231819634 0.5456161072 0.0000000000 0.2788599468 0.3538841680 364.1641673218 0.1126256483 -0.0647704306
-0.3480501801 0.5269863739 0.0000000000 0.2837339665 0.3708437726 398.3692411783 0.1126093546 -0.0648690080
-0.3721630258 0.5073619988 0.0000000000 0.2858267941 0.3729516794 432.9437185065 0.1125614028 -0.0649510522
-0.3954984859 0.4867883643 0.0000000000 0.2859599898 0.3614335220 467.5551429883 0.1124626929 -0.0650045686
-0.4394827711 0.4427936234 0.0000000000 0.2838855578 0.3115358591 535.4562288389 0.1123101621 -0.0651675552
-0.4600534255 0.4194346793 0.0000000000 0.2830034971 0.2805097315 568.2487097788 0.1122596258 -0.0652897489
-0.4796973998 0.3952697397 0.0000000000 0.2826964987 0.2486930899 600.1213779341 0.1121579824 -0.0653897946
-0.4983627055 0.3703303418 0.0000000000 0.2830040685 0.2170448748 631.0597626135 0.1120238326 -0.0654772695
-0.5160100906 0.3446551479 0.0000000000 0.2839270490 0.1857609965 661.0935316135 0.1118647683 -0.0655559705
-0.5326052102 0.3182857074 0.0000000000 0.2854855590 0.1547075335 690.2485136676 0.1116852557 -0.0656280792
-0.5481165581 0.2912654187 0.0000000000 0.2877291625 0.1237085109 718.5236820814 0.1114887554 -0.0656951258
-0.5625148471 0.2636391837 0.0000000000 0.2907262963 0.0926588554 745.8872999148 0.1112783895 -0.0657582577
-0.5757728189 0.2354532400 0.0000000000 0.2945521566 0.0615289433 772.2825561141 0.1110571762 -0.0658183282
-0.5878652102 0.2067550505 0.0000000000 0.2992827127 0.0303332537 797.6342079013 0.1108281059 -0.0658759272
-0.5987687806 0.1775932088 0.0000000000 0.3049935267 -0.0008959832 821.8523336771 0.1105941507 -0.0659313928
-0.6084623670 0.1480173477 0.0000000000 0.3117599939 -0.0321199397 844.8332295777 0.1103582449 -0.0659848202
-0.6169269469 0.1180780421 0.0000000000 0.3196569780 -0.0632938649 866.4590628036 0.1101232526 -0.0660360730
-0.6241457009 0.0878267075 0.0000000000 0.3287574911 -0.0943641677 886.5977301486 0.1098919331 -0.0660847989
-0.6301040672 0.0573154908 0.0000000000 0.3391308274 -0.1252658936 905.1036106333 0.1096669104 -0.0661304516
-0.6347897851 0.0265971536 0.0000000000 0.3508405962 -0.1559216933 921.8192840798 0.1094506498 -0.0661723196
-0.6381929250 -0.0042750530 0.0000000000 0.3639428894 -0.1862420111 936.5780047478 0.1092454448 -0.0662095618
-0.6403059058 -0.0352475210 0.0000000000 0.3784846545 -0.2161259868 949.2066697346 0.1090534130 -0.0662412514
-0.6411235009 -0.0662664278 0.0000000000 0.3945022754 -0.2454627512 959.5290598179 0.1088764991 -0.0662664275
-0.6406428357 -0.0972778832 0.0000000000 0.4120203434 -0.2741329805 967.3691739173 0.1087164831 -0.0662841522
-0.6388633783 -0.1282280812 0.0000000000 0.4310505998 -0.3020106539 972.5545097573 0.1085749914 -0.0662935718
-0.6357869219 -0.1590634515 0.0000000000 0.4515910291 -0.3289649562 974.9191726023 0.1084535128 -0.0662939777
-0.6314175551 -0.1897308074 0.0000000000 0.4736250949 -0.3548622423 974.3067301206 0.1083534224 -0.0662848643
-0.6257616143 -0.2201774861 0.0000000000 0.4971211391 -0.3795679515 970.5727728487 0.1082760196 -0.0662659792