 TITLE = "Tecplot data"
 VARIABLES = "X", "Y", "Z" "U", "V", "p", "dispX", "dispY"
 ZONE SOLUTIONTIME=78.900000, NODES=26114 , ELEMENTS=25916, DATAPACKING=POINT, ZONETYPE=FEQUADRILATERAL
0.6147581848 1.9946246374 0.0000000000 0.0000000000 0.0000000000 -1727.5475700136 0.2612047942 1.6410712468
0.6147581851 1.2875178564 0.0000000000 0.0000000000 0.0000000000 40.2752082051 0.2612047942 1.6410712468
-0.0923485965 1.9946246372 0.0000000000 0.0000000000 0.0000000000 -1013.0604557778 0.2612047942 1.6410712468
-0.0923485962 1.2875178560 0.0000000000 0.0000000000 0.0000000000 391.8413663344 0.2612047942 1.6410712468
0.7883144597 2.1706334926 0.0000000000 1.1356199131 -0.5212043475 -653.0731912252 0.2579843738 1.6403034067
0.8104380147 1.1699802768 0.0000000000 0.1469596960 0.1562933303 27.4273175484 0.2801079284 1.7003103623
-0.2370158937 2.2197365782 0.0000000000 1.3675165762 0.7600343979 -386.3078039606 0.2933141923 1.6894064925
-0.2838892738 1.1384141160 0.0000000000 0.1991295110 -0.0604023975 402.6259555394 0.2464408118 1.6687442022
1.3485265655 2.7237327688 0.0000000000 1.0750599676 -0.0062015378 -216.0667133670 0.2878663938 1.6630725969
1.3102806776 0.6283714614 0.0000000000 0.3336962034 0.1927893574 -17.5468189979 0.2496205050 1.6890316325
-0.7139461728 2.8622634368 0.0000000000 1.1249605182 0.3075466596 -47.7782186574 0.3467139993 1.8016032653
-0.8471373084 0.7019470423 0.0000000000 0.5415363854 0.0405853638 330.3161705691 0.2135228628 1.7626072146
4.6083219443 4.7600432304 0.0000000000 1.1700505390 -0.0214640084 -100.9761330343 0.4083219443 1.4600432304
4.2808049135 -1.8439954719 0.0000000000 1.0367904100 -0.1596852082 -155.4794511857 0.0808049135 1.4560045281
20.0000000000 4.7000000000 0.0000000000 1.0676980979 0.0294475161 -0.0303762920 0.0000000000 0.0000000000
20.0000000000 -4.7000000000 0.0000000000 1.0679334563 -0.0615925367 0.5166271909 0.0000000000 0.0000000000
-10.0000000000 15.0000000000 0.0000000000 1.0000000000 0.0000000000 22.3399609912 0.0000000000 0.0000000000
20.0000000000 15.0000000000 0.0000000000 1.0475855541 0.0000000000 0.0296044475 0.0000000000 0.0000000000
20.0000000000 -15.0000000000 0.0000000000 1.0505045422 0.0000000000 0.0359823214 0.0000000000 0.0000000000
-10.0000000000 -15.0000000000 0.0000000000 1.0000000000 0.0000000000 82.8839335515 0.0000000000 0.0000000000
0.6277307304 1.3009848781 0.0000000000 0.0000000000 0.0000000000 22.4546594433 0.2612047942 1.6410712468
0.6401906560 1.3149275414 0.0000000000 0.0000000000 0.0000000000 29.0765200539 0.2612047942 1.6410712468
0.6521205356 1.3293263461 0.0000000000 0.0000000000 0.0000000000 15.2206331630 0.2612047942 1.6410712468
0.6635036843 1.3441611542 0.0000000000 0.0000000000 0.0000000000 16.7347032098 0.2612047942 1.6410712468
0.6743241815 1.3594112180 0.0000000000 0.0000000000 0.0000000000 11.1352525308 0.2612047942 1.6410712468
0.6845668940 1.3750552088 0.0000000000 0.0000000000 0.0000000000 5.0992205469 0.2612047942 1.6410712468
0.6942174963 1.3910712470 0.0000000000 0.0000000000 0.0000000000 -1.9266660309 0.2612047942 1.6410712468
0.7032624911 1.4074369329 0.0000000000 0.0000000000 0.0000000000 -10.2793617044 0.2612047942 1.6410712468
0.7116892283 1.4241293775 0.0000000000 0.0000000000 0.0000000000 -19.7652107038 0.2612047942 1.6410712468
0.7194859223 1.4411252349 0.0000000000 0.0000000000 0.0000000000 -30.8532506411 0.2612047942 1.6410712468
0.7266416686 1.4584007348 0.0000000000 0.0000000000 0.0000000000 -43.2596080104 0.2612047942 1.6410712468
0.7331464594 1.4759317160 0.0000000000 0.0000000000 0.0000000000 -57.5333729707 0.2612047942 1.6410712468
0.7389911972 1.4936936598 0.0000000000 0.0000000000 0.0000000000 -73.5662663784 0.2612047942 1.6410712468
0.7441677074 1.5116617245 0.0000000000 0.0000000000 0.0000000000 -91.6369950219 0.2612047942 1.6410712468
0.7486687504 1.5298107800 0.0000000000 0.0000000000 0.0000000000 -111.8602806500 0.2612047942 1.6410712468
0.7524880309 1.5481154434 0.0000000000 0.0000000000 0.0000000000 -134.2906038770 0.2612047942 1.6410712468
0.7556202074 1.5665501139 0.0000000000 0.0000000000 0.0000000000 -159.3569447616 0.2612047942 1.6410712468
0.7580608992 1.5850890089 0.0000000000 0.0000000000 0.0000000000 -187.0041601090 0.2612047942 1.6410712468
0.7598066928 1.6037062002 0.0000000000 0.0000000000 0.0000000000 -217.4416865698 0.2612047942 1.6410712468
0.7608551466 1.6223756498 0.0000000000 0.0000000000 0.0000000000 -250.7129962764 0.2612047942 1.6410712468
0.7612047942 1.6410712470 0.0000000000 0.0000000000 0.0000000000 -287.1936790799 0.2612047942 1.6410712468
0.7608551466 1.6597668441 0.0000000000 0.0000000000 0.0000000000 -326.6399469432 0.2612047942 1.6410712468
0.7598066928 1.6784362937 0.0000000000 0.0000000000 0.0000000000 -369.5378156468 0.2612047942 1.6410712468
0.7580608991 1.6970534850 0.0000000000 0.0000000000 0.0000000000 -415.5233647401 0.2612047942 1.6410712468
0.7556202073 1.7155923800 0.0000000000 0.0000000000 0.0000000000 -464.8227316612 0.2612047942 1.6410712468
0.7524880308 1.7340270505 0.0000000000 0.0000000000 0.0000000000 -517.2359888341 0.2612047942 1.6410712468
0.7486687503 1.7523317139 0.0000000000 0.0000000000 0.0000000000 -573.2927064416 0.2612047942 1.6410712468
0.7441677073 1.7704807695 0.0000000000 0.0000000000 0.0000000000 -630.7247764894 0.2612047942 1.6410712468
0.7389911971 1.7884488341 0.0000000000 0.0000000000 0.0000000000 -692.9806979663 0.2612047942 1.6410712468
0.7331464593 1.8062107779 0.0000000000 0.0000000000 0.0000000000 -754.3693554383 0.2612047942 1.6410712468
0.7266416685 1.8237417591 0.0000000000 0.0000000000 0.0000000000 -820.9474781030 0.2612047942 1.6410712468
0.7194859221 1.8410172590 0.0000000000 0.0000000000 0.0000000000 -885.5844799064 0.2612047942 1.6410712468
0.7116892281 1.8580131164 0.0000000000 0.0000000000 0.0000000000 -952.6986185898 0.2612047942 1.6410712468
0.7032624909 1.8747055610 0.0000000000 0.0000000000 0.0000000000 -1022.7364144379 0.2612047942 1.6410712468
0.6942174960 1.8910712468 0.0000000000 0.0000000000 0.0000000000 -1083.9862961977 0.2612047942 1.6410712468
0.6845668938 1.9070872851 0.0000000000 0.0000000000 0.0000000000 -1164.5908548027 0.2612047942 1.6410712468
0.6743241813 1.9227312759 0.0000000000 0.0000000000 0.0000000000 -1212.7541391740 0.2612047942 1.6410712468
0.6635036840 1.9379813396 0.0000000000 0.0000000000 0.0000000000 -1308.2489422283 0.2612047942 1.6410712468
0.6521205354 1.9528161477 0.0000000000 0.0000000000 0.0000000000 -1328.3394138517 0.2612047942 1.6410712468
0.6401906557 1.9672149524 0.0000000000 0.0000000000 0.0000000000 -1524.9308949175 0.2612047942 1.6410712468
0.6277307301 1.9811576157 0.0000000000 0.0000000000 0.0000000000 -1300.8978566813 0.2612047942 1.6410712468
0.5998455800 2.0089332021 0.0000000000 0.0000000000 0.0000000000 -1529.4312046476 0.2612047942 1.6410712468
0.5843544131 2.0226132809 0.0000000000 0.0000000000 0.0000000000 -1755.3904375803 0.2612047942 1.6410712468
0.5683111505 2.0356415015 0.0000000000 0.0000000000 0.0000000000 -1754.8106276537 0.2612047942 1.6410712468
0.5517432019 2.0479956054 0.0000000000 0.0000000000 0.0000000000 -1845.2918636898 0.2612047942 1.6410712468
0.5346788732 2.0596544859 0.0000000000 0.0000000000 0.0000000000 -1902.2393710307 0.2612047942 1.6410712468
0.5171473187 2.0705982240 0.0000000000 0.0000000000 0.0000000000 -1961.5734835108 0.2612047942 1.6410712468
0.4991784907 2.0808081224 0.0000000000 0.0000000000 0.0000000000 -2019.2741951962 0.2612047942 1.6410712468
0.4808030886 2.0902667377 0.0000000000 0.0000000000 0.0000000000 -2067.9725193976 0.2612047942 1.6410712468
0.4620525065 2.0989579101 0.0000000000 0.0000000000 0.0000000000 -2117.8667255555 0.2612047942 1.6410712468
0.4429587794 2.1068667908 0.0000000000 0.0000000000 0.0000000000 -2156.9156973473 0.2612047942 1.6410712468
0.4235545287 2.1139798676 0.0000000000 0.0000000000 0.0000000000 -2193.3793149486 0.2612047942 1.6410712468
0.4038729062 2.1202849880 0.0000000000 0.0000000000 0.0000000000 -2221.3173232775 0.2612047942 1.6410712468
0.3839475377 2.1257713798 0.0000000000 0.0000000000 0.0000000000 -2243.6435493918 0.2612047942 1.6410712468
0.3638124652 2.1304296694 0.0000000000 0.0000000000 0.0000000000 -2258.3646511002 0.2612047942 1.6410712468
0.3435020893 2.1342518985 0.0000000000 0.0000000000 0.0000000000 -2266.2899750097 0.2612047942 1.6410712468
0.3230511097 2.1372315366 0.0000000000 0.0000000000 0.0000000000 -2267.1667119187 0.2612047942 1.6410712468
0.3024944668 2.1393634933 0.0000000000 0.0000000000 0.0000000000 -2260.5904843440 0.2612047942 1.6410712468
0.2818672812 2.1406441260 0.0000000000 0.0000000000 0.0000000000 -2247.9146860868 0.2612047942 1.6410712468
0.2612047941 2.1410712468 0.0000000000 0.0000000000 0.0000000000 -2227.7249559225 0.2612047942 1.6410712468
0.2405423070 2.1406441259 0.0000000000 0.0000000000 0.0000000000 -2203.0125053220 0.2612047942 1.6410712468
0.2199151214 2.1393634933 0.0000000000 0.0000000000 0.0000000000 -2172.1376006731 0.2612047942 1.6410712468
0.1993584785 2.1372315366 0.0000000000 0.0000000000 0.0000000000 -2132.8579869737 0.2612047942 1.6410712468
0.1789074990 2.1342518984 0.0000000000 0.0000000000 0.0000000000 -2086.3565628209 0.2612047942 1.6410712468
0.1585971230 2.1304296694 0.0000000000 0.0000000000 0.0000000000 -2043.1657989932 0.2612047942 1.6410712468
0.1384620505 2.1257713797 0.0000000000 0.0000000000 0.0000000000 -1986.3832894255 0.2612047942 1.6410712468
0.1185366820 2.1202849880 0.0000000000 0.0000000000 0.0000000000 -1930.0577406967 0.2612047942 1.6410712468
0.0988550595 2.1139798676 0.0000000000 0.0000000000 0.0000000000 -1865.0297907096 0.2612047942 1.6410712468
0.0794508088 2.1068667907 0.0000000000 0.0000000000 0.0000000000 -1807.8323498313 0.2612047942 1.6410712468
0.0603570818 2.0989579100 0.0000000000 0.0000000000 0.0000000000 -1727.1298565547 0.2612047942 1.6410712468
0.0416064997 2.0902667376 0.0000000000 0.0000000000 0.0000000000 -1668.4913596018 0.2612047942 1.6410712468
0.0232310976 2.0808081223 0.0000000000 0.0000000000 0.0000000000 -1584.5289527826 0.2612047942 1.6410712468
0.0052622695 2.0705982239 0.0000000000 0.0000000000 0.0000000000 -1513.1518224001 0.2612047942 1.6410712468
-0.0122692850 2.0596544858 0.0000000000 0.0000000000 0.0000000000 -1436.9485933717 0.2612047942 1.6410712468
-0.0293336136 2.0479956053 0.0000000000 0.0000000000 0.0000000000 -1354.0173185862 0.2612047942 1.6410712468
-0.0459015623 2.0356415014 0.0000000000 0.0000000000 0.0000000000 -1272.3449064271 0.2612047942 1.6410712468
-0.0619448248 2.0226132808 0.0000000000 0.0000000000 0.0000000000 -1189.7992463593 0.2612047942 1.6410712468
-0.0774359917 2.0089332020 0.0000000000 0.0000000000 0.0000000000 -1095.6452663982 0.2612047942 1.6410712468
-0.1066571612 1.9797120325 0.0000000000 0.0000000000 0.0000000000 -894.2318375723 0.2612047942 1.6410712468
-0.1203372400 1.9642208656 0.0000000000 0.0000000000 0.0000000000 -923.9109963820 0.2612047942 1.6410712468
-0.1333654606 1.9481776030 0.0000000000 0.0000000000 0.0000000000 -637.2136019774 0.2612047942 1.6410712468
-0.1457195645 1.9316096543 0.0000000000 0.0000000000 0.0000000000 -592.6739605661 0.2612047942 1.6410712468
-0.1573784450 1.9145453257 0.0000000000 0.0000000000 0.0000000000 -476.0400116745 0.2612047942 1.6410712468
-0.1683221831 1.8970137712 0.0000000000 0.0000000000 0.0000000000 -386.2889429773 0.2612047942 1.6410712468
-0.1785320815 1.8790449431 0.0000000000 0.0000000000 0.0000000000 -294.8517136529 0.2612047942 1.6410712468
-0.1879906968 1.8606695410 0.0000000000 0.0000000000 0.0000000000 -209.7130347581 0.2612047942 1.6410712468
-0.1966818692 1.8419189589 0.0000000000 0.0000000000 0.0000000000 -128.7131950168 0.2612047942 1.6410712468
-0.2045907499 1.8228252319 0.0000000000 0.0000000000 0.0000000000 -52.6759229495 0.2612047942 1.6410712468
-0.2117038267 1.8034209812 0.0000000000 0.0000000000 0.0000000000 18.4902926184 0.2612047942 1.6410712468
-0.2180089471 1.7837393587 0.0000000000 0.0000000000 0.0000000000 84.5662116310 0.2612047942 1.6410712468
-0.2234953388 1.7638139901 0.0000000000 0.0000000000 0.0000000000 145.4804904846 0.2612047942 1.6410712468
-0.2281536285 1.7436789177 0.0000000000 0.0000000000 0.0000000000 201.1332744808 0.2612047942 1.6410712468
-0.2319758575 1.7233685417 0.0000000000 0.0000000000 0.0000000000 251.4888466289 0.2612047942 1.6410712468
-0.2349554957 1.7029175622 0.0000000000 0.0000000000 0.0000000000 296.5366084995 0.2612047942 1.6410712468
-0.2370874523 1.6823609193 0.0000000000 0.0000000000 0.0000000000 336.3191194492 0.2612047942 1.6410712468
-0.2383680850 1.6617337337 0.0000000000 0.0000000000 0.0000000000 370.9178169591 0.2612047942 1.6410712468
-0.2387952058 1.6410712466 0.0000000000 0.0000000000 0.0000000000 400.4702625000 0.2612047942 1.6410712468
-0.2383680850 1.6204087594 0.0000000000 0.0000000000 0.0000000000 425.1501399182 0.2612047942 1.6410712468
-0.2370874523 1.5997815738 0.0000000000 0.0000000000 0.0000000000 445.2005840312 0.2612047942 1.6410712468
-0.2349554956 1.5792249309 0.0000000000 0.0000000000 0.0000000000 460.8709049668 0.2612047942 1.6410712468
-0.2319758575 1.5587739514 0.0000000000 0.0000000000 0.0000000000 472.5180713478 0.2612047942 1.6410712468
-0.2281536284 1.5384635754 0.0000000000 0.0000000000 0.0000000000 480.4036155078 0.2612047942 1.6410712468
-0.2234953387 1.5183285030 0.0000000000 0.0000000000 0.0000000000 485.0268562495 0.2612047942 1.6410712468
-0.2180089470 1.4984031344 0.0000000000 0.0000000000 0.0000000000 486.5008956427 0.2612047942 1.6410712468
-0.2117038266 1.4787215119 0.0000000000 0.0000000000 0.0000000000 485.6170295616 0.2612047942 1.6410712468
-0.2045907497 1.4593172613 0.0000000000 0.0000000000 0.0000000000 481.9471107338 0.2612047942 1.6410712468
-0.1966818690 1.4402235342 0.0000000000 0.0000000000 0.0000000000 477.1313420743 0.2612047942 1.6410712468
-0.1879906966 1.4214729521 0.0000000000 0.0000000000 0.0000000000 469.1470109272 0.2612047942 1.6410712468
-0.1785320813 1.4030975500 0.0000000000 0.0000000000 0.0000000000 462.2047872860 0.2612047942 1.6410712468
-0.1683221829 1.3851287220 0.0000000000 0.0000000000 0.0000000000 449.7668986598 0.2612047942 1.6410712468
-0.1573784448 1.3675971675 0.0000000000 0.0000000000 0.0000000000 443.4503219631 0.2612047942 1.6410712468
-0.1457195643 1.3505328389 0.0000000000 0.0000000000 0.0000000000 424.3180942157 0.2612047942 1.6410712468
-0.1333654603 1.3339648902 0.0000000000 0.0000000000 0.0000000000 423.5580678973 0.2612047942 1.6410712468
-0.1203372397 1.3179216276 0.0000000000 0.0000000000 0.0000000000 395.5115174744 0.2612047942 1.6410712468
-0.1066571610 1.3024304608 0.0000000000 0.0000000000 0.0000000000 378.4575901270 0.2612047942 1.6410712468
-0.0774359914 1.2732092912 0.0000000000 0.0000000000 0.0000000000 359.2702277394 0.2612047942 1.6410712468
-0.0619448245 1.2595292125 0.0000000000 0.0000000000 0.0000000000 381.2920160310 0.2612047942 1.6410712468
-0.0459015619 1.2465009919 0.0000000000 0.0000000000 0.0000000000 299.5127751618 0.2612047942 1.6410712468
-0.0293336133 1.2341468880 0.0000000000 0.0000000000 0.0000000000 331.3393124768 0.2612047942 1.6410712468
-0.0122692846 1.2224880075 0.0000000000 0.0000000000 0.0000000000 290.6249513215 0.2612047942 1.6410712468
0.0052622699 1.2115442694 0.0000000000 0.0000000000 0.0000000000 296.6247127878 0.2612047942 1.6410712468
0.0232310979 1.2013343710 0.0000000000 0.0000000000 0.0000000000 273.3764559172 0.2612047942 1.6410712468
0.0416065000 1.1918757557 0.0000000000 0.0000000000 0.0000000000 267.8561790850 0.2612047942 1.6410712468
0.0603570821 1.1831845833 0.0000000000 0.0000000000 0.0000000000 251.7159666723 0.2612047942 1.6410712468
0.0794508092 1.1752757026 0.0000000000 0.0000000000 0.0000000000 242.2170867281 0.2612047942 1.6410712468
0.0988550599 1.1681626258 0.0000000000 0.0000000000 0.0000000000 229.1303875119 0.2612047942 1.6410712468
0.1185366824 1.1618575054 0.0000000000 0.0000000000 0.0000000000 218.4038858994 0.2612047942 1.6410712468
0.1384620509 1.1563711137 0.0000000000 0.0000000000 0.0000000000 206.7723363026 0.2612047942 1.6410712468
0.1585971234 1.1517128240 0.0000000000 0.0000000000 0.0000000000 196.0339452338 0.2612047942 1.6410712468
0.1789074994 1.1478905950 0.0000000000 0.0000000000 0.0000000000 185.2595119520 0.2612047942 1.6410712468
0.1993584789 1.1449109569 0.0000000000 0.0000000000 0.0000000000 174.9553293902 0.2612047942 1.6410712468
0.2199151218 1.1427790002 0.0000000000 0.0000000000 0.0000000000 164.8745302903 0.2612047942 1.6410712468
0.2405423074 1.1414983676 0.0000000000 0.0000000000 0.0000000000 155.1568607155 0.2612047942 1.6410712468
0.2612047945 1.1410712468 0.0000000000 0.0000000000 0.0000000000 145.7395557648 0.2612047942 1.6410712468
0.2818672816 1.1414983676 0.0000000000 0.0000000000 0.0000000000 136.6643981804 0.2612047942 1.6410712468
0.3024944673 1.1427790003 0.0000000000 0.0000000000 0.0000000000 127.9121097808 0.2612047942 1.6410712468
0.3230511102 1.1449109569 0.0000000000 0.0000000000 0.0000000000 119.4994168522 0.2612047942 1.6410712468
0.3435020897 1.1478905951 0.0000000000 0.0000000000 0.0000000000 111.4198228817 0.2612047942 1.6410712468
0.3638124656 1.1517128242 0.0000000000 0.0000000000 0.0000000000 103.6602357990 0.2612047942 1.6410712468
0.3839475381 1.1563711139 0.0000000000 0.0000000000 0.0000000000 96.2908134124 0.2612047942 1.6410712468
0.4038729066 1.1618575056 0.0000000000 0.0000000000 0.0000000000 89.2087757471 0.2612047942 1.6410712468
0.4235545291 1.1681626260 0.0000000000 0.0000000000 0.0000000000 82.5219819979 0.2612047942 1.6410712468
0.4429587798 1.1752757029 0.0000000000 0.0000000000 0.0000000000 76.1844319931 0.2612047942 1.6410712468
0.4620525068 1.1831845836 0.0000000000 0.0000000000 0.0000000000 70.0238606158 0.2612047942 1.6410712468
0.4808030889 1.1918757560 0.0000000000 0.0000000000 0.0000000000 64.6220453727 0.2612047942 1.6410712468
0.4991784910 1.2013343713 0.0000000000 0.0000000000 0.0000000000 58.9832542042 0.2612047942 1.6410712468
0.5171473190 1.2115442698 0.0000000000 0.0000000000 0.0000000000 54.4883545650 0.2612047942 1.6410712468
0.5346788736 1.2224880078 0.0000000000 0.0000000000 0.0000000000 49.2175448697 0.2612047942 1.6410712468
0.5517432022 1.2341468883 0.0000000000 0.0000000000 0.0000000000 46.4580151897 0.2612047942 1.6410712468
0.5683111508 1.2465009923 0.0000000000 0.0000000000 0.0000000000 39.6029808965 0.2612047942 1.6410712468
0.5843544134 1.2595292129 0.0000000000 0.0000000000 0.0000000000 42.0960154288 0.2612047942 1.6410712468
0.5998455803 1.2732092917 0.0000000000 0.0000000000 0.0000000000 28.1172268002 0.2612047942 1.6410712468
0.8299402382 1.1894249024 0.0000000000 0.1530831818 0.1317767881 25.2307174918 0.2801513339 1.6995544553
0.8480826463 1.2113644323 0.0000000000 0.1591712652 0.1053058373 22.4265656408 0.2796038536 1.7005799903
0.8653324790 1.2344561034 0.0000000000 0.1657518840 0.0786084753 19.0906049861 0.2789588668 1.7020734544
0.8816947327 1.2583056755 0.0000000000 0.1728695560 0.0527342774 15.2218367046 0.2782463976 1.7036708143
0.8971599852 1.2827334503 0.0000000000 0.1805349232 0.0280861804 10.8134011737 0.2774809042 1.7052234935
0.9117227821 1.3076374915 0.0000000000 0.1888044467 0.0046208630 5.8513666527 0.2766796325 1.7066615485
0.9253776576 1.3329500305 0.0000000000 0.1977736880 -0.0179383136 0.3140828467 0.2758586046 1.7079500301
0.9381165202 1.3586199556 0.0000000000 0.2075600300 -0.0399355539 -5.8266532011 0.2750299749 1.7090714264
0.9499282609 1.3846045115 0.0000000000 0.2182857466 -0.0616761247 -12.6029456326 0.2742016098 1.7100173154
0.9607995150 1.4108649624 0.0000000000 0.2300647809 -0.0833755116 -20.0476027177 0.2733778229 1.7107839802
0.9707157386 1.4373642386 0.0000000000 0.2429941226 -0.1051497822 -28.1915209679 0.2725604270 1.7113700065
0.9796621488 1.4640656490 0.0000000000 0.2571495235 -0.1270299461 -37.0620442424 0.2717496509 1.7117749451
0.9876243938 1.4909321666 0.0000000000 0.2725844472 -0.1489855576 -46.6822403112 0.2709447893 1.7119985470
0.9945889972 1.5179260240 0.0000000000 0.2893309765 -0.1709479762 -57.0707780658 0.2701446274 1.7120403075
1.0005436670 1.5450084843 0.0000000000 0.3074016147 -0.1928287529 -68.2420919601 0.2693477328 1.7118991844
1.0054775448 1.5721397256 0.0000000000 0.3267913278 -0.2145322109 -80.2066286749 0.2685526898 1.7115734306
1.0093814354 1.5992788170 0.0000000000 0.3474795440 -0.2359631494 -92.9710952237 0.2677583157 1.7110605163
1.0122480236 1.6263837779 0.0000000000 0.3694320756 -0.2570311543 -106.5387079009 0.2669638661 1.7103571347
1.0140720715 1.6534117216 0.0000000000 0.3926030336 -0.2776528301 -120.9094737245 0.2661692235 1.7094592914
1.0148505805 1.6803190840 0.0000000000 0.4169368158 -0.2977528634 -136.0805346365 0.2653750519 1.7083624794
1.0145829095 1.7070619395 0.0000000000 0.4423702266 -0.3172644334 -152.0465890477 0.2645829095 1.7070619392
1.0132708483 1.7335963986 0.0000000000 0.4688347397 -0.3361292129 -168.8003851338 0.2637953197 1.7055530026
1.0109186551 1.7598790764 0.0000000000 0.4962588778 -0.3542970363 -186.3332593601 0.2630158072 1.7038315059
1.0075330693 1.7858676136 0.0000000000 0.5245706383 -0.3717252395 -204.6356751629 0.2622489119 1.7018942562
1.0031233073 1.8115212228 0.0000000000 0.5536998531 -0.3883776614 -223.6977041859 0.2615001877 1.6997395229
0.9977010415 1.8368012292 0.0000000000 0.5835803457 -0.4042233242 -243.5093904180 0.2607761866 1.6973675236
0.9912803487 1.8616715704 0.0000000000 0.6141517373 -0.4192348547 -264.0609497686 0.2600844146 1.6947808697
0.9838776066 1.8860992252 0.0000000000 0.6453607779 -0.4333867587 -285.3427835898 0.2594332370 1.6919849411
0.9755113065 1.9100545399 0.0000000000 0.6771621238 -0.4466536979 -307.3453188101 0.2588317022 1.6889881589
0.9662017515 1.9335114296 0.0000000000 0.7095185467 -0.4590089300 -330.0587242376 0.2582892538 1.6858021330
0.9559706085 1.9564474298 0.0000000000 0.7424006265 -0.4704230629 -353.4725881565 0.2578152971 1.6824416613
0.9448402874 1.9788435739 0.0000000000 0.7757860402 -0.4808632425 -377.5756711600 0.2574185956 1.6789245555
0.9328331367 2.0006840656 0.0000000000 0.8096585944 -0.4902928410 -402.3558588108 0.2571064859 1.6752712611
0.9199704888 2.0219557002 0.0000000000 0.8440071535 -0.4986716274 -427.8004022690 0.2568839438 1.6715042288
0.9062716955 2.0426470012 0.0000000000 0.8788245600 -0.5059562483 -453.8963912641 0.2567526428 1.6676470010
0.8917534713 2.0627471022 0.0000000000 0.9141065319 -0.5121006086 -480.6311071071 0.2567103219 1.6637230447
0.8764300229 2.0822446179 0.0000000000 0.9498504255 -0.5170554752 -507.9915463614 0.2567509422 1.6597545743
0.8603143289 2.1011271576 0.0000000000 0.9860539025 -0.5207665176 -535.9623231292 0.2568659941 1.6557620183
0.8434202677 2.1193828283 0.0000000000 1.0227144406 -0.5231700078 -564.5219852259 0.2570466559 1.6517654768
0.8257644026 2.1370069870 0.0000000000 1.0598330483 -0.5241833794 -593.6372234561 0.2572856103 1.6477914285
0.8073628515 2.1540230466 0.0000000000 1.0974390785 -0.5236834704 -623.2769045718 0.2575739477 1.6438934932
0.7670160900 2.1876723410 0.0000000000 1.1769163298 -0.5167970803 -685.4769870706 0.2590549113 1.6358794079
0.7450015935 2.2045214257 0.0000000000 1.2187579054 -0.5093516921 -717.5825239379 0.2602771652 1.6322083745
0.7222107696 2.2208021724 0.0000000000 1.2607895331 -0.4992609028 -749.4144361834 0.2615512352 1.6289467903
0.6986832059 2.2364151603 0.0000000000 1.3027419283 -0.4864827669 -780.7509156625 0.2628755944 1.6260286223
0.6744558246 2.2512975996 0.0000000000 1.3443695090 -0.4709600198 -811.3539035826 0.2642447061 1.6234227409
0.6495704021 2.2654041158 0.0000000000 1.3854218758 -0.4526372217 -840.9608691864 0.2656566154 1.6211136500
0.6240720144 2.2787024921 0.0000000000 1.4256371515 -0.4314708222 -869.2874874270 0.2671114697 1.6190971787
0.5980070254 2.2911717078 0.0000000000 1.4647406833 -0.4074353113 -896.0305778101 0.2686095839 1.6173784714
0.5714215772 2.3027990026 0.0000000000 1.5024457627 -0.3805311051 -920.8740972908 0.2701500088 1.6159690075
0.5443610149 2.3135766804 0.0000000000 1.5384565115 -0.3507927204 -943.4974364574 0.2717300371 1.6148833643
0.5168699679 2.3234994679 0.0000000000 1.5724731144 -0.3182956542 -963.5852799633 0.2733453661 1.6141365366
0.4889926527 2.3325626264 0.0000000000 1.6041992907 -0.2831609576 -980.8385922098 0.2749904846 1.6137420145
0.4607730956 2.3407606602 0.0000000000 1.6333515281 -0.2455569266 -994.9862555316 0.2766589804 1.6137104607
0.4322551580 2.3480864521 0.0000000000 1.6596692015 -0.2056975050 -1005.7964481986 0.2783436515 1.6140488181
0.4034823703 2.3545307629 0.0000000000 1.6829243405 -0.1638372681 -1013.0864122190 0.2800364278 1.6147597853
0.3744976530 2.3600820936 0.0000000000 1.7029296851 -0.1202633568 -1016.7292008427 0.2817281797 1.6158416588
0.3453430242 2.3647268987 0.0000000000 1.7195439102 -0.0752853130 -1016.6564440992 0.2834085152 1.6172885289
0.3160593832 2.3684500739 0.0000000000 1.7326734717 -0.0292241632 -1012.8569816426 0.2850656527 1.6190907551
0.2866864291 2.3712355837 0.0000000000 1.7422712318 0.0175978838 -1005.3720594726 0.2866864292 1.6212355837
0.2572627281 2.3730670676 0.0000000000 1.7483325925 0.0648661123 -994.2883373057 0.2882564589 1.6237077488
0.2278259111 2.3739282872 0.0000000000 1.7508901288 0.1122798957 -979.7300494807 0.2897604203 1.6264899175
0.1984129578 2.3738033419 0.0000000000 1.7500076510 0.1595572747 -961.8513705931 0.2911824314 1.6295629071
0.1690605213 2.3726766484 0.0000000000 1.7457743545 0.2064378987 -940.8295612932 0.2925064642 1.6329056709
0.1398052563 2.3705327406 0.0000000000 1.7382994089 0.2526847745 -916.8590386741 0.2937167631 1.6364951066
0.1106841328 2.3673559690 0.0000000000 1.7277071087 0.2980851737 -890.1462653140 0.2947982483 1.6403057696
0.0817347311 2.3631301754 0.0000000000 1.7141325900 0.3424509029 -860.9052798722 0.2957368994 1.6443095636
0.0529955212 2.3578383878 0.0000000000 1.6977180777 0.3856180392 -829.3537321106 0.2965201233 1.6484754566
0.0245061275 2.3514625500 0.0000000000 1.6786096058 0.4274462054 -795.7093527083 0.2971371056 1.6527692341
-0.0036924332 2.3439832596 0.0000000000 1.6569541184 0.4678174986 -760.1868110137 0.2975791355 1.6571532647
-0.0315575677 2.3353794514 0.0000000000 1.6328967983 0.5066352541 -722.9948988025 0.2978398741 1.6615862150
-0.0590450328 2.3256278949 0.0000000000 1.6065784122 0.5438229392 -684.3339507222 0.2979155122 1.6660225816
-0.0861090674 2.3147022270 0.0000000000 1.5781323556 0.5793236789 -644.3932752675 0.2978047196 1.6704117613
-0.1127029279 2.3025708643 0.0000000000 1.5476810309 0.6131015138 -603.3487433781 0.2975081909 1.6746960057
-0.1387802925 2.2891921189 0.0000000000 1.5153298806 0.6451466049 -561.3578021265 0.2970273192 1.6788055810
-0.1642987604 2.2745017095 0.0000000000 1.4811591603 0.6754935417 -518.5621206625 0.2963607743 1.6826463276
-0.1892281341 2.2583766493 0.0000000000 1.4451874324 0.7042652798 -475.0319866443 0.2954962945 1.6860635983
-0.2135667746 2.2405158461 0.0000000000 1.4073693459 0.7318976140 -430.9895259530 0.2943944043 1.6887229132
-0.2596967377 2.2042039708 0.0000000000 1.3278219086 0.7760091856 -340.4579940793 0.2920961955 1.6962427923
-0.2813193085 2.1860441326 0.0000000000 1.2874911802 0.7923169923 -295.8545903320 0.2909937429 1.7013197044
-0.3021247272 2.1663349547 0.0000000000 1.2461785974 0.8072512642 -251.5389312231 0.2897306549 1.7056754203
-0.3220298523 2.1453541166 0.0000000000 1.2040550921 0.8203460668 -207.5830678257 0.2883566857 1.7095465053
-0.3409699210 2.1232290706 0.0000000000 1.1612335525 0.8314266158 -164.0767900816 0.2869049378 1.7130179522
-0.3588944573 2.1000406422 0.0000000000 1.1178194021 0.8403938692 -121.1090398963 0.2853960086 1.7161268556
-0.3757614570 2.0758534130 0.0000000000 1.0739142579 0.8471781849 -78.7696254802 0.2838438566 1.7188928684
-0.3915346197 2.0507259030 0.0000000000 1.0296222184 0.8517218847 -37.1509900991 0.2822586168 1.7213284616
-0.4061821945 2.0247142735 0.0000000000 0.9850522024 0.8539735401 3.6506813987 0.2806478006 1.7234427052
-0.4196764414 1.9978736439 0.0000000000 0.9403196527 0.8538861224 43.5346740859 0.2790168748 1.7252426662
-0.4319933184 1.9702584677 0.0000000000 0.8955478426 0.8514170036 82.3951035819 0.2773696130 1.7267338661
-0.4431122346 1.9419225453 0.0000000000 0.8508690671 0.8465289355 120.1204292437 0.2757083774 1.7279203774
-0.4530157945 1.9129189330 0.0000000000 0.8064257129 0.8391916798 156.5931795687 0.2740344050 1.7288048179
-0.4616894928 1.8832998726 0.0000000000 0.7623710760 0.8293841582 191.6899813107 0.2723481413 1.7293883663
-0.4691213349 1.8531167971 0.0000000000 0.7188696945 0.8170970810 225.2820030285 0.2706496427 1.7296708547
-0.4753013811 1.8224204334 0.0000000000 0.6760969397 0.8023360184 257.2359514748 0.2689390537 1.7296509602
-0.4802212332 1.7912610019 0.0000000000 0.6342376497 0.7851248485 287.4157734815 0.2672171365 1.7293264931
-0.4838735102 1.7596885038 0.0000000000 0.5934837090 0.7655094754 315.6852019507 0.2654858086 1.7286947735
-0.4862513784 1.7277530844 0.0000000000 0.5540306248 0.7435617213 341.9112217834 0.2637486216 1.7277530847
-0.4873482067 1.6955054666 0.0000000000 0.5160732661 0.7193833188 365.9684169268 0.2620111120 1.7264991976
-0.4871574020 1.6629974514 0.0000000000 0.4798009448 0.6931098538 387.7440014366 0.2602809677 1.7249319608
-0.4856724512 1.6302824850 0.0000000000 0.4453918756 0.6649140843 407.1431455939 0.2585679835 1.7230519587
-0.4828871560 1.5974162849 0.0000000000 0.4130068109 0.6350070067 424.0939974225 0.2568838215 1.7208622280
-0.4787960120 1.5644575087 0.0000000000 0.3827815076 0.6036332352 438.5515958803 0.2552416219 1.7183690156
-0.4733946701 1.5314684289 0.0000000000 0.3548179053 0.5710549612 450.4997592281 0.2536555292 1.7155825446
-0.4666804197 1.4985155657 0.0000000000 0.3291748760 0.5375170729 459.9500766244 0.2521401921 1.7125177343
-0.4586526535 1.4656702107 0.0000000000 0.3058609271 0.5031866660 466.9376824239 0.2507102777 1.7091948129
-0.4493132868 1.4330087695 0.0000000000 0.2848336354 0.4680660539 471.5142021839 0.2493800291 1.7056397478