 TITLE = "Tecplot data"
 VARIABLES = "X", "Y", "Z" "U", "V", "p", "dispX", "dispY"
 ZONE SOLUTIONTIME=27.900000, NODES=26114 , ELEMENTS=25916, DATAPACKING=POINT, ZONETYPE=FEQUADRILATERAL
0.3974279208 0.3650661637 0.0000000000 0.0000000000 0.0000000000 -310.5368927435 0.0438745303 0.0115127730
0.3974279211 -0.3420406173 0.0000000000 0.0000000000 0.0000000000 -221.7482917982 0.0438745303 0.0115127730
-0.3096788605 0.3650661635 0.0000000000 0.0000000000 0.0000000000 -135.8241992182 0.0438745303 0.0115127730
-0.3096788602 -0.3420406177 0.0000000000 0.0000000000 0.0000000000 -63.6685291786 0.0438745303 0.0115127730
0.5734651398 0.5419913508 0.0000000000 0.1240844041 0.0537567681 -302.8077211608 0.0431350539 0.0116612648
0.5754179177 -0.5180275175 0.0000000000 0.0437365968 0.0003889113 -210.7465140916 0.0450878314 0.0123025680
-0.4850664284 0.5426062974 0.0000000000 0.8365765467 0.4878345230 52.2561608088 0.0452636576 0.0122762117
-0.4865934152 -0.5185855812 0.0000000000 0.7970824719 -0.4645916883 103.5824450997 0.0437366704 0.0117445050
1.1046877539 1.0724315934 0.0000000000 1.2262167687 0.0565074610 -277.2959337640 0.0440275822 0.0117714215
1.1047543749 -1.0482801950 0.0000000000 1.1679498444 -0.2204923454 -179.8285882860 0.0440942023 0.0123799761
-1.0138267886 1.0742822821 0.0000000000 0.9245001980 0.1830801591 77.3930393913 0.0468333835 0.0136221106
-1.0175678344 -1.0478442329 0.0000000000 0.9083287957 -0.1811366797 103.1130104092 0.0430923368 0.0128159394
4.2426742372 3.3105380969 0.0000000000 1.1463419994 -0.0218324372 -74.8533488999 0.0426742372 0.0105380969
4.2390081030 -3.2894346961 0.0000000000 1.0698682858 0.0357034044 -49.1988113735 0.0390081030 0.0105653039
20.0000000000 4.7000000000 0.0000000000 1.0035074564 -0.0031935150 0.0004750839 0.0000000000 0.0000000000
20.0000000000 -4.7000000000 0.0000000000 1.0035631177 0.0034488474 -0.0045632441 0.0000000000 0.0000000000
-10.0000000000 15.0000000000 0.0000000000 1.0000000000 0.0000000000 4.8728263563 0.0000000000 0.0000000000
20.0000000000 15.0000000000 0.0000000000 0.9999946635 0.0000000000 -0.0034246638 0.0000000000 0.0000000000
20.0000000000 -15.0000000000 0.0000000000 1.0002209392 0.0000000000 -0.0038387021 0.0000000000 0.0000000000
-10.0000000000 -15.0000000000 0.0000000000 1.0000000000 0.0000000000 8.3176790325 0.0000000000 0.0000000000
0.4104004664 -0.3285735956 0.0000000000 0.0000000000 0.0000000000 -221.3882582666 0.0438745303 0.0115127730
0.4228603920 -0.3146309323 0.0000000000 0.0000000000 0.0000000000 -221.2560171470 0.0438745303 0.0115127730
0.4347902717 -0.3002321276 0.0000000000 0.0000000000 0.0000000000 -221.5632577977 0.0438745303 0.0115127730
0.4461734203 -0.2853973195 0.0000000000 0.0000000000 0.0000000000 -222.1434604407 0.0438745303 0.0115127730
0.4569939176 -0.2701472557 0.0000000000 0.0000000000 0.0000000000 -223.0289255873 0.0438745303 0.0115127730
0.4672366300 -0.2545032649 0.0000000000 0.0000000000 0.0000000000 -224.1548401067 0.0438745303 0.0115127730
0.4768872323 -0.2384872267 0.0000000000 0.0000000000 0.0000000000 -225.5063697366 0.0438745303 0.0115127730
0.4859322271 -0.2221215408 0.0000000000 0.0000000000 0.0000000000 -227.0521322854 0.0438745303 0.0115127730
0.4943589643 -0.2054290962 0.0000000000 0.0000000000 0.0000000000 -228.7765517433 0.0438745303 0.0115127730
0.5021556583 -0.1884332389 0.0000000000 0.0000000000 0.0000000000 -230.6648183026 0.0438745303 0.0115127730
0.5093114047 -0.1711577389 0.0000000000 0.0000000000 0.0000000000 -232.7092265993 0.0438745303 0.0115127730
0.5158161955 -0.1536267577 0.0000000000 0.0000000000 0.0000000000 -234.9050288252 0.0438745303 0.0115127730
0.5216609332 -0.1358648139 0.0000000000 0.0000000000 0.0000000000 -237.2510311721 0.0438745303 0.0115127730
0.5268374435 -0.1178967493 0.0000000000 0.0000000000 0.0000000000 -239.7477214706 0.0438745303 0.0115127730
0.5313384864 -0.0997476937 0.0000000000 0.0000000000 0.0000000000 -242.3967988790 0.0438745303 0.0115127730
0.5351577669 -0.0814430303 0.0000000000 0.0000000000 0.0000000000 -245.1988169127 0.0438745303 0.0115127730
0.5382899434 -0.0630083598 0.0000000000 0.0000000000 0.0000000000 -248.1557090706 0.0438745303 0.0115127730
0.5407306352 -0.0444694648 0.0000000000 0.0000000000 0.0000000000 -251.2562443637 0.0438745303 0.0115127730
0.5424764289 -0.0258522735 0.0000000000 0.0000000000 0.0000000000 -254.5234315446 0.0438745303 0.0115127730
0.5435248827 -0.0071828239 0.0000000000 0.0000000000 0.0000000000 -257.8369422223 0.0438745303 0.0115127730
0.5438745303 0.0115127733 0.0000000000 0.0000000000 0.0000000000 -261.5741586188 0.0438745303 0.0115127730
0.5435248826 0.0302083704 0.0000000000 0.0000000000 0.0000000000 -264.3118087855 0.0438745303 0.0115127730
0.5424764288 0.0488778200 0.0000000000 0.0000000000 0.0000000000 -270.5983033117 0.0438745303 0.0115127730
0.5407306352 0.0674950113 0.0000000000 0.0000000000 0.0000000000 -272.2892309294 0.0438745303 0.0115127730
0.5382899433 0.0860339063 0.0000000000 0.0000000000 0.0000000000 -275.8463169262 0.0438745303 0.0115127730
0.5351577668 0.1044685768 0.0000000000 0.0000000000 0.0000000000 -279.4723076026 0.0438745303 0.0115127730
0.5313384863 0.1227732402 0.0000000000 0.0000000000 0.0000000000 -282.9504019425 0.0438745303 0.0115127730
0.5268374434 0.1409222957 0.0000000000 0.0000000000 0.0000000000 -286.2901049046 0.0438745303 0.0115127730
0.5216609331 0.1588903604 0.0000000000 0.0000000000 0.0000000000 -289.4393335935 0.0438745303 0.0115127730
0.5158161954 0.1766523042 0.0000000000 0.0000000000 0.0000000000 -292.3667981790 0.0438745303 0.0115127730
0.5093114045 0.1941832854 0.0000000000 0.0000000000 0.0000000000 -295.0430790413 0.0438745303 0.0115127730
0.5021556581 0.2114587853 0.0000000000 0.0000000000 0.0000000000 -297.4510691470 0.0438745303 0.0115127730
0.4943589642 0.2284546427 0.0000000000 0.0000000000 0.0000000000 -299.5781546889 0.0438745303 0.0115127730
0.4859322270 0.2451470873 0.0000000000 0.0000000000 0.0000000000 -301.4318455418 0.0438745303 0.0115127730
0.4768872321 0.2615127731 0.0000000000 0.0000000000 0.0000000000 -303.0129989039 0.0438745303 0.0115127730
0.4672366298 0.2775288114 0.0000000000 0.0000000000 0.0000000000 -304.3673830033 0.0438745303 0.0115127730
0.4569939174 0.2931728022 0.0000000000 0.0000000000 0.0000000000 -305.4844768708 0.0438745303 0.0115127730
0.4461734201 0.3084228659 0.0000000000 0.0000000000 0.0000000000 -306.5083594776 0.0438745303 0.0115127730
0.4347902714 0.3232576740 0.0000000000 0.0000000000 0.0000000000 -307.2683806261 0.0438745303 0.0115127730
0.4228603918 0.3376564787 0.0000000000 0.0000000000 0.0000000000 -308.3211489476 0.0438745303 0.0115127730
0.4104004661 0.3515991420 0.0000000000 0.0000000000 0.0000000000 -309.0860843924 0.0438745303 0.0115127730
0.3825153160 0.3793747284 0.0000000000 0.0000000000 0.0000000000 -311.8282988102 0.0438745303 0.0115127730
0.3670241491 0.3930548072 0.0000000000 0.0000000000 0.0000000000 -313.9021864310 0.0438745303 0.0115127730
0.3509808865 0.4060830278 0.0000000000 0.0000000000 0.0000000000 -316.3756994187 0.0438745303 0.0115127730
0.3344129379 0.4184371317 0.0000000000 0.0000000000 0.0000000000 -319.6446870453 0.0438745303 0.0115127730
0.3173486093 0.4300960122 0.0000000000 0.0000000000 0.0000000000 -323.5901011452 0.0438745303 0.0115127730
0.2998170547 0.4410397503 0.0000000000 0.0000000000 0.0000000000 -328.3647033194 0.0438745303 0.0115127730
0.2818482267 0.4512496487 0.0000000000 0.0000000000 0.0000000000 -333.9479341734 0.0438745303 0.0115127730
0.2634728246 0.4607082640 0.0000000000 0.0000000000 0.0000000000 -340.4176176377 0.0438745303 0.0115127730
0.2447222425 0.4693994364 0.0000000000 0.0000000000 0.0000000000 -347.8048711163 0.0438745303 0.0115127730
0.2256285155 0.4773083171 0.0000000000 0.0000000000 0.0000000000 -356.1711861114 0.0438745303 0.0115127730
0.2062242648 0.4844213939 0.0000000000 0.0000000000 0.0000000000 -365.5483933250 0.0438745303 0.0115127730
0.1865426423 0.4907265143 0.0000000000 0.0000000000 0.0000000000 -375.9496813996 0.0438745303 0.0115127730
0.1666172737 0.4962129060 0.0000000000 0.0000000000 0.0000000000 -387.3405356269 0.0438745303 0.0115127730
0.1464822013 0.5008711957 0.0000000000 0.0000000000 0.0000000000 -399.6348548755 0.0438745303 0.0115127730
0.1261718253 0.5046934248 0.0000000000 0.0000000000 0.0000000000 -412.6812387658 0.0438745303 0.0115127730
0.1057208458 0.5076730629 0.0000000000 0.0000000000 0.0000000000 -426.2595648255 0.0438745303 0.0115127730
0.0851642029 0.5098050196 0.0000000000 0.0000000000 0.0000000000 -440.0776901891 0.0438745303 0.0115127730
0.0645370173 0.5110856522 0.0000000000 0.0000000000 0.0000000000 -453.7749177744 0.0438745303 0.0115127730
0.0438745301 0.5115127730 0.0000000000 0.0000000000 0.0000000000 -466.9294245652 0.0438745303 0.0115127730
0.0232120430 0.5110856522 0.0000000000 0.0000000000 0.0000000000 -479.0712341621 0.0438745303 0.0115127730
0.0025848574 0.5098050195 0.0000000000 0.0000000000 0.0000000000 -489.6990143991 0.0438745303 0.0115127730
-0.0179717855 0.5076730629 0.0000000000 0.0000000000 0.0000000000 -498.2998704650 0.0438745303 0.0115127730
-0.0384227650 0.5046934247 0.0000000000 0.0000000000 0.0000000000 -504.3702519261 0.0438745303 0.0115127730
-0.0587331410 0.5008711957 0.0000000000 0.0000000000 0.0000000000 -507.4364321949 0.0438745303 0.0115127730
-0.0788682134 0.4962129060 0.0000000000 0.0000000000 0.0000000000 -507.0730078254 0.0438745303 0.0115127730
-0.0987935820 0.4907265142 0.0000000000 0.0000000000 0.0000000000 -502.9183285507 0.0438745303 0.0115127730
-0.1184752045 0.4844213939 0.0000000000 0.0000000000 0.0000000000 -494.6861664003 0.0438745303 0.0115127730
-0.1378794551 0.4773083170 0.0000000000 0.0000000000 0.0000000000 -482.1734047470 0.0438745303 0.0115127730
-0.1569731822 0.4693994363 0.0000000000 0.0000000000 0.0000000000 -465.2638947574 0.0438745303 0.0115127730
-0.1757237643 0.4607082639 0.0000000000 0.0000000000 0.0000000000 -443.9289034651 0.0438745303 0.0115127730
-0.1940991664 0.4512496486 0.0000000000 0.0000000000 0.0000000000 -418.2247278211 0.0438745303 0.0115127730
-0.2120679944 0.4410397502 0.0000000000 0.0000000000 0.0000000000 -388.2880977920 0.0438745303 0.0115127730
-0.2295995489 0.4300960121 0.0000000000 0.0000000000 0.0000000000 -354.3299593427 0.0438745303 0.0115127730
-0.2466638776 0.4184371316 0.0000000000 0.0000000000 0.0000000000 -316.6281486818 0.0438745303 0.0115127730
-0.2632318262 0.4060830277 0.0000000000 0.0000000000 0.0000000000 -275.5193705046 0.0438745303 0.0115127730
-0.2792750888 0.3930548071 0.0000000000 0.0000000000 0.0000000000 -231.3907990673 0.0438745303 0.0115127730
-0.2947662557 0.3793747283 0.0000000000 0.0000000000 0.0000000000 -184.6715472815 0.0438745303 0.0115127730
-0.3239874252 0.3501535587 0.0000000000 0.0000000000 0.0000000000 -85.3365729202 0.0438745303 0.0115127730
-0.3376675040 0.3346623919 0.0000000000 0.0000000000 0.0000000000 -33.7138606415 0.0438745303 0.0115127730
-0.3506957245 0.3186191293 0.0000000000 0.0000000000 0.0000000000 18.5287349234 0.0438745303 0.0115127730
-0.3630498285 0.3020511806 0.0000000000 0.0000000000 0.0000000000 70.8727878582 0.0438745303 0.0115127730
-0.3747087090 0.2849868520 0.0000000000 0.0000000000 0.0000000000 122.8028297662 0.0438745303 0.0115127730
-0.3856524470 0.2674552974 0.0000000000 0.0000000000 0.0000000000 173.8119456162 0.0438745303 0.0115127730
-0.3958623454 0.2494864694 0.0000000000 0.0000000000 0.0000000000 223.4068411115 0.0438745303 0.0115127730
-0.4053209608 0.2311110673 0.0000000000 0.0000000000 0.0000000000 271.1124522410 0.0438745303 0.0115127730
-0.4140121331 0.2123604852 0.0000000000 0.0000000000 0.0000000000 316.4761659302 0.0438745303 0.0115127730
-0.4219210138 0.1932667582 0.0000000000 0.0000000000 0.0000000000 359.0716978577 0.0438745303 0.0115127730
-0.4290340907 0.1738625075 0.0000000000 0.0000000000 0.0000000000 398.5026613439 0.0438745303 0.0115127730
-0.4353392110 0.1541808850 0.0000000000 0.0000000000 0.0000000000 434.4058256906 0.0438745303 0.0115127730
-0.4408256028 0.1342555164 0.0000000000 0.0000000000 0.0000000000 466.4540808720 0.0438745303 0.0115127730
-0.4454838925 0.1141204440 0.0000000000 0.0000000000 0.0000000000 494.3590585323 0.0438745303 0.0115127730
-0.4493061215 0.0938100680 0.0000000000 0.0000000000 0.0000000000 517.8734715045 0.0438745303 0.0115127730
-0.4522857596 0.0733590885 0.0000000000 0.0000000000 0.0000000000 536.7930185368 0.0438745303 0.0115127730
-0.4544177163 0.0528024456 0.0000000000 0.0000000000 0.0000000000 550.9581122056 0.0438745303 0.0115127730
-0.4556983490 0.0321752600 0.0000000000 0.0000000000 0.0000000000 560.2549231384 0.0438745303 0.0115127730
-0.4561254697 0.0115127728 0.0000000000 0.0000000000 0.0000000000 564.6166728880 0.0438745303 0.0115127730
-0.4556983489 -0.0091497143 0.0000000000 0.0000000000 0.0000000000 564.0234302872 0.0438745303 0.0115127730
-0.4544177162 -0.0297768999 0.0000000000 0.0000000000 0.0000000000 558.5036486258 0.0438745303 0.0115127730
-0.4522857596 -0.0503335428 0.0000000000 0.0000000000 0.0000000000 548.1314405014 0.0438745303 0.0115127730
-0.4493061214 -0.0707845223 0.0000000000 0.0000000000 0.0000000000 533.0306955819 0.0438745303 0.0115127730
-0.4454838924 -0.0910948983 0.0000000000 0.0000000000 0.0000000000 513.3655115610 0.0438745303 0.0115127730
-0.4408256027 -0.1112299707 0.0000000000 0.0000000000 0.0000000000 489.3548570999 0.0438745303 0.0115127730
-0.4353392109 -0.1311553393 0.0000000000 0.0000000000 0.0000000000 461.2414131124 0.0438745303 0.0115127730
-0.4290340905 -0.1508369618 0.0000000000 0.0000000000 0.0000000000 429.3440887394 0.0438745303 0.0115127730
-0.4219210137 -0.1702412124 0.0000000000 0.0000000000 0.0000000000 393.9544691525 0.0438745303 0.0115127730
-0.4140121330 -0.1893349395 0.0000000000 0.0000000000 0.0000000000 355.5221237269 0.0438745303 0.0115127730
-0.4053209606 -0.2080855216 0.0000000000 0.0000000000 0.0000000000 314.2999263470 0.0438745303 0.0115127730
-0.3958623452 -0.2264609237 0.0000000000 0.0000000000 0.0000000000 271.0021088368 0.0438745303 0.0115127730
-0.3856524468 -0.2444297517 0.0000000000 0.0000000000 0.0000000000 225.5425958325 0.0438745303 0.0115127730
-0.3747087087 -0.2619613062 0.0000000000 0.0000000000 0.0000000000 179.4561911121 0.0438745303 0.0115127730
-0.3630498282 -0.2790256349 0.0000000000 0.0000000000 0.0000000000 131.1353743079 0.0438745303 0.0115127730
-0.3506957243 -0.2955935835 0.0000000000 0.0000000000 0.0000000000 85.4570682279 0.0438745303 0.0115127730
-0.3376675037 -0.3116368461 0.0000000000 0.0000000000 0.0000000000 34.4044230347 0.0438745303 0.0115127730
-0.3239874249 -0.3271280130 0.0000000000 0.0000000000 0.0000000000 22.4386135416 0.0438745303 0.0115127730
-0.2947662554 -0.3563491825 0.0000000000 0.0000000000 0.0000000000 -43.2798954848 0.0438745303 0.0115127730
-0.2792750885 -0.3700292612 0.0000000000 0.0000000000 0.0000000000 -194.2409918329 0.0438745303 0.0115127730
-0.2632318259 -0.3830574818 0.0000000000 0.0000000000 0.0000000000 -206.6015828222 0.0438745303 0.0115127730
-0.2466638772 -0.3954115857 0.0000000000 0.0000000000 0.0000000000 -222.4958901680 0.0438745303 0.0115127730
-0.2295995486 -0.4070704662 0.0000000000 0.0000000000 0.0000000000 -250.4171067788 0.0438745303 0.0115127730
-0.2120679941 -0.4180142043 0.0000000000 0.0000000000 0.0000000000 -281.0676965746 0.0438745303 0.0115127730
-0.1940991660 -0.4282241027 0.0000000000 0.0000000000 0.0000000000 -306.4508348453 0.0438745303 0.0115127730
-0.1757237639 -0.4376827180 0.0000000000 0.0000000000 0.0000000000 -328.0945645048 0.0438745303 0.0115127730
-0.1569731818 -0.4463738904 0.0000000000 0.0000000000 0.0000000000 -345.7852720275 0.0438745303 0.0115127730
-0.1378794548 -0.4542827711 0.0000000000 0.0000000000 0.0000000000 -359.3228051944 0.0438745303 0.0115127730
-0.1184752041 -0.4613958479 0.0000000000 0.0000000000 0.0000000000 -368.9970542504 0.0438745303 0.0115127730
-0.0987935816 -0.4677009683 0.0000000000 0.0000000000 0.0000000000 -374.8389532095 0.0438745303 0.0115127730
-0.0788682130 -0.4731873600 0.0000000000 0.0000000000 0.0000000000 -377.1927447010 0.0438745303 0.0115127730
-0.0587331406 -0.4778456497 0.0000000000 0.0000000000 0.0000000000 -376.3316220782 0.0438745303 0.0115127730
-0.0384227646 -0.4816678787 0.0000000000 0.0000000000 0.0000000000 -372.6762185929 0.0438745303 0.0115127730
-0.0179717851 -0.4846475169 0.0000000000 0.0000000000 0.0000000000 -366.6426215234 0.0438745303 0.0115127730
0.0025848578 -0.4867794735 0.0000000000 0.0000000000 0.0000000000 -358.7038244542 0.0438745303 0.0115127730
0.0232120434 -0.4880601062 0.0000000000 0.0000000000 0.0000000000 -349.3240614332 0.0438745303 0.0115127730
0.0438745306 -0.4884872270 0.0000000000 0.0000000000 0.0000000000 -338.9650935009 0.0438745303 0.0115127730
0.0645370177 -0.4880601061 0.0000000000 0.0000000000 0.0000000000 -328.0529974101 0.0438745303 0.0115127730
0.0851642033 -0.4867794734 0.0000000000 0.0000000000 0.0000000000 -316.9710970319 0.0438745303 0.0115127730
0.1057208462 -0.4846475168 0.0000000000 0.0000000000 0.0000000000 -306.0441286385 0.0438745303 0.0115127730
0.1261718257 -0.4816678786 0.0000000000 0.0000000000 0.0000000000 -295.5343965052 0.0438745303 0.0115127730
0.1464822017 -0.4778456496 0.0000000000 0.0000000000 0.0000000000 -285.6387789272 0.0438745303 0.0115127730
0.1666172741 -0.4731873598 0.0000000000 0.0000000000 0.0000000000 -276.4921193002 0.0438745303 0.0115127730
0.1865426427 -0.4677009681 0.0000000000 0.0000000000 0.0000000000 -268.1723076385 0.0438745303 0.0115127730
0.2062242652 -0.4613958477 0.0000000000 0.0000000000 0.0000000000 -260.7078407084 0.0438745303 0.0115127730
0.2256285158 -0.4542827709 0.0000000000 0.0000000000 0.0000000000 -254.0850704407 0.0438745303 0.0115127730
0.2447222429 -0.4463738901 0.0000000000 0.0000000000 0.0000000000 -248.2577006357 0.0438745303 0.0115127730
0.2634728250 -0.4376827178 0.0000000000 0.0000000000 0.0000000000 -243.1555331261 0.0438745303 0.0115127730
0.2818482271 -0.4282241024 0.0000000000 0.0000000000 0.0000000000 -238.7012824929 0.0438745303 0.0115127730
0.2998170551 -0.4180142040 0.0000000000 0.0000000000 0.0000000000 -234.8169152587 0.0438745303 0.0115127730
0.3173486096 -0.4070704659 0.0000000000 0.0000000000 0.0000000000 -231.4525329557 0.0438745303 0.0115127730
0.3344129382 -0.3954115854 0.0000000000 0.0000000000 0.0000000000 -228.5576826839 0.0438745303 0.0115127730
0.3509808869 -0.3830574814 0.0000000000 0.0000000000 0.0000000000 -226.1560840929 0.0438745303 0.0115127730
0.3670241495 -0.3700292608 0.0000000000 0.0000000000 0.0000000000 -224.1822523347 0.0438745303 0.0115127730
0.3825153163 -0.3563491820 0.0000000000 0.0000000000 0.0000000000 -222.7855284808 0.0438745303 0.0115127730
0.5947936099 -0.4978086535 0.0000000000 0.0194502297 0.0002669201 -210.7396794452 0.0450047057 0.0123208995
0.6134235633 -0.4768720189 0.0000000000 0.0030606768 -0.0018567912 -211.0379515035 0.0449447706 0.0123435392
0.6312610292 -0.4552469637 0.0000000000 -0.0072155678 -0.0054778892 -211.7040114425 0.0448874170 0.0123703873
0.6482754066 -0.4329669441 0.0000000000 -0.0132097170 -0.0100056263 -212.7304441672 0.0448270715 0.0123981947
0.6644410498 -0.4100649455 0.0000000000 -0.0165706260 -0.0148325830 -214.0912294414 0.0447619688 0.0124250976
0.6797349010 -0.3865740576 0.0000000000 -0.0186179313 -0.0194107641 -215.7538839707 0.0446917514 0.0124499993
0.6941357148 -0.3625277822 0.0000000000 -0.0202924844 -0.0232982486 -217.6874771658 0.0446166617 0.0124722174
0.7076237610 -0.3379601537 0.0000000000 -0.0221849866 -0.0261746196 -219.8665884157 0.0445372157 0.0124913171
0.7201807037 -0.3129057801 0.0000000000 -0.0246067635 -0.0278338817 -222.2723114136 0.0444540526 0.0125070238
0.7317895558 -0.2873998464 0.0000000000 -0.0276696587 -0.0281661240 -224.8918261769 0.0443678637 0.0125191715
0.7424346705 -0.2614780984 0.0000000000 -0.0313552559 -0.0271364851 -227.7174462917 0.0442793589 0.0125276695
0.7521017478 -0.2351768134 0.0000000000 -0.0355665821 -0.0247659993 -230.7454664940 0.0441892500 0.0125324827
0.7607778458 -0.2085327620 0.0000000000 -0.0401633606 -0.0211159362 -233.9748480109 0.0440982413 0.0125336185
0.7684513907 -0.1815831640 0.0000000000 -0.0449848547 -0.0162757099 -237.4057247622 0.0440070209 0.0125311195
0.7751121871 -0.1543656419 0.0000000000 -0.0498643780 -0.0103538915 -241.0377533123 0.0439162529 0.0125250582
0.7807514262 -0.1269181722 0.0000000000 -0.0546385110 -0.0034717632 -244.8683779839 0.0438265712 0.0125155328
0.7853616940 -0.0992790356 0.0000000000 -0.0591529633 0.0042411157 -248.8911123507 0.0437385742 0.0125026637
0.7889369797 -0.0714867665 0.0000000000 -0.0632662217 0.0126497982 -253.0939486039 0.0436528223 0.0124865902
0.7914726837 -0.0435801032 0.0000000000 -0.0668516419 0.0216156928 -257.4580022157 0.0435698358 0.0124674667
0.7929656238 -0.0155979359 0.0000000000 -0.0697983911 0.0309974778 -261.9564856796 0.0434900952 0.0124454595
0.7934140409 0.0124207443 0.0000000000 -0.0720115523 0.0406514206 -266.5540859268 0.0434140409 0.0124207440
0.7928176030 0.0404368984 0.0000000000 -0.0734116868 0.0504312609 -271.2067991326 0.0433420745 0.0123935024
0.7911774082 0.0684114924 0.0000000000 -0.0739341777 0.0601877783 -275.8622575466 0.0432745603 0.0123639220
0.7884959864 0.0963055521 0.0000000000 -0.0735286935 0.0697681558 -280.4605681748 0.0432118290 0.0123321947
0.7847773017 0.1240802168 0.0000000000 -0.0721590930 0.0790152814 -284.9356730528 0.0431541821 0.0122985169
0.7800267536 0.1516967953 0.0000000000 -0.0698039962 0.0877671683 -289.2172332066 0.0431018987 0.0122630897
0.7742511775 0.1791168203 0.0000000000 -0.0664580707 0.0958567142 -293.2330280648 0.0430552435 0.0122261196
0.7674588442 0.2063021033 0.0000000000 -0.0621338274 0.1031120284 -296.9118426403 0.0430144745 0.0121878192
0.7596594552 0.2332147898 0.0000000000 -0.0568634028 0.1093575359 -300.1867806521 0.0429798509 0.0121484087
0.7508641351 0.2598174143 0.0000000000 -0.0506994650 0.1144160293 -302.9988910988 0.0429516375 0.0121081176
0.7410854170 0.2860729563 0.0000000000 -0.0437140087 0.1181118305 -305.3009324602 0.0429301056 0.0120671879
0.7303372190 0.3119448972 0.0000000000 -0.0359933339 0.1202753097 -307.0610334134 0.0429155271 0.0120258788
0.7186348094 0.3373972773 0.0000000000 -0.0276267410 0.1207492847 -308.2659592622 0.0429081586 0.0119844728
0.7059947563 0.3623947529 0.0000000000 -0.0186850886 0.1193983942 -308.9236859801 0.0429082112 0.0119432816
0.6924348579 0.3869026477 0.0000000000 -0.0091830853 0.1161234751 -309.0650566091 0.0429158052 0.0119026476
0.6779740582 0.4108869952 0.0000000000 0.0009834990 0.1108841646 -308.7444801479 0.0429309089 0.0118629377
0.6626323568 0.4343145671 0.0000000000 0.0121349217 0.1037336325 -308.0398675400 0.0429532762 0.0118245234
0.6464307301 0.4571528903 0.0000000000 0.0249398779 0.0948674579 -307.0519804564 0.0429823954 0.0117877510
0.6293910569 0.4793702693 0.0000000000 0.0405595667 0.0846810275 -305.9025603466 0.0430174452 0.0117529179
0.6115359458 0.5009358412 0.0000000000 0.0607392618 0.0738152283 -304.7289684600 0.0430571535 0.0117202826
0.5928880868 0.5218197871 0.0000000000 0.0877488597 0.0631558692 -303.6681376719 0.0430991830 0.0116902337
0.5511570049 0.5634118903 0.0000000000 0.1779201396 0.0461815870 -302.3473817816 0.0431958263 0.0116189573
0.5279832530 0.5838940571 0.0000000000 0.2477553294 0.0426794260 -302.2893667587 0.0432588247 0.0115810059
0.5039885538 0.6034038966 0.0000000000 0.3334424473 0.0439893247 -302.6728546149 0.0433290194 0.0115485145
0.4792138530 0.6219076267 0.0000000000 0.4326881044 0.0503371179 -303.4720252305 0.0434062416 0.0115210887
0.4537006860 0.6393733072 0.0000000000 0.5413232389 0.0614947284 -304.6585622868 0.0434895675 0.0114984485
0.4274917022 0.6557706969 0.0000000000 0.6539221724 0.0768573396 -306.1932608503 0.0435779155 0.0114802311
0.4006307860 0.6710713855 0.0000000000 0.7646083205 0.0955137843 -307.9980820773 0.0436702413 0.0114660721
0.3731630210 0.6852489121 0.0000000000 0.8679160450 0.1163445847 -309.9392654843 0.0437655795 0.0114556756
0.3451346069 0.6982788308 0.0000000000 0.9595456850 0.1381721736 -311.8407885671 0.0438630385 0.0114488358
0.3165927697 0.7101387343 0.0000000000 1.0368375622 0.1599368641 -313.5191361098 0.0439617919 0.0114454182
0.2875856795 0.7208082602 0.0000000000 1.0988687866 0.1808419399 -314.8158150779 0.0440610777 0.0114453289
0.2581623721 0.7302690974 0.0000000000 1.1462076535 0.2004248489 -315.6125315975 0.0441602040 0.0114484856
0.2283726711 0.7385049981 0.0000000000 1.1804593159 0.2185470677 -315.8288702092 0.0442585558 0.0114547986
0.1982671042 0.7455017942 0.0000000000 1.2037605344 0.2353242525 -315.4096230194 0.0443555977 0.0114641602
0.1678968143 0.7512474181 0.0000000000 1.2183453996 0.2510294578 -314.3089698507 0.0444508718 0.0114764405
0.1373134632 0.7557319262 0.0000000000 1.2262443456 0.2659986377 -312.4764999044 0.0445439899 0.0114914914
0.1065691307 0.7589475241 0.0000000000 1.2291246269 0.2805567484 -309.8478846510 0.0446346217 0.0115091543
0.0757162105 0.7608885911 0.0000000000 1.2282458285 0.2949709776 -306.3411268328 0.0447224799 0.0115292723
0.0448073045 0.7615517029 0.0000000000 1.2244905911 0.3094288818 -301.8578065108 0.0448073047 0.0115517029
0.0138951170 0.7609356475 0.0000000000 1.2184329165 0.3240348138 -296.2878435931 0.0448888479 0.0115763288
-0.0169676500 0.7590414348 0.0000000000 1.2104163805 0.3388172812 -289.5160661457 0.0449668592 0.0116030650
-0.0477284006 0.7558722952 0.0000000000 1.2006259412 0.3537412418 -281.4291437002 0.0450410730 0.0116318604
-0.0783347458 0.7514336696 0.0000000000 1.1891462003 0.3687213975 -271.9219361189 0.0451111971 0.0116626921
-0.1087346034 0.7457331903 0.0000000000 1.1760048833 0.3836343978 -260.9027883473 0.0451769035 0.0116955564
-0.1388762947 0.7387806543 0.0000000000 1.1612033118 0.3983291654 -248.2976490899 0.0452378209 0.0117304549
-0.1687086383 0.7305879910 0.0000000000 1.1447366963 0.4126352972 -234.0530867150 0.0452935301 0.0117673792
-0.1981810408 0.7211692259 0.0000000000 1.1266070313 0.4263698282 -218.1383529411 0.0453435613 0.0118062946
-0.2272435838 0.7105404411 0.0000000000 1.1068308855 0.4393427327 -200.5466522060 0.0453873943 0.0118471252
-0.2558471078 0.6987197332 0.0000000000 1.0854437808 0.4513614958 -181.2957512494 0.0454244608 0.0118897382
-0.2839432953 0.6857271671 0.0000000000 1.0625023364 0.4622350124 -160.4280330344 0.0454541465 0.0119339308
-0.3114847548 0.6715847273 0.0000000000 1.0380849492 0.4717769878 -138.0100725134 0.0454757902 0.0119794139
-0.3384251156 0.6563162609 0.0000000000 1.0122915018 0.4798089429 -114.1317892542 0.0454886714 0.0120257952
-0.3647191485 0.6399474081 0.0000000000 0.9852423981 0.4861628784 -88.9052158195 0.0454919703 0.0120725495
-0.3903229577 0.6225055025 0.0000000000 0.9570770821 0.4906835978 -62.4628667586 0.0454846540 0.0121189646
-0.4151943655 0.6040193976 0.0000000000 0.9279520905 0.4932306350 -34.9557103608 0.0454651692 0.0121640157
-0.4392938979 0.5845191288 0.0000000000 0.8980383303 0.4936793774 -6.5499829984 0.0454305306 0.0122060778
-0.4625879286 0.5640353516 0.0000000000 0.8675173477 0.4919202921 22.5765781372 0.0453732503 0.0122424187
-0.5065205189 0.5203022891 0.0000000000 0.8055500118 0.4814871717 82.1055361331 0.0452724143 0.0123411106
-0.5270811030 0.4971279229 0.0000000000 0.7745200880 0.4727302011 112.0779393204 0.0452319483 0.0124034947
-0.5466850748 0.4731182242 0.0000000000 0.7437246452 0.4615591321 141.9301019306 0.0451703074 0.0124586899
-0.5652915200 0.4483158580 0.0000000000 0.7133873151 0.4479824487 171.4328292067 0.0450950181 0.0125082467
-0.5828654418 0.4227637161 0.0000000000 0.6837291726 0.4320264889 200.3611665404 0.0450094171 0.0125525977
-0.5993749754 0.3965055352 0.0000000000 0.6549666419 0.4137388106 228.4942732385 0.0449154905 0.0125917486
-0.6147905774 0.3695861163 0.0000000000 0.6273103629 0.3931877596 255.6167776017 0.0448147361 0.0126255717
-0.6290847826 0.3420513657 0.0000000000 0.6009633078 0.3704618974 281.5206899014 0.0447084539 0.0126539243
-0.6422321414 0.3139482642 0.0000000000 0.5761189636 0.3456690617 306.0073643138 0.0445978537 0.0126766960
-0.6542092231 0.2853248047 0.0000000000 0.5529595880 0.3189352279 328.8893882111 0.0444840930 0.0126938270
-0.6649946433 0.2562299152 0.0000000000 0.5316546106 0.2904031960 349.9923386824 0.0443682881 0.0127053136
-0.6745690993 0.2267133746 0.0000000000 0.5123591988 0.2602311377 369.1563791032 0.0442515126 0.0127112067
-0.6829154068 0.1968257232 0.0000000000 0.4952130030 0.2285910243 386.2376808357 0.0441347927 0.0127116081
-0.6900185328 0.1666181718 0.0000000000 0.4803390773 0.1956669524 401.1096629543 0.0440191012 0.0127066654
-0.6958656217 0.1361425082 0.0000000000 0.4678429507 0.1616533789 413.6640453834 0.0439053559 0.0126965658
-0.7004460141 0.1054510036 0.0000000000 0.4578118106 0.1267532824 423.8117084573 0.0437944208 0.0126815304
-0.7037512570 0.0745963166 0.0000000000 0.4503137722 0.0911762822 431.4833500965 0.0436871127 0.0126618078
-0.7057751077 0.0436313966 0.0000000000 0.4453972450 0.0551367537 436.6299386085 0.0435842111 0.0126376662
-0.7065135314 0.0126093847 0.0000000000 0.4430904525 0.0188519750 439.2229722307 0.0434864686 0.0126093850
-0.7059646973 -0.0184164854 0.0000000000 0.4434011732 -0.0174596852 439.2545699974 0.0433946214 0.0125772456
-0.7041289728 -0.0493929870 0.0000000000 0.4463167263 -0.0535805401 436.7374066655 0.0433093969 0.0125415224
-0.7010089171 -0.0802669987 0.0000000000 0.4518042272 -0.0892953193 431.7045047172 0.0432315177 0.0125024750
-0.6966092722 -0.1109856001 0.0000000000 0.4598111204 -0.1243928883 424.2088942022 0.0431617053 0.0124603429
-0.6909369482 -0.1414961635 0.0000000000 0.4702659137 -0.1586679701 414.3231239438 0.0431006857 0.0124153435
-0.6840009995 -0.1717464418 0.0000000000 0.4830790328 -0.1919228629 402.1386109669 0.0430491999 0.0123676738
-0.6758125860 -0.2016846523 0.0000000000 0.4981437354 -0.2239691315 387.7648197382 0.0430080257 0.0123175162