 TITLE = "Tecplot data"
 VARIABLES = "X", "Y", "Z" "U", "V", "p", "dispX", "dispY"
 ZONE SOLUTIONTIME=28.900000, NODES=26114 , ELEMENTS=25916, DATAPACKING=POINT, ZONETYPE=FEQUADRILATERAL
0.3758455902 0.3639855091 0.0000000000 0.0000000000 0.0000000000 -311.1451603347 0.0222921996 0.0104321185
0.3758455905 -0.3431212719 0.0000000000 0.0000000000 0.0000000000 -275.5178869776 0.0222921996 0.0104321185
-0.3312611911 0.3639855089 0.0000000000 0.0000000000 0.0000000000 -144.4594846157 0.0222921996 0.0104321185
-0.3312611908 -0.3431212723 0.0000000000 0.0000000000 0.0000000000 -82.3210105419 0.0222921996 0.0104321185
0.5522500097 0.5408328377 0.0000000000 0.1114225332 0.0429919721 -298.4858538537 0.0219199239 0.0105027518
0.5532727885 -0.5193377508 0.0000000000 0.1009334361 0.0146130402 -270.4872759672 0.0229427023 0.0109923348
-0.5072626136 0.5412777108 0.0000000000 0.8429520769 0.4933933311 46.3022158791 0.0230674724 0.0109476251
-0.5081485639 -0.5197036042 0.0000000000 0.8109380230 -0.4648147053 80.5803019622 0.0221815217 0.0106264820
1.0831051761 1.0712833349 0.0000000000 1.2630640158 0.0718758601 -298.6091194618 0.0224450044 0.0106231630
1.0830264157 -1.0496627170 0.0000000000 1.1141856992 -0.1608036348 -141.8329449924 0.0223662432 0.0109974540
-1.0366667564 1.0725952423 0.0000000000 0.9301864349 0.1831022487 73.4112700084 0.0239934157 0.0119350709
-1.0388907781 -1.0492343628 0.0000000000 0.9127434811 -0.1751022123 89.8577961663 0.0217693931 0.0114258095
4.2221318893 3.3094262619 0.0000000000 1.1354865127 0.0225962981 -43.9944258254 0.0221318893 0.0094262619
4.2193783337 -3.2905721560 0.0000000000 1.0781129412 0.0496297109 -48.5065749000 0.0193783337 0.0094278440
20.0000000000 4.7000000000 0.0000000000 1.0038232489 -0.0030862392 -0.0015571496 0.0000000000 0.0000000000
20.0000000000 -4.7000000000 0.0000000000 1.0043025698 0.0034939183 -0.0120336217 0.0000000000 0.0000000000
-10.0000000000 15.0000000000 0.0000000000 1.0000000000 0.0000000000 6.7974814541 0.0000000000 0.0000000000
20.0000000000 15.0000000000 0.0000000000 0.9997755158 0.0000000000 0.0032917988 0.0000000000 0.0000000000
20.0000000000 -15.0000000000 0.0000000000 1.0002203940 0.0000000000 0.0037860868 0.0000000000 0.0000000000
-10.0000000000 -15.0000000000 0.0000000000 1.0000000000 0.0000000000 8.9311786850 0.0000000000 0.0000000000
0.3888181358 -0.3296542502 0.0000000000 0.0000000000 0.0000000000 -273.4586545817 0.0222921996 0.0104321185
0.4012780614 -0.3157115869 0.0000000000 0.0000000000 0.0000000000 -271.4850766742 0.0222921996 0.0104321185
0.4132079411 -0.3013127822 0.0000000000 0.0000000000 0.0000000000 -269.8644847975 0.0222921996 0.0104321185
0.4245910897 -0.2864779741 0.0000000000 0.0000000000 0.0000000000 -268.5020994184 0.0222921996 0.0104321185
0.4354115870 -0.2712279103 0.0000000000 0.0000000000 0.0000000000 -267.4930909729 0.0222921996 0.0104321185
0.4456542994 -0.2555839195 0.0000000000 0.0000000000 0.0000000000 -266.8233169297 0.0222921996 0.0104321185
0.4553049017 -0.2395678813 0.0000000000 0.0000000000 0.0000000000 -266.5167054595 0.0222921996 0.0104321185
0.4643498965 -0.2232021954 0.0000000000 0.0000000000 0.0000000000 -266.5649145011 0.0222921996 0.0104321185
0.4727766337 -0.2065097508 0.0000000000 0.0000000000 0.0000000000 -266.9622914297 0.0222921996 0.0104321185
0.4805733277 -0.1895138934 0.0000000000 0.0000000000 0.0000000000 -267.6918543173 0.0222921996 0.0104321185
0.4877290741 -0.1722383935 0.0000000000 0.0000000000 0.0000000000 -268.7343636282 0.0222921996 0.0104321185
0.4942338649 -0.1547074123 0.0000000000 0.0000000000 0.0000000000 -270.0661374738 0.0222921996 0.0104321185
0.5000786026 -0.1369454685 0.0000000000 0.0000000000 0.0000000000 -271.6615655042 0.0222921996 0.0104321185
0.5052551128 -0.1189774038 0.0000000000 0.0000000000 0.0000000000 -273.4927313320 0.0222921996 0.0104321185
0.5097561558 -0.1008283483 0.0000000000 0.0000000000 0.0000000000 -275.5298729353 0.0222921996 0.0104321185
0.5135754363 -0.0825236849 0.0000000000 0.0000000000 0.0000000000 -277.7410851359 0.0222921996 0.0104321185
0.5167076128 -0.0640890144 0.0000000000 0.0000000000 0.0000000000 -280.0922617985 0.0222921996 0.0104321185
0.5191483046 -0.0455501194 0.0000000000 0.0000000000 0.0000000000 -282.5470061037 0.0222921996 0.0104321185
0.5208940982 -0.0269329281 0.0000000000 0.0000000000 0.0000000000 -285.0668182029 0.0222921996 0.0104321185
0.5219425520 -0.0082634785 0.0000000000 0.0000000000 0.0000000000 -287.6115319863 0.0222921996 0.0104321185
0.5222921996 0.0104321187 0.0000000000 0.0000000000 0.0000000000 -290.1400681875 0.0222921996 0.0104321185
0.5219425520 0.0291277158 0.0000000000 0.0000000000 0.0000000000 -292.6114746419 0.0222921996 0.0104321185
0.5208940982 0.0477971654 0.0000000000 0.0000000000 0.0000000000 -294.9861782641 0.0222921996 0.0104321185
0.5191483046 0.0664143567 0.0000000000 0.0000000000 0.0000000000 -297.2274062756 0.0222921996 0.0104321185
0.5167076127 0.0849532517 0.0000000000 0.0000000000 0.0000000000 -299.3025619586 0.0222921996 0.0104321185
0.5135754362 0.1033879222 0.0000000000 0.0000000000 0.0000000000 -301.1846265913 0.0222921996 0.0104321185
0.5097561557 0.1216925856 0.0000000000 0.0000000000 0.0000000000 -302.8531091594 0.0222921996 0.0104321185
0.5052551127 0.1398416412 0.0000000000 0.0000000000 0.0000000000 -304.2951197934 0.0222921996 0.0104321185
0.5000786025 0.1578097058 0.0000000000 0.0000000000 0.0000000000 -305.5052737199 0.0222921996 0.0104321185
0.4942338647 0.1755716496 0.0000000000 0.0000000000 0.0000000000 -306.4866751579 0.0222921996 0.0104321185
0.4877290739 0.1931026308 0.0000000000 0.0000000000 0.0000000000 -307.2489102573 0.0222921996 0.0104321185
0.4805733275 0.2103781307 0.0000000000 0.0000000000 0.0000000000 -307.8106469203 0.0222921996 0.0104321185
0.4727766335 0.2273739881 0.0000000000 0.0000000000 0.0000000000 -308.1934820942 0.0222921996 0.0104321185
0.4643498963 0.2440664327 0.0000000000 0.0000000000 0.0000000000 -308.4316846884 0.0222921996 0.0104321185
0.4553049015 0.2604321185 0.0000000000 0.0000000000 0.0000000000 -308.5541540815 0.0222921996 0.0104321185
0.4456542992 0.2764481568 0.0000000000 0.0000000000 0.0000000000 -308.6174649007 0.0222921996 0.0104321185
0.4354115867 0.2920921476 0.0000000000 0.0000000000 0.0000000000 -308.6491443342 0.0222921996 0.0104321185
0.4245910895 0.3073422113 0.0000000000 0.0000000000 0.0000000000 -308.7519382312 0.0222921996 0.0104321185
0.4132079408 0.3221770194 0.0000000000 0.0000000000 0.0000000000 -308.9212742260 0.0222921996 0.0104321185
0.4012780612 0.3365758242 0.0000000000 0.0000000000 0.0000000000 -309.3688440137 0.0222921996 0.0104321185
0.3888181355 0.3505184874 0.0000000000 0.0000000000 0.0000000000 -309.9437310332 0.0222921996 0.0104321185
0.3609329854 0.3782940738 0.0000000000 0.0000000000 0.0000000000 -312.6162559142 0.0222921996 0.0104321185
0.3454418185 0.3919741526 0.0000000000 0.0000000000 0.0000000000 -314.9956754065 0.0222921996 0.0104321185
0.3293985559 0.4050023732 0.0000000000 0.0000000000 0.0000000000 -317.8668185384 0.0222921996 0.0104321185
0.3128306073 0.4173564771 0.0000000000 0.0000000000 0.0000000000 -321.5197587869 0.0222921996 0.0104321185
0.2957662786 0.4290153576 0.0000000000 0.0000000000 0.0000000000 -325.8188940550 0.0222921996 0.0104321185
0.2782347241 0.4399590957 0.0000000000 0.0000000000 0.0000000000 -330.8709722762 0.0222921996 0.0104321185
0.2602658961 0.4501689941 0.0000000000 0.0000000000 0.0000000000 -336.6665991549 0.0222921996 0.0104321185
0.2418904940 0.4596276094 0.0000000000 0.0000000000 0.0000000000 -343.2930626816 0.0222921996 0.0104321185
0.2231399119 0.4683187818 0.0000000000 0.0000000000 0.0000000000 -350.8061943277 0.0222921996 0.0104321185
0.2040461848 0.4762276625 0.0000000000 0.0000000000 0.0000000000 -359.2821138472 0.0222921996 0.0104321185
0.1846419342 0.4833407393 0.0000000000 0.0000000000 0.0000000000 -368.7622362147 0.0222921996 0.0104321185
0.1649603117 0.4896458597 0.0000000000 0.0000000000 0.0000000000 -379.2601609376 0.0222921996 0.0104321185
0.1450349431 0.4951322515 0.0000000000 0.0000000000 0.0000000000 -390.7383158524 0.0222921996 0.0104321185
0.1248998706 0.4997905411 0.0000000000 0.0000000000 0.0000000000 -403.1054603899 0.0222921996 0.0104321185
0.1045894947 0.5036127702 0.0000000000 0.0000000000 0.0000000000 -416.2057136489 0.0222921996 0.0104321185
0.0841385152 0.5065924083 0.0000000000 0.0000000000 0.0000000000 -429.8157610841 0.0222921996 0.0104321185
0.0635818723 0.5087243650 0.0000000000 0.0000000000 0.0000000000 -443.6424249122 0.0222921996 0.0104321185
0.0429546867 0.5100049977 0.0000000000 0.0000000000 0.0000000000 -457.3263896023 0.0222921996 0.0104321185
0.0222921995 0.5104321185 0.0000000000 0.0000000000 0.0000000000 -470.4498671874 0.0222921996 0.0104321185
0.0016297124 0.5100049977 0.0000000000 0.0000000000 0.0000000000 -482.5494249879 0.0222921996 0.0104321185
-0.0189974732 0.5087243650 0.0000000000 0.0000000000 0.0000000000 -493.1324014364 0.0222921996 0.0104321185
-0.0395541161 0.5065924083 0.0000000000 0.0000000000 0.0000000000 -501.6960417956 0.0222921996 0.0104321185
-0.0600050956 0.5036127701 0.0000000000 0.0000000000 0.0000000000 -507.7476117942 0.0222921996 0.0104321185
-0.0803154716 0.4997905411 0.0000000000 0.0000000000 0.0000000000 -510.8240407329 0.0222921996 0.0104321185
-0.1004505441 0.4951322514 0.0000000000 0.0000000000 0.0000000000 -510.5096609411 0.0222921996 0.0104321185
-0.1203759126 0.4896458597 0.0000000000 0.0000000000 0.0000000000 -506.4510284646 0.0222921996 0.0104321185
-0.1400575351 0.4833407393 0.0000000000 0.0000000000 0.0000000000 -498.3681768741 0.0222921996 0.0104321185
-0.1594617858 0.4762276624 0.0000000000 0.0000000000 0.0000000000 -486.0620861486 0.0222921996 0.0104321185
-0.1785555128 0.4683187817 0.0000000000 0.0000000000 0.0000000000 -469.4184883502 0.0222921996 0.0104321185
-0.1973060949 0.4596276093 0.0000000000 0.0000000000 0.0000000000 -448.4083930635 0.0222921996 0.0104321185
-0.2156814970 0.4501689940 0.0000000000 0.0000000000 0.0000000000 -423.0858657613 0.0222921996 0.0104321185
-0.2336503250 0.4399590956 0.0000000000 0.0000000000 0.0000000000 -393.5836503101 0.0222921996 0.0104321185
-0.2511818795 0.4290153575 0.0000000000 0.0000000000 0.0000000000 -360.1072075769 0.0222921996 0.0104321185
-0.2682462082 0.4173564770 0.0000000000 0.0000000000 0.0000000000 -322.9276727305 0.0222921996 0.0104321185
-0.2848141568 0.4050023731 0.0000000000 0.0000000000 0.0000000000 -282.3741390921 0.0222921996 0.0104321185
-0.3008574194 0.3919741525 0.0000000000 0.0000000000 0.0000000000 -238.8255801927 0.0222921996 0.0104321185
-0.3163485863 0.3782940737 0.0000000000 0.0000000000 0.0000000000 -192.7026422307 0.0222921996 0.0104321185
-0.3455697558 0.3490729042 0.0000000000 0.0000000000 0.0000000000 -94.5758162790 0.0222921996 0.0104321185
-0.3592498346 0.3335817373 0.0000000000 0.0000000000 0.0000000000 -43.5492582342 0.0222921996 0.0104321185
-0.3722780552 0.3175384747 0.0000000000 0.0000000000 0.0000000000 8.1118573190 0.0222921996 0.0104321185
-0.3846321591 0.3009705260 0.0000000000 0.0000000000 0.0000000000 59.8951712403 0.0222921996 0.0104321185
-0.3962910396 0.2839061974 0.0000000000 0.0000000000 0.0000000000 111.2904276980 0.0222921996 0.0104321185
-0.4072347776 0.2663746429 0.0000000000 0.0000000000 0.0000000000 161.7950578197 0.0222921996 0.0104321185
-0.4174446761 0.2484058148 0.0000000000 0.0000000000 0.0000000000 210.9192575979 0.0222921996 0.0104321185
-0.4269032914 0.2300304127 0.0000000000 0.0000000000 0.0000000000 258.1906174779 0.0222921996 0.0104321185
-0.4355944638 0.2112798306 0.0000000000 0.0000000000 0.0000000000 303.1583598428 0.0222921996 0.0104321185
-0.4435033445 0.1921861036 0.0000000000 0.0000000000 0.0000000000 345.3972271300 0.0222921996 0.0104321185
-0.4506164213 0.1727818529 0.0000000000 0.0000000000 0.0000000000 384.5110469965 0.0222921996 0.0104321185
-0.4569215416 0.1531002304 0.0000000000 0.0000000000 0.0000000000 420.1359830519 0.0222921996 0.0104321185
-0.4624079334 0.1331748618 0.0000000000 0.0000000000 0.0000000000 451.9434728469 0.0222921996 0.0104321185
-0.4670662231 0.1130397894 0.0000000000 0.0000000000 0.0000000000 479.6428404267 0.0222921996 0.0104321185
-0.4708884521 0.0927294134 0.0000000000 0.0000000000 0.0000000000 502.9835847525 0.0222921996 0.0104321185
-0.4738680903 0.0722784339 0.0000000000 0.0000000000 0.0000000000 521.7573157167 0.0222921996 0.0104321185
-0.4760000469 0.0517217910 0.0000000000 0.0000000000 0.0000000000 535.7993687656 0.0222921996 0.0104321185
-0.4772806796 0.0310946054 0.0000000000 0.0000000000 0.0000000000 544.9900235199 0.0222921996 0.0104321185
-0.4777078004 0.0104321183 0.0000000000 0.0000000000 0.0000000000 549.2554560985 0.0222921996 0.0104321185
-0.4772806796 -0.0102303689 0.0000000000 0.0000000000 0.0000000000 548.5681775207 0.0222921996 0.0104321185
-0.4760000469 -0.0308575545 0.0000000000 0.0000000000 0.0000000000 542.9474170121 0.0222921996 0.0104321185
-0.4738680902 -0.0514141974 0.0000000000 0.0000000000 0.0000000000 532.4585954860 0.0222921996 0.0104321185
-0.4708884520 -0.0718651769 0.0000000000 0.0000000000 0.0000000000 517.2134742558 0.0222921996 0.0104321185
-0.4670662230 -0.0921755528 0.0000000000 0.0000000000 0.0000000000 497.3680362068 0.0222921996 0.0104321185
-0.4624079333 -0.1123106253 0.0000000000 0.0000000000 0.0000000000 473.1235545577 0.0222921996 0.0104321185
-0.4569215415 -0.1322359939 0.0000000000 0.0000000000 0.0000000000 444.7207237475 0.0222921996 0.0104321185
-0.4506164211 -0.1519176164 0.0000000000 0.0000000000 0.0000000000 412.4456728124 0.0222921996 0.0104321185
-0.4435033443 -0.1713218670 0.0000000000 0.0000000000 0.0000000000 376.6127800117 0.0222921996 0.0104321185
-0.4355944636 -0.1904155941 0.0000000000 0.0000000000 0.0000000000 337.5899929709 0.0222921996 0.0104321185
-0.4269032912 -0.2091661762 0.0000000000 0.0000000000 0.0000000000 295.7427372587 0.0222921996 0.0104321185
-0.4174446759 -0.2275415783 0.0000000000 0.0000000000 0.0000000000 251.5325595541 0.0222921996 0.0104321185
-0.4072347774 -0.2455104063 0.0000000000 0.0000000000 0.0000000000 205.3139775761 0.0222921996 0.0104321185
-0.3962910394 -0.2630419608 0.0000000000 0.0000000000 0.0000000000 157.7294033504 0.0222921996 0.0104321185
-0.3846321589 -0.2801062894 0.0000000000 0.0000000000 0.0000000000 108.8889160752 0.0222921996 0.0104321185
-0.3722780549 -0.2966742381 0.0000000000 0.0000000000 0.0000000000 60.1238317065 0.0222921996 0.0104321185
-0.3592498343 -0.3127175007 0.0000000000 0.0000000000 0.0000000000 10.4848565333 0.0222921996 0.0104321185
-0.3455697555 -0.3282086675 0.0000000000 0.0000000000 0.0000000000 -27.5523281992 0.0222921996 0.0104321185
-0.3163485860 -0.3574298371 0.0000000000 0.0000000000 0.0000000000 -150.0281198774 0.0222921996 0.0104321185
-0.3008574191 -0.3711099158 0.0000000000 0.0000000000 0.0000000000 -177.6532659777 0.0222921996 0.0104321185
-0.2848141565 -0.3841381364 0.0000000000 0.0000000000 0.0000000000 -220.2371688606 0.0222921996 0.0104321185
-0.2682462078 -0.3964922403 0.0000000000 0.0000000000 0.0000000000 -257.2758362379 0.0222921996 0.0104321185
-0.2511818792 -0.4081511208 0.0000000000 0.0000000000 0.0000000000 -294.0128931077 0.0222921996 0.0104321185
-0.2336503247 -0.4190948589 0.0000000000 0.0000000000 0.0000000000 -326.1860284180 0.0222921996 0.0104321185
-0.2156814966 -0.4293047573 0.0000000000 0.0000000000 0.0000000000 -355.2471884866 0.0222921996 0.0104321185
-0.1973060945 -0.4387633726 0.0000000000 0.0000000000 0.0000000000 -380.0192456662 0.0222921996 0.0104321185
-0.1785555124 -0.4474545450 0.0000000000 0.0000000000 0.0000000000 -400.9378014645 0.0222921996 0.0104321185
-0.1594617854 -0.4553634257 0.0000000000 0.0000000000 0.0000000000 -417.6178414841 0.0222921996 0.0104321185
-0.1400575347 -0.4624765025 0.0000000000 0.0000000000 0.0000000000 -430.2826409030 0.0222921996 0.0104321185
-0.1203759122 -0.4687816229 0.0000000000 0.0000000000 0.0000000000 -438.9270394169 0.0222921996 0.0104321185
-0.1004505437 -0.4742680146 0.0000000000 0.0000000000 0.0000000000 -443.8100885244 0.0222921996 0.0104321185
-0.0803154712 -0.4789263043 0.0000000000 0.0000000000 0.0000000000 -445.1613878249 0.0222921996 0.0104321185
-0.0600050952 -0.4827485333 0.0000000000 0.0000000000 0.0000000000 -443.3424943187 0.0222921996 0.0104321185
-0.0395541157 -0.4857281714 0.0000000000 0.0000000000 0.0000000000 -438.7371674915 0.0222921996 0.0104321185
-0.0189974728 -0.4878601281 0.0000000000 0.0000000000 0.0000000000 -431.7933897466 0.0222921996 0.0104321185
0.0016297128 -0.4891407607 0.0000000000 0.0000000000 0.0000000000 -422.9732124071 0.0222921996 0.0104321185
0.0222921999 -0.4895678815 0.0000000000 0.0000000000 0.0000000000 -412.7522662646 0.0222921996 0.0104321185
0.0429546871 -0.4891407607 0.0000000000 0.0000000000 0.0000000000 -401.5898986630 0.0222921996 0.0104321185
0.0635818727 -0.4878601280 0.0000000000 0.0000000000 0.0000000000 -389.9170978001 0.0222921996 0.0104321185
0.0841385156 -0.4857281714 0.0000000000 0.0000000000 0.0000000000 -378.1179767483 0.0222921996 0.0104321185
0.1045894951 -0.4827485332 0.0000000000 0.0000000000 0.0000000000 -366.5203395099 0.0222921996 0.0104321185
0.1248998710 -0.4789263041 0.0000000000 0.0000000000 0.0000000000 -355.3880806392 0.0222921996 0.0104321185
0.1450349435 -0.4742680144 0.0000000000 0.0000000000 0.0000000000 -344.9200303553 0.0222921996 0.0104321185
0.1649603121 -0.4687816227 0.0000000000 0.0000000000 0.0000000000 -335.2522237161 0.0222921996 0.0104321185
0.1846419345 -0.4624765023 0.0000000000 0.0000000000 0.0000000000 -326.4641453656 0.0222921996 0.0104321185
0.2040461852 -0.4553634254 0.0000000000 0.0000000000 0.0000000000 -318.5856070826 0.0222921996 0.0104321185
0.2231399123 -0.4474545447 0.0000000000 0.0000000000 0.0000000000 -311.6046674354 0.0222921996 0.0104321185
0.2418904944 -0.4387633723 0.0000000000 0.0000000000 0.0000000000 -305.4717314803 0.0222921996 0.0104321185
0.2602658965 -0.4293047570 0.0000000000 0.0000000000 0.0000000000 -300.1090288892 0.0222921996 0.0104321185
0.2782347245 -0.4190948585 0.0000000000 0.0000000000 0.0000000000 -295.4102675745 0.0222921996 0.0104321185
0.2957662790 -0.4081511205 0.0000000000 0.0000000000 0.0000000000 -291.2680953526 0.0222921996 0.0104321185
0.3128306076 -0.3964922400 0.0000000000 0.0000000000 0.0000000000 -287.5523777582 0.0222921996 0.0104321185
0.3293985563 -0.3841381360 0.0000000000 0.0000000000 0.0000000000 -284.1987101869 0.0222921996 0.0104321185
0.3454418188 -0.3711099154 0.0000000000 0.0000000000 0.0000000000 -281.0662882723 0.0222921996 0.0104321185
0.3609329857 -0.3574298366 0.0000000000 0.0000000000 0.0000000000 -278.2517469753 0.0222921996 0.0104321185
0.5726909398 -0.4991304250 0.0000000000 0.0586367912 0.0214440049 -269.4930388885 0.0229020356 0.0109991279
0.5913498203 -0.4782023314 0.0000000000 0.0249027927 0.0280138038 -268.3126765617 0.0228710276 0.0110132267
0.6092146145 -0.4565865967 0.0000000000 -0.0009683443 0.0343058480 -267.0994543459 0.0228410023 0.0110307543
0.6262576472 -0.4343160833 0.0000000000 -0.0198621954 0.0402602246 -265.9777654944 0.0228093120 0.0110490555
0.6424542138 -0.4114232605 0.0000000000 -0.0328344709 0.0458544481 -265.0622562307 0.0227751327 0.0110667826
0.6577814889 -0.3879408634 0.0000000000 -0.0410564572 0.0511358887 -264.4432369542 0.0227383392 0.0110831936
0.6722181501 -0.3639021478 0.0000000000 -0.0457205017 0.0562215794 -264.1804453059 0.0226990971 0.0110978518
0.6857442403 -0.3393409782 0.0000000000 -0.0479344303 0.0612746766 -264.3047725602 0.0226576949 0.0111104926
0.6983411206 -0.3142918469 0.0000000000 -0.0486361555 0.0664711617 -264.8243894979 0.0226144694 0.0111209570
0.7099914645 -0.2887898653 0.0000000000 -0.0485467329 0.0719685597 -265.7318962778 0.0225697724 0.0111291526
0.7206792691 -0.2628707372 0.0000000000 -0.0481636804 0.0778836898 -267.0102460978 0.0225239575 0.0111350307
0.7303898725 -0.2365707233 0.0000000000 -0.0477846823 0.0842814847 -268.6365734457 0.0224773747 0.0111385727
0.7391099720 -0.2099265987 0.0000000000 -0.0475476494 0.0911734248 -270.5840286300 0.0224303676 0.0111397817
0.7468276400 -0.1829756064 0.0000000000 -0.0474748424 0.0985225478 -272.8221658020 0.0223832702 0.0111386771
0.7535323386 -0.1557554088 0.0000000000 -0.0475131040 0.1062519029 -275.3165098629 0.0223364044 0.0111352913
0.7592149321 -0.1283040375 0.0000000000 -0.0475665599 0.1142540129 -278.0278336013 0.0222900771 0.0111296675
0.7638676982 -0.1006598419 0.0000000000 -0.0475211655 0.1223998161 -280.9115354658 0.0222445785 0.0111218574
0.7674843388 -0.0728614370 0.0000000000 -0.0472620637 0.1305463289 -283.9173746458 0.0222001814 0.0111119197
0.7700599888 -0.0449476513 0.0000000000 -0.0466852583 0.1385427956 -286.9897083630 0.0221571408 0.0110999186
0.7715912232 -0.0169574729 0.0000000000 -0.0457050691 0.1462353841 -290.0682867067 0.0221156946 0.0110859225
0.7720760632 0.0110700039 0.0000000000 -0.0442585689 0.1534706073 -293.0895902504 0.0220760632 0.0110700036
0.7715139798 0.0390956338 0.0000000000 -0.0423079006 0.1600976852 -295.9886427589 0.0220384512 0.0110522378
0.7699058955 0.0670802752 0.0000000000 -0.0398411128 0.1659700511 -298.7011939500 0.0220030477 0.0110327048
0.7672541854 0.0949848468 0.0000000000 -0.0368719580 0.1709461953 -301.1661444280 0.0219700280 0.0110114895
0.7635626761 0.1227703831 0.0000000000 -0.0334389424 0.1748900433 -303.3280749402 0.0219395564 0.0109886832
0.7588366439 0.1503980909 0.0000000000 -0.0296037887 0.1776710980 -305.1397426386 0.0219117890 0.0109643853
0.7530828116 0.1778294053 0.0000000000 -0.0254493591 0.1791646322 -306.5644146901 0.0218868775 0.0109387046
0.7463093425 0.2050260454 0.0000000000 -0.0210769540 0.1792522990 -307.5779200803 0.0218649729 0.0109117613
0.7385258330 0.2319500689 0.0000000000 -0.0166027351 0.1778236135 -308.1703090951 0.0218462287 0.0108836879
0.7297433001 0.2585639275 0.0000000000 -0.0121527602 0.1747788362 -308.3470126273 0.0218308024 0.0108546308
0.7199741661 0.2848305205 0.0000000000 -0.0078556037 0.1700338471 -308.1293889239 0.0218188547 0.0108247520
0.7092322362 0.3107132490 0.0000000000 -0.0038304885 0.1635276830 -307.5545415767 0.0218105444 0.0107942306
0.6975326697 0.3361760693 0.0000000000 -0.0001667171 0.1552336609 -306.6743224350 0.0218060188 0.0107632648
0.6848919412 0.3611835442 0.0000000000 0.0031135716 0.1451756171 -305.5535770732 0.0218053961 0.0107320728
0.6713277929 0.3857008916 0.0000000000 0.0061220962 0.1334517168 -304.2680439556 0.0218087402 0.0107008915
0.6568591782 0.4096940268 0.0000000000 0.0092148633 0.1202684745 -302.9027792170 0.0218160288 0.0106699692
0.6415062044 0.4331295967 0.0000000000 0.0131487133 0.1059841810 -301.5518943117 0.0218271237 0.0106395531
0.6252900837 0.4559750117 0.0000000000 0.0192504339 0.0911504654 -300.3187469324 0.0218417490 0.0106098725
0.6082330876 0.4781984834 0.0000000000 0.0295118468 0.0765250001 -299.3126592175 0.0218594758 0.0105811319
0.5903584509 0.4997690940 0.0000000000 0.0464951483 0.0630207383 -298.6369285775 0.0218796586 0.0105535355
0.5716900283 0.5206569834 0.0000000000 0.0729811423 0.0515774435 -298.3636022807 0.0219011245 0.0105274300
0.5299140457 0.5622620306 0.0000000000 0.1698831952 0.0375194678 -299.2020412683 0.0219528670 0.0104690975
0.5067117731 0.5827528265 0.0000000000 0.2454598088 0.0365285748 -300.2798730768 0.0219873447 0.0104397753
0.4826850394 0.6022697078 0.0000000000 0.3367744562 0.0400199473 -301.6814166842 0.0220255049 0.0104143257
0.4578748719 0.6207789008 0.0000000000 0.4408028110 0.0478474892 -303.3610255829 0.0220672604 0.0103923628
0.4323232601 0.6382485171 0.0000000000 0.5531538052 0.0597610381 -305.3074245870 0.0221121416 0.0103736584
0.4060733988 0.6546484551 0.0000000000 0.6684705187 0.0753256879 -307.5087501133 0.0221596120 0.0103579893
0.3791697044 0.6699504780 0.0000000000 0.7810334760 0.0938422668 -309.9086364290 0.0222091597 0.0103451646
0.3516577533 0.6841282905 0.0000000000 0.8855395368 0.1143722218 -312.3848907999 0.0222603118 0.0103350541
0.3235841963 0.6971575851 0.0000000000 0.9778489958 0.1358740739 -314.7659172725 0.0223126279 0.0103275901
0.2949966724 0.7090160653 0.0000000000 1.0554587295 0.1573849595 -316.8700326510 0.0223656946 0.0103227492
0.2659437273 0.7196834603 0.0000000000 1.1175839677 0.1781700390 -318.5405893735 0.0224191255 0.0103205290
0.2364747330 0.7291415403 0.0000000000 1.1648957517 0.1977959337 -319.6617863969 0.0224725650 0.0103209284
0.2066398077 0.7373741340 0.0000000000 1.1990605992 0.2161250165 -320.1561946081 0.0225256924 0.0103239345
0.1764897307 0.7443671487 0.0000000000 1.2222413638 0.2332533065 -319.9718296085 0.0225782242 0.0103295146
0.1460758546 0.7501085905 0.0000000000 1.2366752818 0.2494228614 -319.0661385472 0.0226299120 0.0103376129
0.1154500122 0.7545885866 0.0000000000 1.2443853015 0.2649354518 -317.3919100999 0.0226805389 0.0103481518
0.0846644213 0.7577994059 0.0000000000 1.2470293801 0.2800843595 -314.8879186596 0.0227299124 0.0103610361
0.0537715876 0.7597354796 0.0000000000 1.2458606205 0.2951105466 -311.4752124916 0.0227778571 0.0103761608
0.0228242071 0.7603934187 0.0000000000 1.2417593630 0.3101815165 -307.0584361239 0.0228242072 0.0103934187
-0.0081249318 0.7597720267 0.0000000000 1.2353010088 0.3253871066 -301.5306745160 0.0228687991 0.0104127079
-0.0390230441 0.7578723059 0.0000000000 1.2268330820 0.3407456390 -294.7800861456 0.0229114652 0.0104339362
-0.0698174447 0.7546974571 0.0000000000 1.2165459159 0.3562149713 -286.6968733328 0.0229520289 0.0104570224
-0.1004556428 0.7502528716 0.0000000000 1.2045301060 0.3717047801 -277.1796371402 0.0229903000 0.0104818940
-0.1308854350 0.7445461160 0.0000000000 1.1908195162 0.3870880645 -266.1406480892 0.0230260718 0.0105084821
-0.1610549975 0.7375869125 0.0000000000 1.1754215283 0.4022110471 -253.5099140109 0.0230591180 0.0105367130
-0.1909129762 0.7293871127 0.0000000000 1.1583372536 0.4169013530 -239.2381233031 0.0230891922 0.0105665010
-0.2204085751 0.7199606696 0.0000000000 1.1395744106 0.4309746788 -223.2986202683 0.0231160270 0.0105977384
-0.2494916425 0.7093236043 0.0000000000 1.1191551083 0.4442402633 -205.6885770753 0.0231393356 0.0106302883
-0.2781127549 0.6974939709 0.0000000000 1.0971202070 0.4565054549 -186.4295034653 0.0231588138 0.0106639760
-0.3062233002 0.6844918177 0.0000000000 1.0735314264 0.4675796068 -165.5672046701 0.0231741416 0.0106985814
-0.3337755616 0.6703391434 0.0000000000 1.0484719770 0.4772774614 -143.1712713856 0.0231849834 0.0107338301
-0.3607228051 0.6550598477 0.0000000000 1.0220462155 0.4854221251 -119.3341645392 0.0231909819 0.0107693820
-0.3870193821 0.6386796698 0.0000000000 0.9943786373 0.4918476922 -94.1699440549 0.0231917366 0.0108048112
-0.4126208668 0.6212261027 0.0000000000 0.9656123828 0.4964015345 -67.8126535167 0.0231867449 0.0108395649
-0.4374842942 0.6027282477 0.0000000000 0.9359073464 0.4989462510 -40.4143998058 0.0231752405 0.0108728658
-0.4615687058 0.5832165168 0.0000000000 0.9054377059 0.4993610730 -12.1426389734 0.0231557228 0.0109034658
-0.4848367770 0.5627219823 0.0000000000 0.8743888004 0.4975423803 16.8225268539 0.0231244019 0.0109290494
-0.5287247129 0.5189605742 0.0000000000 0.8114189560 0.4869031744 75.9932895421 0.0230682202 0.0109993956
-0.5492679021 0.4957692331 0.0000000000 0.7799198807 0.4779953590 105.7741855131 0.0230451492 0.0110448049
-0.5688441635 0.4717441190 0.0000000000 0.7486850677 0.4666569603 135.4159660554 0.0230112187 0.0110845847
-0.5874162709 0.4469277965 0.0000000000 0.7179365980 0.4528948829 164.6952705031 0.0229702672 0.0111201851
-0.6049508301 0.4213631847 0.0000000000 0.6878945595 0.4367359638 193.3910684330 0.0229240287 0.0111520663
-0.6214169280 0.3950941257 0.0000000000 0.6587750921 0.4182282994 221.2855410830 0.0228735379 0.0111803391
-0.6367857431 0.3681655426 0.0000000000 0.6307888899 0.3974407188 248.1657837513 0.0228195704 0.0112049980
-0.6510304427 0.3406234509 0.0000000000 0.6041393137 0.3744621433 273.8257629756 0.0227627938 0.0112260095
-0.6641261715 0.3125149140 0.0000000000 0.5790205757 0.3494006869 298.0682567517 0.0227038236 0.0112433457
-0.6760500722 0.2838879756 0.0000000000 0.5556160112 0.3223825837 320.7067067826 0.0226432439 0.0112569980
-0.6867813180 0.2547915821 0.0000000000 0.5340964828 0.2935509587 341.5669459837 0.0225816134 0.0112669805
-0.6963011461 0.2252754980 0.0000000000 0.5146189354 0.2630644617 360.4887825927 0.0225194658 0.0112733301
-0.7045928911 0.1953902196 0.0000000000 0.4973251088 0.2310957794 377.3274293260 0.0224573084 0.0112761045
-0.7116420142 0.1651868859 0.0000000000 0.4823404038 0.1978300348 391.9547699100 0.0223956199 0.0112753795
-0.7174361268 0.1347171888 0.0000000000 0.4697728765 0.1634630835 404.2604550603 0.0223348508 0.0112712464
-0.7219650093 0.1040332831 0.0000000000 0.4597123296 0.1281997255 414.1528168589 0.0222754255 0.0112638100
-0.7252206226 0.0731876946 0.0000000000 0.4522294858 0.0922518662 421.5595903333 0.0222177472 0.0112531858
-0.7271971150 0.0422332279 0.0000000000 0.4473752683 0.0558366687 426.4284403672 0.0221622038 0.0112394975
-0.7278908248 0.0112228743 0.0000000000 0.4451802502 0.0191747258 428.7273068083 0.0221091752 0.0112228746
-0.7273002801 -0.0197902825 0.0000000000 0.4456543367 -0.0175117423 428.4445914436 0.0220590387 0.0112034485
-0.7254261961 -0.0507531589 0.0000000000 0.4487866992 -0.0540006699 425.5891963210 0.0220121736 0.0111813505
-0.7222714715 -0.0816127640 0.0000000000 0.4545459802 -0.0900719175 420.1904215502 0.0219689632 0.0111567097
-0.7178411819 -0.1123162904 0.0000000000 0.4628807707 -0.1255090535 412.2977246361 0.0219297956 0.0111296526
-0.7121425688 -0.1428112030 0.0000000000 0.4737202772 -0.1601011575 401.9803169318 0.0218950652 0.0111003039
-0.7051850225 -0.1730453254 0.0000000000 0.4869751051 -0.1936446284 389.3265810237 0.0218651769 0.0110687903
-0.6969800566 -0.2029669239 0.0000000000 0.5025381108 -0.2259449637 374.4433018442 0.0218405551 0.0110352446