 TITLE = "Tecplot data"
 VARIABLES = "X", "Y", "Z" "U", "V", "p", "dispX", "dispY"
 ZONE SOLUTIONTIME=43.900000, NODES=26114 , ELEMENTS=25916, DATAPACKING=POINT, ZONETYPE=FEQUADRILATERAL
0.4523214346 0.0138422231 0.0000000000 0.0000000000 0.0000000000 -208.1735879267 0.0987680440 -0.3397111676
0.4523214349 -0.6932645579 0.0000000000 0.0000000000 0.0000000000 -1191.5439578270 0.0987680440 -0.3397111676
-0.2547853467 0.0138422229 0.0000000000 0.0000000000 0.0000000000 179.9561373487 0.0987680440 -0.3397111676
-0.2547853464 -0.6932645583 0.0000000000 0.0000000000 0.0000000000 -705.0792199682 0.0987680440 -0.3397111676
0.6271586300 0.1913372726 0.0000000000 0.2216593892 -0.2868326395 -192.3679568607 0.0968285442 -0.3389928134
0.6291137853 -0.8809436985 0.0000000000 1.2443087221 0.7089347217 -708.7809118567 0.0987836991 -0.3506136130
-0.4339777721 0.1821559096 0.0000000000 0.5867589529 0.3487282293 233.5925869011 0.0963523139 -0.3481741761
-0.4286304499 -0.8756330420 0.0000000000 1.1226769731 -0.6337394167 -288.8737168200 0.1016996357 -0.3453029558
1.1537855456 0.7167737692 0.0000000000 0.3367508531 0.3016542102 -62.9876085581 0.0931253739 -0.3438864027
1.1629202641 -1.4083699658 0.0000000000 0.9840854096 0.2569381930 -213.4098508599 0.1022600916 -0.3477097948
-0.9710172639 0.6912920465 0.0000000000 0.8367070518 0.1433562635 176.4765276674 0.0896429082 -0.3693681250
-0.9536492011 -1.4238920883 0.0000000000 1.0442255364 -0.1923224950 -58.4834956800 0.1070109701 -0.3632319160
4.2601984028 2.9988362280 0.0000000000 0.9911867590 -0.0515775125 44.5857186295 0.0601984028 -0.3011637720
4.3230213959 -3.6001258283 0.0000000000 1.0947198886 -0.0181629851 -7.1910853113 0.1230213959 -0.3001258283
20.0000000000 4.7000000000 0.0000000000 1.0700541093 -0.0898759848 -0.6838477070 0.0000000000 0.0000000000
20.0000000000 -4.7000000000 0.0000000000 1.0677580354 -0.0322631567 0.7720246252 0.0000000000 0.0000000000
-10.0000000000 15.0000000000 0.0000000000 1.0000000000 0.0000000000 56.7911820115 0.0000000000 0.0000000000
20.0000000000 15.0000000000 0.0000000000 1.0243209025 0.0000000000 -0.0510014174 0.0000000000 0.0000000000
20.0000000000 -15.0000000000 0.0000000000 1.0213720069 0.0000000000 -0.0334443303 0.0000000000 0.0000000000
-10.0000000000 -15.0000000000 0.0000000000 1.0000000000 0.0000000000 1.4893061736 0.0000000000 0.0000000000
0.4652939802 -0.6797975362 0.0000000000 0.0000000000 0.0000000000 -1154.0238706902 0.0987680440 -0.3397111676
0.4777539058 -0.6658548729 0.0000000000 0.0000000000 0.0000000000 -1087.5304558333 0.0987680440 -0.3397111676
0.4896837855 -0.6514560682 0.0000000000 0.0000000000 0.0000000000 -1037.1603970591 0.0987680440 -0.3397111676
0.5010669341 -0.6366212601 0.0000000000 0.0000000000 0.0000000000 -980.0235130395 0.0987680440 -0.3397111676
0.5118874314 -0.6213711963 0.0000000000 0.0000000000 0.0000000000 -927.7590341225 0.0987680440 -0.3397111676
0.5221301438 -0.6057272056 0.0000000000 0.0000000000 0.0000000000 -875.0031424842 0.0987680440 -0.3397111676
0.5317807461 -0.5897111673 0.0000000000 0.0000000000 0.0000000000 -824.7658313013 0.0987680440 -0.3397111676
0.5408257409 -0.5733454814 0.0000000000 0.0000000000 0.0000000000 -775.9027337495 0.0987680440 -0.3397111676
0.5492524781 -0.5566530369 0.0000000000 0.0000000000 0.0000000000 -729.2774810650 0.0987680440 -0.3397111676
0.5570491721 -0.5396571795 0.0000000000 0.0000000000 0.0000000000 -684.7290637496 0.0987680440 -0.3397111676
0.5642049185 -0.5223816795 0.0000000000 0.0000000000 0.0000000000 -642.5315894298 0.0987680440 -0.3397111676
0.5707097093 -0.5048506983 0.0000000000 0.0000000000 0.0000000000 -602.7855173274 0.0987680440 -0.3397111676
0.5765544470 -0.4870887545 0.0000000000 0.0000000000 0.0000000000 -565.3504828627 0.0987680440 -0.3397111676
0.5817309572 -0.4691206899 0.0000000000 0.0000000000 0.0000000000 -531.0628828398 0.0987680440 -0.3397111676
0.5862320002 -0.4509716343 0.0000000000 0.0000000000 0.0000000000 -498.0949881256 0.0987680440 -0.3397111676
0.5900512807 -0.4326669709 0.0000000000 0.0000000000 0.0000000000 -470.0478813929 0.0987680440 -0.3397111676
0.5931834572 -0.4142323004 0.0000000000 0.0000000000 0.0000000000 -439.2166347790 0.0987680440 -0.3397111676
0.5956241490 -0.3956934054 0.0000000000 0.0000000000 0.0000000000 -415.3899703021 0.0987680440 -0.3397111676
0.5973699426 -0.3770762141 0.0000000000 0.0000000000 0.0000000000 -392.1690266378 0.0987680440 -0.3397111676
0.5984183964 -0.3584067645 0.0000000000 0.0000000000 0.0000000000 -371.4160406800 0.0987680440 -0.3397111676
0.5987680440 -0.3397111674 0.0000000000 0.0000000000 0.0000000000 -352.5015558311 0.0987680440 -0.3397111676
0.5984183964 -0.3210155702 0.0000000000 0.0000000000 0.0000000000 -335.5331817978 0.0987680440 -0.3397111676
0.5973699426 -0.3023461206 0.0000000000 0.0000000000 0.0000000000 -320.3931341583 0.0987680440 -0.3397111676
0.5956241490 -0.2837289293 0.0000000000 0.0000000000 0.0000000000 -307.0320232957 0.0987680440 -0.3397111676
0.5931834571 -0.2651900343 0.0000000000 0.0000000000 0.0000000000 -295.3767985351 0.0987680440 -0.3397111676
0.5900512806 -0.2467553638 0.0000000000 0.0000000000 0.0000000000 -285.2964868650 0.0987680440 -0.3397111676
0.5862320001 -0.2284507004 0.0000000000 0.0000000000 0.0000000000 -276.6647639450 0.0987680440 -0.3397111676
0.5817309571 -0.2103016449 0.0000000000 0.0000000000 0.0000000000 -269.2193862105 0.0987680440 -0.3397111676
0.5765544469 -0.1923335802 0.0000000000 0.0000000000 0.0000000000 -262.8503113340 0.0987680440 -0.3397111676
0.5707097091 -0.1745716365 0.0000000000 0.0000000000 0.0000000000 -257.1535153910 0.0987680440 -0.3397111676
0.5642049183 -0.1570406553 0.0000000000 0.0000000000 0.0000000000 -252.5305713066 0.0987680440 -0.3397111676
0.5570491719 -0.1397651553 0.0000000000 0.0000000000 0.0000000000 -247.0811667187 0.0987680440 -0.3397111676
0.5492524779 -0.1227692979 0.0000000000 0.0000000000 0.0000000000 -243.2065897318 0.0987680440 -0.3397111676
0.5408257407 -0.1060768533 0.0000000000 0.0000000000 0.0000000000 -238.3965199107 0.0987680440 -0.3397111676
0.5317807459 -0.0897111675 0.0000000000 0.0000000000 0.0000000000 -234.8181424244 0.0987680440 -0.3397111676
0.5221301436 -0.0736951292 0.0000000000 0.0000000000 0.0000000000 -230.7451055012 0.0987680440 -0.3397111676
0.5118874311 -0.0580511385 0.0000000000 0.0000000000 0.0000000000 -226.9984257908 0.0987680440 -0.3397111676
0.5010669339 -0.0428010747 0.0000000000 0.0000000000 0.0000000000 -223.0501443587 0.0987680440 -0.3397111676
0.4896837852 -0.0279662666 0.0000000000 0.0000000000 0.0000000000 -219.5134301367 0.0987680440 -0.3397111676
0.4777539056 -0.0135674619 0.0000000000 0.0000000000 0.0000000000 -215.4892067775 0.0987680440 -0.3397111676
0.4652939799 0.0003752014 0.0000000000 0.0000000000 0.0000000000 -212.4041850595 0.0987680440 -0.3397111676
0.4374088298 0.0281507878 0.0000000000 0.0000000000 0.0000000000 -205.0682723535 0.0987680440 -0.3397111676
0.4219176629 0.0418308666 0.0000000000 0.0000000000 0.0000000000 -201.0933829871 0.0987680440 -0.3397111676
0.4058744003 0.0548590872 0.0000000000 0.0000000000 0.0000000000 -197.8706643895 0.0987680440 -0.3397111676
0.3893064517 0.0672131911 0.0000000000 0.0000000000 0.0000000000 -194.4505472424 0.0987680440 -0.3397111676
0.3722421230 0.0788720716 0.0000000000 0.0000000000 0.0000000000 -191.3524264079 0.0987680440 -0.3397111676
0.3547105685 0.0898158096 0.0000000000 0.0000000000 0.0000000000 -188.2196335575 0.0987680440 -0.3397111676
0.3367417405 0.1000257081 0.0000000000 0.0000000000 0.0000000000 -185.1844288372 0.0987680440 -0.3397111676
0.3183663384 0.1094843234 0.0000000000 0.0000000000 0.0000000000 -182.0767300739 0.0987680440 -0.3397111676
0.2996157563 0.1181754958 0.0000000000 0.0000000000 0.0000000000 -178.8951129657 0.0987680440 -0.3397111676
0.2805220292 0.1260843765 0.0000000000 0.0000000000 0.0000000000 -175.5389902915 0.0987680440 -0.3397111676
0.2611177786 0.1331974533 0.0000000000 0.0000000000 0.0000000000 -171.9728194254 0.0987680440 -0.3397111676
0.2414361561 0.1395025737 0.0000000000 0.0000000000 0.0000000000 -168.1344740391 0.0987680440 -0.3397111676
0.2215107875 0.1449889654 0.0000000000 0.0000000000 0.0000000000 -163.9906149090 0.0987680440 -0.3397111676
0.2013757150 0.1496472551 0.0000000000 0.0000000000 0.0000000000 -159.5031317887 0.0987680440 -0.3397111676
0.1810653391 0.1534694841 0.0000000000 0.0000000000 0.0000000000 -154.6455359707 0.0987680440 -0.3397111676
0.1606143596 0.1564491223 0.0000000000 0.0000000000 0.0000000000 -149.3890449633 0.0987680440 -0.3397111676
0.1400577167 0.1585810789 0.0000000000 0.0000000000 0.0000000000 -143.7060800939 0.0987680440 -0.3397111676
0.1194305311 0.1598617116 0.0000000000 0.0000000000 0.0000000000 -137.5640786995 0.0987680440 -0.3397111676
0.0987680439 0.1602888324 0.0000000000 0.0000000000 0.0000000000 -130.9256881077 0.0987680440 -0.3397111676
0.0781055568 0.1598617116 0.0000000000 0.0000000000 0.0000000000 -123.7461526361 0.0987680440 -0.3397111676
0.0574783712 0.1585810789 0.0000000000 0.0000000000 0.0000000000 -115.9730739928 0.0987680440 -0.3397111676
0.0369217283 0.1564491223 0.0000000000 0.0000000000 0.0000000000 -107.5454371491 0.0987680440 -0.3397111676
0.0164707488 0.1534694841 0.0000000000 0.0000000000 0.0000000000 -98.3935650148 0.0987680440 -0.3397111676
-0.0038396272 0.1496472551 0.0000000000 0.0000000000 0.0000000000 -88.4390825279 0.0987680440 -0.3397111676
-0.0239746996 0.1449889654 0.0000000000 0.0000000000 0.0000000000 -77.5955414072 0.0987680440 -0.3397111676
-0.0439000682 0.1395025736 0.0000000000 0.0000000000 0.0000000000 -65.7695753923 0.0987680440 -0.3397111676
-0.0635816907 0.1331974532 0.0000000000 0.0000000000 0.0000000000 -52.8629294763 0.0987680440 -0.3397111676
-0.0829859414 0.1260843764 0.0000000000 0.0000000000 0.0000000000 -38.7754372225 0.0987680440 -0.3397111676
-0.1020796684 0.1181754957 0.0000000000 0.0000000000 0.0000000000 -23.4090921800 0.0987680440 -0.3397111676
-0.1208302505 0.1094843233 0.0000000000 0.0000000000 0.0000000000 -6.6731838802 0.0987680440 -0.3397111676
-0.1392056526 0.1000257080 0.0000000000 0.0000000000 0.0000000000 11.5096301820 0.0987680440 -0.3397111676
-0.1571744806 0.0898158095 0.0000000000 0.0000000000 0.0000000000 31.1966117483 0.0987680440 -0.3397111676
-0.1747060351 0.0788720715 0.0000000000 0.0000000000 0.0000000000 52.4180044941 0.0987680440 -0.3397111676
-0.1917703638 0.0672131910 0.0000000000 0.0000000000 0.0000000000 75.1703821493 0.0987680440 -0.3397111676
-0.2083383124 0.0548590870 0.0000000000 0.0000000000 0.0000000000 99.4108176880 0.0987680440 -0.3397111676
-0.2243815750 0.0418308664 0.0000000000 0.0000000000 0.0000000000 125.0523728429 0.0987680440 -0.3397111676
-0.2398727419 0.0281507877 0.0000000000 0.0000000000 0.0000000000 151.9612981271 0.0987680440 -0.3397111676
-0.2690939114 -0.0010703819 0.0000000000 0.0000000000 0.0000000000 208.8085618009 0.0987680440 -0.3397111676
-0.2827739902 -0.0165615488 0.0000000000 0.0000000000 0.0000000000 238.2452983694 0.0987680440 -0.3397111676
-0.2958022108 -0.0326048114 0.0000000000 0.0000000000 0.0000000000 267.9495551441 0.0987680440 -0.3397111676
-0.3081563147 -0.0491727600 0.0000000000 0.0000000000 0.0000000000 297.5602361114 0.0987680440 -0.3397111676
-0.3198151952 -0.0662370886 0.0000000000 0.0000000000 0.0000000000 326.6705333809 0.0987680440 -0.3397111676
-0.3307589332 -0.0837686432 0.0000000000 0.0000000000 0.0000000000 354.8376803327 0.0987680440 -0.3397111676
-0.3409688316 -0.1017374712 0.0000000000 0.0000000000 0.0000000000 381.6141066356 0.0987680440 -0.3397111676
-0.3504274470 -0.1201128733 0.0000000000 0.0000000000 0.0000000000 406.5767748518 0.0987680440 -0.3397111676
-0.3591186194 -0.1388634554 0.0000000000 0.0000000000 0.0000000000 429.3259544268 0.0987680440 -0.3397111676
-0.3670275001 -0.1579571825 0.0000000000 0.0000000000 0.0000000000 449.4699771004 0.0987680440 -0.3397111676
-0.3741405769 -0.1773614331 0.0000000000 0.0000000000 0.0000000000 466.6206609460 0.0987680440 -0.3397111676
-0.3804456972 -0.1970430556 0.0000000000 0.0000000000 0.0000000000 480.4002566534 0.0987680440 -0.3397111676
-0.3859320890 -0.2169684242 0.0000000000 0.0000000000 0.0000000000 490.4503306347 0.0987680440 -0.3397111676
-0.3905903787 -0.2371034967 0.0000000000 0.0000000000 0.0000000000 496.4399136713 0.0987680440 -0.3397111676
-0.3944126077 -0.2574138726 0.0000000000 0.0000000000 0.0000000000 498.0697100672 0.0987680440 -0.3397111676
-0.3973922459 -0.2778648521 0.0000000000 0.0000000000 0.0000000000 495.0784323925 0.0987680440 -0.3397111676
-0.3995242025 -0.2984214950 0.0000000000 0.0000000000 0.0000000000 487.2412911970 0.0987680440 -0.3397111676
-0.4008048352 -0.3190486806 0.0000000000 0.0000000000 0.0000000000 474.3805978335 0.0987680440 -0.3397111676
-0.4012319560 -0.3397111678 0.0000000000 0.0000000000 0.0000000000 456.3518160721 0.0987680440 -0.3397111676
-0.4008048351 -0.3603736549 0.0000000000 0.0000000000 0.0000000000 433.0736043294 0.0987680440 -0.3397111676
-0.3995242025 -0.3810008405 0.0000000000 0.0000000000 0.0000000000 404.4752558444 0.0987680440 -0.3397111676
-0.3973922458 -0.4015574834 0.0000000000 0.0000000000 0.0000000000 370.5949934006 0.0987680440 -0.3397111676
-0.3944126076 -0.4220084629 0.0000000000 0.0000000000 0.0000000000 331.4002239084 0.0987680440 -0.3397111676
-0.3905903786 -0.4423188389 0.0000000000 0.0000000000 0.0000000000 287.1167069004 0.0987680440 -0.3397111676
-0.3859320889 -0.4624539114 0.0000000000 0.0000000000 0.0000000000 237.6237962082 0.0987680440 -0.3397111676
-0.3804456971 -0.4823792799 0.0000000000 0.0000000000 0.0000000000 183.5642876831 0.0987680440 -0.3397111676
-0.3741405767 -0.5020609024 0.0000000000 0.0000000000 0.0000000000 124.2935628395 0.0987680440 -0.3397111676
-0.3670274999 -0.5214651531 0.0000000000 0.0000000000 0.0000000000 61.6959283811 0.0987680440 -0.3397111676
-0.3591186192 -0.5405588801 0.0000000000 0.0000000000 0.0000000000 -7.0156269412 0.0987680440 -0.3397111676
-0.3504274468 -0.5593094622 0.0000000000 0.0000000000 0.0000000000 -75.4048410405 0.0987680440 -0.3397111676
-0.3409688315 -0.5776848643 0.0000000000 0.0000000000 0.0000000000 -155.4546349146 0.0987680440 -0.3397111676
-0.3307589330 -0.5956536923 0.0000000000 0.0000000000 0.0000000000 -220.0616419540 0.0987680440 -0.3397111676
-0.3198151950 -0.6131852468 0.0000000000 0.0000000000 0.0000000000 -326.4125643821 0.0987680440 -0.3397111676
-0.3081563145 -0.6302495755 0.0000000000 0.0000000000 0.0000000000 -351.5557636511 0.0987680440 -0.3397111676
-0.2958022105 -0.6468175241 0.0000000000 0.0000000000 0.0000000000 -661.0052521910 0.0987680440 -0.3397111676
-0.2827739899 -0.6628607867 0.0000000000 0.0000000000 0.0000000000 -399.2560245629 0.0987680440 -0.3397111676
-0.2690939111 -0.6783519536 0.0000000000 0.0000000000 0.0000000000 -841.0770923787 0.0987680440 -0.3397111676
-0.2398727416 -0.7075731231 0.0000000000 0.0000000000 0.0000000000 -603.4131523861 0.0987680440 -0.3397111676
-0.2243815747 -0.7212532018 0.0000000000 0.0000000000 0.0000000000 -1186.9519423277 0.0987680440 -0.3397111676
-0.2083383121 -0.7342814224 0.0000000000 0.0000000000 0.0000000000 -896.1176229958 0.0987680440 -0.3397111676
-0.1917703634 -0.7466355264 0.0000000000 0.0000000000 0.0000000000 -1154.1309531313 0.0987680440 -0.3397111676
-0.1747060348 -0.7582944068 0.0000000000 0.0000000000 0.0000000000 -1125.0532263175 0.0987680440 -0.3397111676
-0.1571744803 -0.7692381449 0.0000000000 0.0000000000 0.0000000000 -1265.5957626875 0.0987680440 -0.3397111676
-0.1392056522 -0.7794480433 0.0000000000 0.0000000000 0.0000000000 -1302.6012845320 0.0987680440 -0.3397111676
-0.1208302501 -0.7889066586 0.0000000000 0.0000000000 0.0000000000 -1398.6115704271 0.0987680440 -0.3397111676
-0.1020796680 -0.7975978310 0.0000000000 0.0000000000 0.0000000000 -1452.3045824818 0.0987680440 -0.3397111676
-0.0829859410 -0.8055067117 0.0000000000 0.0000000000 0.0000000000 -1526.2346116552 0.0987680440 -0.3397111676
-0.0635816903 -0.8126197885 0.0000000000 0.0000000000 0.0000000000 -1580.2456192230 0.0987680440 -0.3397111676
-0.0439000678 -0.8189249089 0.0000000000 0.0000000000 0.0000000000 -1639.1583654323 0.0987680440 -0.3397111676
-0.0239746993 -0.8244113006 0.0000000000 0.0000000000 0.0000000000 -1686.7005722029 0.0987680440 -0.3397111676
-0.0038396268 -0.8290695903 0.0000000000 0.0000000000 0.0000000000 -1732.7385064933 0.0987680440 -0.3397111676
0.0164707492 -0.8328918193 0.0000000000 0.0000000000 0.0000000000 -1770.6332982949 0.0987680440 -0.3397111676
0.0369217287 -0.8358714575 0.0000000000 0.0000000000 0.0000000000 -1804.2663405222 0.0987680440 -0.3397111676
0.0574783716 -0.8380034141 0.0000000000 0.0000000000 0.0000000000 -1830.9407373537 0.0987680440 -0.3397111676
0.0781055572 -0.8392840468 0.0000000000 0.0000000000 0.0000000000 -1852.1717431914 0.0987680440 -0.3397111676
0.0987680443 -0.8397111676 0.0000000000 0.0000000000 0.0000000000 -1866.9006395392 0.0987680440 -0.3397111676
0.1194305315 -0.8392840468 0.0000000000 0.0000000000 0.0000000000 -1875.7449549509 0.0987680440 -0.3397111676
0.1400577171 -0.8380034140 0.0000000000 0.0000000000 0.0000000000 -1878.3495067071 0.0987680440 -0.3397111676
0.1606143600 -0.8358714574 0.0000000000 0.0000000000 0.0000000000 -1875.0270077962 0.0987680440 -0.3397111676
0.1810653395 -0.8328918192 0.0000000000 0.0000000000 0.0000000000 -1865.7472574348 0.0987680440 -0.3397111676
0.2013757154 -0.8290695902 0.0000000000 0.0000000000 0.0000000000 -1850.7530390249 0.0987680440 -0.3397111676
0.2215107879 -0.8244113005 0.0000000000 0.0000000000 0.0000000000 -1830.1853565003 0.0987680440 -0.3397111676
0.2414361565 -0.8189249087 0.0000000000 0.0000000000 0.0000000000 -1804.3052007653 0.0987680440 -0.3397111676
0.2611177789 -0.8126197883 0.0000000000 0.0000000000 0.0000000000 -1773.3610600831 0.0987680440 -0.3397111676
0.2805220296 -0.8055067115 0.0000000000 0.0000000000 0.0000000000 -1737.6581279280 0.0987680440 -0.3397111676
0.2996157567 -0.7975978308 0.0000000000 0.0000000000 0.0000000000 -1697.5285742401 0.0987680440 -0.3397111676
0.3183663388 -0.7889066584 0.0000000000 0.0000000000 0.0000000000 -1653.3078662793 0.0987680440 -0.3397111676
0.3367417409 -0.7794480430 0.0000000000 0.0000000000 0.0000000000 -1605.4400401159 0.0987680440 -0.3397111676
0.3547105689 -0.7692381446 0.0000000000 0.0000000000 0.0000000000 -1554.1628851281 0.0987680440 -0.3397111676
0.3722421234 -0.7582944065 0.0000000000 0.0000000000 0.0000000000 -1500.3328891566 0.0987680440 -0.3397111676
0.3893064520 -0.7466355260 0.0000000000 0.0000000000 0.0000000000 -1443.2660742910 0.0987680440 -0.3397111676
0.4058744007 -0.7342814221 0.0000000000 0.0000000000 0.0000000000 -1386.2896662929 0.0987680440 -0.3397111676
0.4219176632 -0.7212532014 0.0000000000 0.0000000000 0.0000000000 -1322.8443267842 0.0987680440 -0.3397111676
0.4374088301 -0.7075731227 0.0000000000 0.0000000000 0.0000000000 -1270.6921979250 0.0987680440 -0.3397111676
0.6482603174 -0.8605007687 0.0000000000 1.2083880218 0.7272384791 -687.0909520585 0.0984714132 -0.3503712157
0.6668596137 -0.8397429165 0.0000000000 1.1719393061 0.7429544450 -664.5671935113 0.0983808210 -0.3505273585
0.6846958963 -0.8183943506 0.0000000000 1.1351873626 0.7565692509 -641.9002469333 0.0983222842 -0.3507769996
0.7017168960 -0.7964124491 0.0000000000 1.0982435850 0.7681694005 -619.2675726980 0.0982685609 -0.3510473103
0.7178889533 -0.7738005636 0.0000000000 1.0612003139 0.7777750139 -596.7963166872 0.0982098723 -0.3513105204
0.7331840582 -0.7505784116 0.0000000000 1.0241347507 0.7853724186 -574.5832314980 0.0981409085 -0.3515543546
0.7475778789 -0.7267731671 0.0000000000 0.9871078158 0.7909219750 -552.7096551802 0.0980588258 -0.3517731675
0.7610492187 -0.7024159389 0.0000000000 0.9501614100 0.7943555783 -531.2432060508 0.0979626734 -0.3519644681
0.7735795977 -0.6775401002 0.0000000000 0.9133160891 0.7955711456 -510.2394341419 0.0978529465 -0.3521272962
0.7851528475 -0.6521804095 0.0000000000 0.8765686865 0.7944251198 -489.7425779214 0.0977311554 -0.3522613916
0.7957547704 -0.6263725225 0.0000000000 0.8398898469 0.7907238468 -469.7861270042 0.0975994588 -0.3523667546
0.8053728896 -0.6001527051 0.0000000000 0.8032215897 0.7842146704 -450.3933940093 0.0974603918 -0.3524434090
0.8139962829 -0.5735576499 0.0000000000 0.7664752779 0.7745780527 -431.5784408893 0.0973166785 -0.3524912695
0.8216154726 -0.5466243474 0.0000000000 0.7295308204 0.7614225630 -413.3476751685 0.0971711027 -0.3525100639
0.8282223464 -0.5193899868 0.0000000000 0.6922388193 0.7442852105 -395.7023316697 0.0970264121 -0.3524992867
0.8338100949 -0.4918918794 0.0000000000 0.6544287554 0.7226403041 -378.6418712509 0.0968852399 -0.3524581743
0.8383731566 -0.4641674001 0.0000000000 0.6159277107 0.6959207613 -362.1681523283 0.0967500369 -0.3523857008
0.8419071703 -0.4362539480 0.0000000000 0.5765941448 0.6635562033 -346.2902584369 0.0966230129 -0.3522805913
0.8444089353 -0.4081889255 0.0000000000 0.5363675733 0.6250313472 -331.0302693012 0.0965060874 -0.3521413556
0.8458763809 -0.3800097365 0.0000000000 0.4953263531 0.5799649445 -316.4308040788 0.0964008523 -0.3519663411
0.8463085465 -0.3517538032 0.0000000000 0.4537359820 0.5282040762 -302.5647683150 0.0963085465 -0.3517538035
0.8457055717 -0.3234585993 0.0000000000 0.4120710267 0.4699250270 -289.5449751824 0.0962300431 -0.3515019953
0.8440686953 -0.2951616966 0.0000000000 0.3710153870 0.4057354137 -277.5265723215 0.0961658475 -0.3512092671
0.8414002630 -0.2669008217 0.0000000000 0.3314725220 0.3367765377 -266.6928315321 0.0961161056 -0.3508741790
0.8377037422 -0.2387139150 0.0000000000 0.2945982516 0.2648039171 -257.2205802000 0.0960806226 -0.3504956148
0.8329837446 -0.2106391885 0.0000000000 0.2617778730 0.1921636779 -249.2341763177 0.0960588897 -0.3500728941
0.8272460577 -0.1827151726 0.0000000000 0.2344046679 0.1215450587 -242.7649943846 0.0960501236 -0.3496058733
0.8204976875 -0.1549807459 0.0000000000 0.2134414597 0.0554875161 -237.7282551669 0.0960533178 -0.3490950300
0.8127469146 -0.1274751411 0.0000000000 0.1990124407 -0.0041619786 -233.9198512426 0.0960673103 -0.3485415221
0.8040033658 -0.1002379180 0.0000000000 0.1903513703 -0.0565380650 -231.0359000083 0.0960908682 -0.3479472147
0.7942781024 -0.0733089002 0.0000000000 0.1861585184 -0.1016578618 -228.7183955050 0.0961227910 -0.3473146687
0.7835837214 -0.0467280645 0.0000000000 0.1850927492 -0.1400779834 -226.6172940155 0.0961620296 -0.3466470829
0.7719344612 -0.0205353794 0.0000000000 0.1860983887 -0.1725535775 -224.4457671462 0.0962078104 -0.3459481839
0.7593462900 0.0052294119 0.0000000000 0.1884815939 -0.1998322340 -222.0102097416 0.0962597449 -0.3452220594
0.7458369333 0.0305270623 0.0000000000 0.1918288900 -0.2225708515 -219.2128912128 0.0963178806 -0.3444729379
0.7314257777 0.0553191158 0.0000000000 0.1958848334 -0.2413124932 -216.0360450819 0.0963826284 -0.3437049417
0.7161335779 0.0795681581 0.0000000000 0.2004496178 -0.2564827979 -212.5177622001 0.0964544973 -0.3429218855
0.6999819408 0.1032378789 0.0000000000 0.2053092559 -0.2683968802 -208.7273388165 0.0965336061 -0.3421272603
0.6829926316 0.1262926927 0.0000000000 0.2101959372 -0.2772768254 -204.7447226812 0.0966190198 -0.3413246588
0.6651866078 0.1486962619 0.0000000000 0.2147804609 -0.2832716744 -200.6467543549 0.0967078155 -0.3405192966
0.6465824715 0.1704073239 0.0000000000 0.2187092444 -0.2864592731 -196.5010593743 0.0967935676 -0.3397222295
0.6047617434 0.2136749369 0.0000000000 0.2236601307 -0.2838194144 -187.9013936671 0.0968005648 -0.3381179962
0.5814698309 0.2349106371 0.0000000000 0.2245156994 -0.2768248151 -183.6257669530 0.0967454026 -0.3374024142
0.5573638881 0.2550931983 0.0000000000 0.2248661729 -0.2655085189 -179.6611191946 0.0967043536 -0.3367621838
0.5324847712 0.2742031524 0.0000000000 0.2257160053 -0.2496438964 -176.1107959381 0.0966771597 -0.3361833856
0.5068728683 0.2922150593 0.0000000000 0.2282026205 -0.2293597846 -173.0264529412 0.0966617498 -0.3356597994
0.4805684329 0.3091013246 0.0000000000 0.2333581690 -0.2052250381 -170.3720759254 0.0966546462 -0.3351891412
0.4536125632 0.3248335473 0.0000000000 0.2419410230 -0.1781623573 -168.0179912519 0.0966520185 -0.3347717661
0.4260477250 0.3393832909 0.0000000000 0.2543981997 -0.1492190081 -165.7698036147 0.0966502835 -0.3344099456
0.3979179891 0.3527228976 0.0000000000 0.2709427334 -0.1192984481 -163.4138330034 0.0966464208 -0.3341070974
0.3692690333 0.3648262168 0.0000000000 0.2916815343 -0.0889533366 -160.7555084374 0.0966380555 -0.3338670993
0.3401480197 0.3756691516 0.0000000000 0.3167209858 -0.0582935472 -157.6383128615 0.0966234179 -0.3336937797
0.3106034425 0.3852300380 0.0000000000 0.3461997651 -0.0270158782 -153.9439785892 0.0966012745 -0.3335905739
0.2806849950 0.3934899126 0.0000000000 0.3802315635 0.0054652733 -149.5815956508 0.0965708797 -0.3335602868
0.2504434685 0.4004327086 0.0000000000 0.4187729678 0.0398203801 -144.4743187764 0.0965319620 -0.3336049254
0.2199306756 0.4060453892 0.0000000000 0.4614582927 0.0765819291 -138.5500614180 0.0964847331 -0.3337255884
0.1891993779 0.4103180164 0.0000000000 0.5074590411 0.1159415959 -131.7388195563 0.0964299046 -0.3339224185
0.1583032010 0.4132437519 0.0000000000 0.5554256066 0.1576114689 -123.9755256583 0.0963686920 -0.3341946179
0.1272965206 0.4148188032 0.0000000000 0.6035494831 0.2007840945 -115.2050267282 0.0963027901 -0.3345405156
0.0962343143 0.4150423351 0.0000000000 0.6497482461 0.2442064346 -105.3859608586 0.0962343144 -0.3349576649
0.0651719776 0.4139163767 0.0000000000 0.6919342368 0.2863540732 -94.4926081607 0.0961657085 -0.3354429420
0.0341651150 0.4114457440 0.0000000000 0.7282984405 0.3256630317 -82.5159939910 0.0960996243 -0.3359926258
0.0032693151 0.4076379920 0.0000000000 0.7575371417 0.3607604230 -69.4654781368 0.0960387887 -0.3366024428
-0.0274600765 0.4025033957 0.0000000000 0.7789714057 0.3906397218 -55.3702528594 0.0959858664 -0.3372675818
-0.0579681788 0.3960549489 0.0000000000 0.7925460917 0.4147483896 -40.2789832338 0.0959433281 -0.3379826850
-0.0882007849 0.3883083689 0.0000000000 0.7987293695 0.4329838722 -24.2565166913 0.0959133306 -0.3387418305
-0.1181045588 0.3792820953 0.0000000000 0.7983539419 0.4456173228 -7.3782485402 0.0958976095 -0.3395385165
-0.1476272170 0.3689972780 0.0000000000 0.7924445149 0.4531765694 10.2761394197 0.0958973850 -0.3403656532
-0.1767176974 0.3574777536 0.0000000000 0.7820666319 0.4563204306 28.6278088389 0.0959132807 -0.3412155623
-0.2053263132 0.3447500191 0.0000000000 0.7682167279 0.4557289655 47.6016790183 0.0959452555 -0.3420799758
-0.2334048917 0.3308432145 0.0000000000 0.7517583967 0.4520233348 67.1268463550 0.0959925501 -0.3429500219
-0.2609068986 0.3157891433 0.0000000000 0.7333991578 0.4457186625 87.1348265791 0.0960536463 -0.3438161700
-0.2877875520 0.2996223836 0.0000000000 0.7136966045 0.4372059843 107.5562418627 0.0961262350 -0.3446680821
-0.3140039455 0.2823806192 0.0000000000 0.6930819301 0.4267556505 128.3166699631 0.0962071732 -0.3454942394
-0.3395152287 0.2641055202 0.0000000000 0.6718909595 0.4145338834 149.3321139693 0.0962923831 -0.3462810176
-0.3642830084 0.2448451323 0.0000000000 0.6503962570 0.4006251331 170.5049305276 0.0963765263 -0.3470102496
-0.3882728269 0.2246611658 0.0000000000 0.6288402320 0.3850554698 191.7160533961 0.0964516017 -0.3476518852
-0.4114616132 0.2036548450 0.0000000000 0.6074750308 0.3678028807 212.8302751810 0.0964995657 -0.3481380879
-0.4551255898 0.1584334305 0.0000000000 0.5652372977 0.3283945930 254.3953303565 0.0966673434 -0.3495277480
-0.4755364865 0.1342430405 0.0000000000 0.5446759448 0.3060828371 274.6477642088 0.0967765648 -0.3504813877
-0.4950092256 0.1093660573 0.0000000000 0.5250127433 0.2819538551 294.1803784361 0.0968461566 -0.3512934771
-0.5134946261 0.0837942284 0.0000000000 0.5064136935 0.2560381821 312.8154927676 0.0968919120 -0.3520133829
-0.5309565941 0.0575518243 0.0000000000 0.4890646596 0.2283790204 330.3597785475 0.0969182647 -0.3526592941
-0.5473628197 0.0306739718 0.0000000000 0.4731580869 0.1990405292 346.6176314193 0.0969276462 -0.3532398148
-0.5626830582 0.0032005656 0.0000000000 0.4588831100 0.1681107702 361.3960735868 0.0969222553 -0.3537599789
-0.5768887742 -0.0248257634 0.0000000000 0.4464206379 0.1357012535 374.5088425770 0.0969044623 -0.3542232048
-0.5899530768 -0.0533604343 0.0000000000 0.4359394535 0.1019455035 385.7798397621 0.0968769183 -0.3546320025
-0.6018507556 -0.0823572548 0.0000000000 0.4275931574 0.0669968770 395.0460666960 0.0968425605 -0.3549882325
-0.6125583620 -0.1117685908 0.0000000000 0.4215177511 0.0310259353 402.1600553493 0.0968045694 -0.3552931925
-0.6220543128 -0.1415454760 0.0000000000 0.4178298374 -0.0057824561 406.9917808684 0.0967662991 -0.3555476439
-0.6303190075 -0.1716377101 0.0000000000 0.4166254097 -0.0432321615 409.4300543004 0.0967311920 -0.3557518251
-0.6373349524 -0.2019939680 0.0000000000 0.4179792086 -0.0811188267 409.3834050130 0.0967026817 -0.3559054743
-0.6430868866 -0.2325619291 0.0000000000 0.4219446038 -0.1192328509 406.7804756448 0.0966840910 -0.3560078715
-0.6475619072 -0.2632884319 0.0000000000 0.4285539496 -0.1573621952 401.5699646964 0.0966785277 -0.3560579051
-0.6507495857 -0.2941196538 0.0000000000 0.4378193429 -0.1952949528 393.7201629551 0.0966887840 -0.3560541626
-0.6526420715 -0.3250013155 0.0000000000 0.4497337093 -0.2328216158 383.2181417782 0.0967172473 -0.3559950459
-0.6532341716 -0.3558789077 0.0000000000 0.4642721393 -0.2697369879 370.0686601651 0.0967658284 -0.3558789074
-0.6525234024 -0.3866979367 0.0000000000 0.4813934251 -0.3058417243 354.2928719418 0.0968359164 -0.3557042057
-0.6505100021 -0.4174041852 0.0000000000 0.5010417295 -0.3409435114 335.9269038190 0.0969283676 -0.3554696757
-0.6471969029 -0.4479439835 0.0000000000 0.5231483009 -0.3748579151 315.0203612184 0.0970435318 -0.3551745097
-0.6425896566 -0.4782644861 0.0000000000 0.5476331694 -0.4074089316 291.6348156674 0.0971813209 -0.3548185431