 TITLE = "Tecplot data"
 VARIABLES = "X", "Y", "Z" "U", "V", "p", "dispX", "dispY"
 ZONE SOLUTIONTIME=35.900000, NODES=26114 , ELEMENTS=25916, DATAPACKING=POINT, ZONETYPE=FEQUADRILATERAL
0.4100235990 0.3894733586 0.0000000000 0.0000000000 0.0000000000 -371.5835378008 0.0564702084 0.0359199679
0.4100235993 -0.3176334224 0.0000000000 0.0000000000 0.0000000000 -445.9149976224 0.0564702084 0.0359199679
-0.2970831823 0.3894733584 0.0000000000 0.0000000000 0.0000000000 -138.8394833687 0.0564702084 0.0359199679
-0.2970831820 -0.3176334228 0.0000000000 0.0000000000 0.0000000000 -198.5828105301 0.0564702084 0.0359199679
0.5858643877 0.5664190084 0.0000000000 0.0662408351 0.0996734921 -361.3615438977 0.0555343019 0.0360889225
0.5885186486 -0.4926617420 0.0000000000 0.3098902889 0.0224204819 -433.9582289550 0.0581885623 0.0376683435
-0.4717520502 0.5678202911 0.0000000000 0.8625493330 0.5249956901 50.7034276785 0.0585780358 0.0374902053
-0.4742244212 -0.4937590247 0.0000000000 0.8703548695 -0.4730940658 17.5679419937 0.0561056645 0.0365710615
1.1176729201 1.0971876185 0.0000000000 1.3035908392 -0.0757616903 -250.4116103970 0.0570127485 0.0365274466
1.1172401161 -1.0230497323 0.0000000000 1.1953296140 0.0093816807 -281.6371972316 0.0565799436 0.0376104387
-0.9994705918 1.1012807255 0.0000000000 0.9596302522 0.1822615226 81.7533292279 0.0611895803 0.0406205540
-1.0057740740 -1.0215361179 0.0000000000 0.9421964798 -0.1584405154 49.1088213744 0.0548860973 0.0391240545
4.2569954129 3.3323140986 0.0000000000 0.9967062382 0.0110996729 9.7898213058 0.0569954129 0.0323140986
4.2481746708 -3.2677072534 0.0000000000 1.0326073150 0.0319518213 -6.6475764038 0.0481746708 0.0322927466
20.0000000000 4.7000000000 0.0000000000 1.0087849396 -0.0145180659 -0.0130328704 0.0000000000 0.0000000000
20.0000000000 -4.7000000000 0.0000000000 1.0025172474 0.0212773878 0.0140752840 0.0000000000 0.0000000000
-10.0000000000 15.0000000000 0.0000000000 1.0000000000 0.0000000000 18.1622019823 0.0000000000 0.0000000000
20.0000000000 15.0000000000 0.0000000000 1.0058246370 0.0000000000 -0.0033809091 0.0000000000 0.0000000000
20.0000000000 -15.0000000000 0.0000000000 1.0077334392 0.0000000000 -0.0072545555 0.0000000000 0.0000000000
-10.0000000000 -15.0000000000 0.0000000000 1.0000000000 0.0000000000 10.2262141886 0.0000000000 0.0000000000
0.4229961446 -0.3041664007 0.0000000000 0.0000000000 0.0000000000 -441.9065984731 0.0564702084 0.0359199679
0.4354560702 -0.2902237375 0.0000000000 0.0000000000 0.0000000000 -438.2571514165 0.0564702084 0.0359199679
0.4473859499 -0.2758249327 0.0000000000 0.0000000000 0.0000000000 -434.5147173764 0.0564702084 0.0359199679
0.4587690985 -0.2609901246 0.0000000000 0.0000000000 0.0000000000 -430.8247804193 0.0564702084 0.0359199679
0.4695895958 -0.2457400608 0.0000000000 0.0000000000 0.0000000000 -427.0763706194 0.0564702084 0.0359199679
0.4798323082 -0.2300960701 0.0000000000 0.0000000000 0.0000000000 -423.2961135715 0.0564702084 0.0359199679
0.4894829105 -0.2140800318 0.0000000000 0.0000000000 0.0000000000 -419.4722637639 0.0564702084 0.0359199679
0.4985279053 -0.1977143459 0.0000000000 0.0000000000 0.0000000000 -415.6312737374 0.0564702084 0.0359199679
0.5069546425 -0.1810219014 0.0000000000 0.0000000000 0.0000000000 -411.7993188924 0.0564702084 0.0359199679
0.5147513365 -0.1640260440 0.0000000000 0.0000000000 0.0000000000 -408.0161764620 0.0564702084 0.0359199679
0.5219070829 -0.1467505440 0.0000000000 0.0000000000 0.0000000000 -404.3248499721 0.0564702084 0.0359199679
0.5284118737 -0.1292195628 0.0000000000 0.0000000000 0.0000000000 -400.7713927125 0.0564702084 0.0359199679
0.5342566114 -0.1114576190 0.0000000000 0.0000000000 0.0000000000 -397.4030900352 0.0564702084 0.0359199679
0.5394331216 -0.0934895544 0.0000000000 0.0000000000 0.0000000000 -394.2566305767 0.0564702084 0.0359199679
0.5439341646 -0.0753404988 0.0000000000 0.0000000000 0.0000000000 -391.3857355665 0.0564702084 0.0359199679
0.5477534451 -0.0570358354 0.0000000000 0.0000000000 0.0000000000 -388.7705443046 0.0564702084 0.0359199679
0.5508856216 -0.0386011649 0.0000000000 0.0000000000 0.0000000000 -386.5164306692 0.0564702084 0.0359199679
0.5533263134 -0.0200622699 0.0000000000 0.0000000000 0.0000000000 -384.3865668133 0.0564702084 0.0359199679
0.5550721070 -0.0014450786 0.0000000000 0.0000000000 0.0000000000 -382.9122801789 0.0564702084 0.0359199679
0.5561205608 0.0172243710 0.0000000000 0.0000000000 0.0000000000 -381.4482275988 0.0564702084 0.0359199679
0.5564702084 0.0359199681 0.0000000000 0.0000000000 0.0000000000 -380.3519825582 0.0564702084 0.0359199679
0.5561205608 0.0546155653 0.0000000000 0.0000000000 0.0000000000 -379.4577451853 0.0564702084 0.0359199679
0.5550721070 0.0732850149 0.0000000000 0.0000000000 0.0000000000 -378.7520641540 0.0564702084 0.0359199679
0.5533263134 0.0919022062 0.0000000000 0.0000000000 0.0000000000 -378.1929482644 0.0564702084 0.0359199679
0.5508856215 0.1104411012 0.0000000000 0.0000000000 0.0000000000 -377.7380635042 0.0564702084 0.0359199679
0.5477534450 0.1288757717 0.0000000000 0.0000000000 0.0000000000 -377.3488848155 0.0564702084 0.0359199679
0.5439341645 0.1471804351 0.0000000000 0.0000000000 0.0000000000 -376.9908064022 0.0564702084 0.0359199679
0.5394331215 0.1653294906 0.0000000000 0.0000000000 0.0000000000 -376.6359819107 0.0564702084 0.0359199679
0.5342566113 0.1832975553 0.0000000000 0.0000000000 0.0000000000 -376.2626800055 0.0564702084 0.0359199679
0.5284118735 0.2010594990 0.0000000000 0.0000000000 0.0000000000 -375.8566814843 0.0564702084 0.0359199679
0.5219070827 0.2185904802 0.0000000000 0.0000000000 0.0000000000 -375.4090224857 0.0564702084 0.0359199679
0.5147513363 0.2358659802 0.0000000000 0.0000000000 0.0000000000 -374.9200482167 0.0564702084 0.0359199679
0.5069546423 0.2528618376 0.0000000000 0.0000000000 0.0000000000 -374.3890251954 0.0564702084 0.0359199679
0.4985279051 0.2695542822 0.0000000000 0.0000000000 0.0000000000 -373.8337598914 0.0564702084 0.0359199679
0.4894829103 0.2859199680 0.0000000000 0.0000000000 0.0000000000 -373.2565980608 0.0564702084 0.0359199679
0.4798323080 0.3019360063 0.0000000000 0.0000000000 0.0000000000 -372.7009832272 0.0564702084 0.0359199679
0.4695895955 0.3175799970 0.0000000000 0.0000000000 0.0000000000 -372.1582963665 0.0564702084 0.0359199679
0.4587690983 0.3328300608 0.0000000000 0.0000000000 0.0000000000 -371.7287932970 0.0564702084 0.0359199679
0.4473859496 0.3476648689 0.0000000000 0.0000000000 0.0000000000 -371.3361028018 0.0564702084 0.0359199679
0.4354560700 0.3620636736 0.0000000000 0.0000000000 0.0000000000 -371.2298931100 0.0564702084 0.0359199679
0.4229961443 0.3760063369 0.0000000000 0.0000000000 0.0000000000 -371.0830856218 0.0564702084 0.0359199679
0.3951109942 0.4037819233 0.0000000000 0.0000000000 0.0000000000 -371.8869173759 0.0564702084 0.0359199679
0.3796198273 0.4174620021 0.0000000000 0.0000000000 0.0000000000 -372.9975208162 0.0564702084 0.0359199679
0.3635765647 0.4304902227 0.0000000000 0.0000000000 0.0000000000 -374.2447985312 0.0564702084 0.0359199679
0.3470086161 0.4428443266 0.0000000000 0.0000000000 0.0000000000 -376.0619045045 0.0564702084 0.0359199679
0.3299442874 0.4545032071 0.0000000000 0.0000000000 0.0000000000 -378.2672563487 0.0564702084 0.0359199679
0.3124127329 0.4654469451 0.0000000000 0.0000000000 0.0000000000 -381.0444909103 0.0564702084 0.0359199679
0.2944439049 0.4756568436 0.0000000000 0.0000000000 0.0000000000 -384.3801409107 0.0564702084 0.0359199679
0.2760685028 0.4851154589 0.0000000000 0.0000000000 0.0000000000 -388.3709160528 0.0564702084 0.0359199679
0.2573179207 0.4938066313 0.0000000000 0.0000000000 0.0000000000 -393.0281579226 0.0564702084 0.0359199679
0.2382241936 0.5017155120 0.0000000000 0.0000000000 0.0000000000 -398.3870843450 0.0564702084 0.0359199679
0.2188199430 0.5088285888 0.0000000000 0.0000000000 0.0000000000 -404.4184340560 0.0564702084 0.0359199679
0.1991383205 0.5151337092 0.0000000000 0.0000000000 0.0000000000 -411.0988181502 0.0564702084 0.0359199679
0.1792129519 0.5206201009 0.0000000000 0.0000000000 0.0000000000 -418.3516458777 0.0564702084 0.0359199679
0.1590778794 0.5252783906 0.0000000000 0.0000000000 0.0000000000 -426.0890463000 0.0564702084 0.0359199679
0.1387675035 0.5291006196 0.0000000000 0.0000000000 0.0000000000 -434.1806170081 0.0564702084 0.0359199679
0.1183165240 0.5320802578 0.0000000000 0.0000000000 0.0000000000 -442.5568070078 0.0564702084 0.0359199679
0.0977598811 0.5342122144 0.0000000000 0.0000000000 0.0000000000 -450.6961602380 0.0564702084 0.0359199679
0.0771326955 0.5354928471 0.0000000000 0.0000000000 0.0000000000 -458.5787155123 0.0564702084 0.0359199679
0.0564702083 0.5359199679 0.0000000000 0.0000000000 0.0000000000 -466.0434814078 0.0564702084 0.0359199679
0.0358077212 0.5354928471 0.0000000000 0.0000000000 0.0000000000 -472.6710564189 0.0564702084 0.0359199679
0.0151805356 0.5342122144 0.0000000000 0.0000000000 0.0000000000 -478.0831016731 0.0564702084 0.0359199679
-0.0053761073 0.5320802578 0.0000000000 0.0000000000 0.0000000000 -481.9621695256 0.0564702084 0.0359199679
-0.0258270868 0.5291006196 0.0000000000 0.0000000000 0.0000000000 -483.9369042020 0.0564702084 0.0359199679
-0.0461374628 0.5252783906 0.0000000000 0.0000000000 0.0000000000 -483.6565380467 0.0564702084 0.0359199679
-0.0662725353 0.5206201009 0.0000000000 0.0000000000 0.0000000000 -480.7798694130 0.0564702084 0.0359199679
-0.0861979038 0.5151337091 0.0000000000 0.0000000000 0.0000000000 -474.9972365695 0.0564702084 0.0359199679
-0.1058795263 0.5088285887 0.0000000000 0.0000000000 0.0000000000 -466.0376944125 0.0564702084 0.0359199679
-0.1252837770 0.5017155119 0.0000000000 0.0000000000 0.0000000000 -453.6795899740 0.0564702084 0.0359199679
-0.1443775040 0.4938066312 0.0000000000 0.0000000000 0.0000000000 -437.7582545988 0.0564702084 0.0359199679
-0.1631280861 0.4851154588 0.0000000000 0.0000000000 0.0000000000 -418.1710002758 0.0564702084 0.0359199679
-0.1815034882 0.4756568435 0.0000000000 0.0000000000 0.0000000000 -394.8814219158 0.0564702084 0.0359199679
-0.1994723162 0.4654469450 0.0000000000 0.0000000000 0.0000000000 -367.9203955141 0.0564702084 0.0359199679
-0.2170038707 0.4545032070 0.0000000000 0.0000000000 0.0000000000 -337.3860447328 0.0564702084 0.0359199679
-0.2340681994 0.4428443265 0.0000000000 0.0000000000 0.0000000000 -303.4411910520 0.0564702084 0.0359199679
-0.2506361480 0.4304902225 0.0000000000 0.0000000000 0.0000000000 -266.3097293209 0.0564702084 0.0359199679
-0.2666794106 0.4174620019 0.0000000000 0.0000000000 0.0000000000 -226.2715930384 0.0564702084 0.0359199679
-0.2821705775 0.4037819232 0.0000000000 0.0000000000 0.0000000000 -183.6569180725 0.0564702084 0.0359199679
-0.3113917470 0.3745607536 0.0000000000 0.0000000000 0.0000000000 -92.2297572284 0.0564702084 0.0359199679
-0.3250718258 0.3590695867 0.0000000000 0.0000000000 0.0000000000 -44.2677378802 0.0564702084 0.0359199679
-0.3381000464 0.3430263241 0.0000000000 0.0000000000 0.0000000000 4.5841916146 0.0564702084 0.0359199679
-0.3504541503 0.3264583755 0.0000000000 0.0000000000 0.0000000000 53.8482320498 0.0564702084 0.0359199679
-0.3621130308 0.3093940468 0.0000000000 0.0000000000 0.0000000000 103.0378339567 0.0564702084 0.0359199679
-0.3730567688 0.2918624923 0.0000000000 0.0000000000 0.0000000000 151.6639869561 0.0564702084 0.0359199679
-0.3832666673 0.2738936643 0.0000000000 0.0000000000 0.0000000000 199.2410980940 0.0564702084 0.0359199679
-0.3927252826 0.2555182622 0.0000000000 0.0000000000 0.0000000000 245.2924560384 0.0564702084 0.0359199679
-0.4014164550 0.2367676801 0.0000000000 0.0000000000 0.0000000000 289.3552913656 0.0564702084 0.0359199679
-0.4093253357 0.2176739530 0.0000000000 0.0000000000 0.0000000000 330.9854481001 0.0564702084 0.0359199679
-0.4164384125 0.1982697024 0.0000000000 0.0000000000 0.0000000000 369.7616773932 0.0564702084 0.0359199679
-0.4227435329 0.1785880799 0.0000000000 0.0000000000 0.0000000000 405.2895609451 0.0564702084 0.0359199679
-0.4282299246 0.1586627113 0.0000000000 0.0000000000 0.0000000000 437.2050657155 0.0564702084 0.0359199679
-0.4328882143 0.1385276388 0.0000000000 0.0000000000 0.0000000000 465.1777330832 0.0564702084 0.0359199679
-0.4367104433 0.1182172629 0.0000000000 0.0000000000 0.0000000000 488.9134982144 0.0564702084 0.0359199679
-0.4396900815 0.0977662834 0.0000000000 0.0000000000 0.0000000000 508.1571493792 0.0564702084 0.0359199679
-0.4418220381 0.0772096405 0.0000000000 0.0000000000 0.0000000000 522.6944120621 0.0564702084 0.0359199679
-0.4431026708 0.0565824548 0.0000000000 0.0000000000 0.0000000000 532.3536928809 0.0564702084 0.0359199679
-0.4435297916 0.0359199677 0.0000000000 0.0000000000 0.0000000000 537.0074242698 0.0564702084 0.0359199679
-0.4431026708 0.0152574806 0.0000000000 0.0000000000 0.0000000000 536.5731306632 0.0564702084 0.0359199679
-0.4418220381 -0.0053697050 0.0000000000 0.0000000000 0.0000000000 531.0139953809 0.0564702084 0.0359199679
-0.4396900814 -0.0259263479 0.0000000000 0.0000000000 0.0000000000 520.3393538688 0.0564702084 0.0359199679
-0.4367104432 -0.0463773274 0.0000000000 0.0000000000 0.0000000000 504.6043169347 0.0564702084 0.0359199679
-0.4328882142 -0.0666877034 0.0000000000 0.0000000000 0.0000000000 483.9100334875 0.0564702084 0.0359199679
-0.4282299245 -0.0868227759 0.0000000000 0.0000000000 0.0000000000 458.4017662952 0.0564702084 0.0359199679
-0.4227435327 -0.1067481444 0.0000000000 0.0000000000 0.0000000000 428.2700852339 0.0564702084 0.0359199679
-0.4164384123 -0.1264297669 0.0000000000 0.0000000000 0.0000000000 393.7453399444 0.0564702084 0.0359199679
-0.4093253355 -0.1458340176 0.0000000000 0.0000000000 0.0000000000 355.1034850210 0.0564702084 0.0359199679
-0.4014164548 -0.1649277446 0.0000000000 0.0000000000 0.0000000000 312.6508974296 0.0564702084 0.0359199679
-0.3927252824 -0.1836783267 0.0000000000 0.0000000000 0.0000000000 266.7436883860 0.0564702084 0.0359199679
-0.3832666671 -0.2020537288 0.0000000000 0.0000000000 0.0000000000 217.7548513968 0.0564702084 0.0359199679
-0.3730567686 -0.2200225568 0.0000000000 0.0000000000 0.0000000000 166.0960118732 0.0564702084 0.0359199679
-0.3621130306 -0.2375541113 0.0000000000 0.0000000000 0.0000000000 112.2690606790 0.0564702084 0.0359199679
-0.3504541501 -0.2546184400 0.0000000000 0.0000000000 0.0000000000 56.4711982714 0.0564702084 0.0359199679
-0.3381000461 -0.2711863886 0.0000000000 0.0000000000 0.0000000000 0.3539056438 0.0564702084 0.0359199679
-0.3250718255 -0.2872296512 0.0000000000 0.0000000000 0.0000000000 -57.9805194599 0.0564702084 0.0359199679
-0.3113917467 -0.3027208181 0.0000000000 0.0000000000 0.0000000000 23.6609057369 0.0564702084 0.0359199679
-0.2821705772 -0.3319419876 0.0000000000 0.0000000000 0.0000000000 -170.2195545964 0.0564702084 0.0359199679
-0.2666794103 -0.3456220663 0.0000000000 0.0000000000 0.0000000000 -206.4778305402 0.0564702084 0.0359199679
-0.2506361477 -0.3586502869 0.0000000000 0.0000000000 0.0000000000 -348.0097708781 0.0564702084 0.0359199679
-0.2340681991 -0.3710043909 0.0000000000 0.0000000000 0.0000000000 -384.3444930705 0.0564702084 0.0359199679
-0.2170038704 -0.3826632714 0.0000000000 0.0000000000 0.0000000000 -442.7642004842 0.0564702084 0.0359199679
-0.1994723159 -0.3936070094 0.0000000000 0.0000000000 0.0000000000 -483.2048856077 0.0564702084 0.0359199679
-0.1815034878 -0.4038169078 0.0000000000 0.0000000000 0.0000000000 -527.8587842065 0.0564702084 0.0359199679
-0.1631280857 -0.4132755231 0.0000000000 0.0000000000 0.0000000000 -563.9675575568 0.0564702084 0.0359199679
-0.1443775036 -0.4219666955 0.0000000000 0.0000000000 0.0000000000 -598.3310772139 0.0564702084 0.0359199679
-0.1252837766 -0.4298755762 0.0000000000 0.0000000000 0.0000000000 -626.5684474749 0.0564702084 0.0359199679
-0.1058795259 -0.4369886530 0.0000000000 0.0000000000 0.0000000000 -650.8277725190 0.0564702084 0.0359199679
-0.0861979034 -0.4432937734 0.0000000000 0.0000000000 0.0000000000 -669.7347350823 0.0564702084 0.0359199679
-0.0662725349 -0.4487801651 0.0000000000 0.0000000000 0.0000000000 -683.6601415540 0.0564702084 0.0359199679
-0.0461374624 -0.4534384548 0.0000000000 0.0000000000 0.0000000000 -693.2064990966 0.0564702084 0.0359199679
-0.0258270864 -0.4572606838 0.0000000000 0.0000000000 0.0000000000 -695.8508273904 0.0564702084 0.0359199679
-0.0053761069 -0.4602403220 0.0000000000 0.0000000000 0.0000000000 -698.4433201826 0.0564702084 0.0359199679
0.0151805360 -0.4623722786 0.0000000000 0.0000000000 0.0000000000 -689.0103550740 0.0564702084 0.0359199679
0.0358077216 -0.4636529113 0.0000000000 0.0000000000 0.0000000000 -690.1449708391 0.0564702084 0.0359199679
0.0564702087 -0.4640800321 0.0000000000 0.0000000000 0.0000000000 -674.8427904305 0.0564702084 0.0359199679
0.0771326959 -0.4636529113 0.0000000000 0.0000000000 0.0000000000 -662.1264877540 0.0564702084 0.0359199679
0.0977598815 -0.4623722786 0.0000000000 0.0000000000 0.0000000000 -646.1526166131 0.0564702084 0.0359199679
0.1183165244 -0.4602403219 0.0000000000 0.0000000000 0.0000000000 -629.2521609612 0.0564702084 0.0359199679
0.1387675039 -0.4572606837 0.0000000000 0.0000000000 0.0000000000 -611.5116055109 0.0564702084 0.0359199679
0.1590778798 -0.4534384547 0.0000000000 0.0000000000 0.0000000000 -593.6089499720 0.0564702084 0.0359199679
0.1792129523 -0.4487801650 0.0000000000 0.0000000000 0.0000000000 -575.9873629848 0.0564702084 0.0359199679
0.1991383209 -0.4432937732 0.0000000000 0.0000000000 0.0000000000 -559.0508591583 0.0564702084 0.0359199679
0.2188199433 -0.4369886528 0.0000000000 0.0000000000 0.0000000000 -543.0980201354 0.0564702084 0.0359199679
0.2382241940 -0.4298755760 0.0000000000 0.0000000000 0.0000000000 -528.3370526140 0.0564702084 0.0359199679
0.2573179211 -0.4219666953 0.0000000000 0.0000000000 0.0000000000 -514.8880918785 0.0564702084 0.0359199679
0.2760685032 -0.4132755229 0.0000000000 0.0000000000 0.0000000000 -502.7992998743 0.0564702084 0.0359199679
0.2944439052 -0.4038169075 0.0000000000 0.0000000000 0.0000000000 -492.0558750398 0.0564702084 0.0359199679
0.3124127333 -0.3936070091 0.0000000000 0.0000000000 0.0000000000 -482.6039102394 0.0564702084 0.0359199679
0.3299442878 -0.3826632710 0.0000000000 0.0000000000 0.0000000000 -474.3376152061 0.0564702084 0.0359199679
0.3470086164 -0.3710043905 0.0000000000 0.0000000000 0.0000000000 -467.1528081686 0.0564702084 0.0359199679
0.3635765651 -0.3586502866 0.0000000000 0.0000000000 0.0000000000 -460.8543690120 0.0564702084 0.0359199679
0.3796198276 -0.3456220659 0.0000000000 0.0000000000 0.0000000000 -455.3706401444 0.0564702084 0.0359199679
0.3951109945 -0.3319419872 0.0000000000 0.0000000000 0.0000000000 -450.3228855520 0.0564702084 0.0359199679
0.6078777002 -0.4724492235 0.0000000000 0.2434560380 0.0237959149 -434.4510791464 0.0580887960 0.0376803294
0.6264878888 -0.4514941363 0.0000000000 0.1868534014 0.0241081642 -434.6053973544 0.0580090961 0.0377214217
0.6443048161 -0.4298434773 0.0000000000 0.1392218905 0.0240097195 -434.4164849168 0.0579312039 0.0377738737
0.6612971295 -0.4075362609 0.0000000000 0.0993435274 0.0240461947 -433.8339886534 0.0578487944 0.0378288779
0.6774390116 -0.3846078526 0.0000000000 0.0659451691 0.0246560971 -432.8218217927 0.0577599306 0.0378821906
0.6927075618 -0.3610925077 0.0000000000 0.0378673847 0.0261706470 -431.3560913147 0.0576644121 0.0379315493
0.7070818000 -0.3370243384 0.0000000000 0.0141371021 0.0288251797 -429.4259602167 0.0575627469 0.0379756612
0.7205422659 -0.3124377044 0.0000000000 -0.0060191997 0.0327704032 -427.0354055535 0.0574557206 0.0380137664
0.7330708618 -0.2873673835 0.0000000000 -0.0231935272 0.0380807971 -424.2048794681 0.0573442107 0.0380454205
0.7446508015 -0.2618486448 0.0000000000 -0.0378275444 0.0447615525 -420.9720583825 0.0572291095 0.0380703731
0.7552666098 -0.2359172720 0.0000000000 -0.0502464723 0.0527560883 -417.3911025604 0.0571112982 0.0380884958
0.7649041372 -0.2096095559 0.0000000000 -0.0606900434 0.0619550760 -413.5302954440 0.0569916394 0.0380997402
0.7735505781 -0.1829622685 0.0000000000 -0.0693378239 0.0722066265 -409.4683301094 0.0568709737 0.0381041119
0.7811944853 -0.1560126279 0.0000000000 -0.0763283079 0.0833266221 -405.2897450435 0.0567501155 0.0381016555
0.7878257815 -0.1287982555 0.0000000000 -0.0817726659 0.0951081840 -401.0800638654 0.0566298473 0.0380924446
0.7934357703 -0.1013571308 0.0000000000 -0.0857648245 0.1073297044 -396.9211168416 0.0565109153 0.0380765742
0.7980171458 -0.0737275434 0.0000000000 -0.0883896601 0.1197614057 -392.8868942894 0.0563940260 0.0380541559
0.8015640034 -0.0459480435 0.0000000000 -0.0897306389 0.1321707904 -389.0401667888 0.0562798459 0.0380253133
0.8040718497 -0.0180573907 0.0000000000 -0.0898774840 0.1443274822 -385.4300318026 0.0561690018 0.0379901791
0.8055376109 0.0099054985 0.0000000000 -0.0889336989 0.1560078545 -382.0905027247 0.0560620823 0.0379488939
0.8059596401 0.0379016056 0.0000000000 -0.0870232336 0.1669995701 -379.0402175661 0.0559596401 0.0379016053
0.8053377225 0.0658918667 0.0000000000 -0.0842953660 0.1771058552 -376.2832854342 0.0558621939 0.0378484707
0.8036730787 0.0938372308 0.0000000000 -0.0809269669 0.1861491241 -373.8112009350 0.0557702308 0.0377896604
0.8009683682 0.1216987205 0.0000000000 -0.0771216282 0.1939735303 -371.6056495346 0.0556842109 0.0377253631
0.7972276922 0.1494374927 0.0000000000 -0.0731055150 0.2004461767 -369.6419221332 0.0556045726 0.0376557928
0.7924565958 0.1770149006 0.0000000000 -0.0691201263 0.2054570399 -367.8925768317 0.0555317410 0.0375811950
0.7866620701 0.2043925548 0.0000000000 -0.0654123001 0.2089180603 -366.3309449093 0.0554661360 0.0375018541
0.7798525514 0.2315323832 0.0000000000 -0.0622217143 0.2107622034 -364.9340815913 0.0554081817 0.0374180991
0.7720379165 0.2583966897 0.0000000000 -0.0597657028 0.2109434480 -363.6848120161 0.0553583122 0.0373303087
0.7632294716 0.2849482123 0.0000000000 -0.0582202211 0.2094384821 -362.5726318398 0.0553169740 0.0372389157
0.7534399321 0.3111501792 0.0000000000 -0.0576939294 0.2062503743 -361.5934221151 0.0552846207 0.0371444108
0.7426833901 0.3369663645 0.0000000000 -0.0581897243 0.2014138432 -360.7482450793 0.0552616983 0.0370473461
0.7309752656 0.3623611414 0.0000000000 -0.0595463483 0.1950013588 -360.0418135782 0.0552486147 0.0369483369
0.7183322370 0.3872995319 0.0000000000 -0.0613562099 0.1871294055 -359.4813395131 0.0552456919 0.0368480606
0.7047721501 0.4117472468 0.0000000000 -0.0628690430 0.1779643086 -359.0761296834 0.0552530974 0.0367472466
0.6903139119 0.4356707104 0.0000000000 -0.0629136080 0.1677259549 -358.8375560099 0.0552707626 0.0366466529
0.6749773899 0.4590370695 0.0000000000 -0.0598886964 0.1566851750 -358.7783359835 0.0552983093 0.0365470258
0.6587833405 0.4818141969 0.0000000000 -0.0518696223 0.1451488079 -358.9100826080 0.0553350057 0.0364490576
0.6417533537 0.5039707284 0.0000000000 -0.0368353810 0.1334297752 -359.2392229488 0.0553797419 0.0363533770
0.6239096764 0.5254762100 0.0000000000 -0.0129595323 0.1218092972 -359.7634974740 0.0554308841 0.0362606515
0.6052743950 0.5463016229 0.0000000000 0.0211353469 0.1105093834 -360.4704313673 0.0554854912 0.0361720695
0.5635832103 0.5877714157 0.0000000000 0.1293950433 0.0886049816 -362.5406284442 0.0556220316 0.0359784827
0.5404389129 0.6081964570 0.0000000000 0.2063476879 0.0789428429 -363.8977893192 0.0557144846 0.0358834058
0.5164758545 0.6276557967 0.0000000000 0.2963699982 0.0713603134 -365.4709287636 0.0558163201 0.0358004146
0.4917349255 0.6461146849 0.0000000000 0.3980396923 0.0667427673 -367.2852323123 0.0559273140 0.0357281469
0.4662573954 0.6635407058 0.0000000000 0.5089710467 0.0660160144 -369.3468627541 0.0560462769 0.0356658470
0.4400856634 0.6799033349 0.0000000000 0.6256916479 0.0698989160 -371.6048111921 0.0561718767 0.0356128690
0.4132633995 0.6951740304 0.0000000000 0.7438590866 0.0787101798 -373.9240624703 0.0563028548 0.0355687170
0.3858354915 0.7093263393 0.0000000000 0.8587934019 0.0923023944 -376.0842235834 0.0564380499 0.0355331028
0.3578479414 0.7223359270 0.0000000000 0.9661184483 0.1101148706 -377.8120658598 0.0565763731 0.0355059320
0.3293477680 0.7341805539 0.0000000000 1.0622982555 0.1312979383 -378.8344225900 0.0567167902 0.0354872379
0.3003829255 0.7448400395 0.0000000000 1.1449531865 0.1548625613 -378.9264033617 0.0568583237 0.0354771082
0.2710022327 0.7542962366 0.0000000000 1.2129401823 0.1798221914 -377.9374423579 0.0570000646 0.0354756247
0.2412552993 0.7625330219 0.0000000000 1.2662399213 0.2053047660 -375.7928853421 0.0571411841 0.0354828224
0.2111924459 0.7695362981 0.0000000000 1.3057180387 0.2306226114 -372.4788953435 0.0572809393 0.0354986641
0.1808646118 0.7752940070 0.0000000000 1.3328308124 0.2552982504 -368.0203778281 0.0574186692 0.0355230294
0.1503232561 0.7797961514 0.0000000000 1.3493353767 0.2790529345 -362.4590114396 0.0575537828 0.0355557166
0.1196202506 0.7830348247 0.0000000000 1.3570461282 0.3017700162 -355.8352525398 0.0576857416 0.0355964550
0.0888077715 0.7850042445 0.0000000000 1.3576583651 0.3234465040 -348.1759288981 0.0578140410 0.0356449257
0.0579381901 0.7857007856 0.0000000000 1.3526422497 0.3441441712 -339.4876639730 0.0579381903 0.0357007856
0.0270639664 0.7851230069 0.0000000000 1.3431977341 0.3639479010 -329.7554906346 0.0580576973 0.0357636882
-0.0037624553 0.7832716682 0.0000000000 1.3302547950 0.3829349859 -318.9454645060 0.0581720540 0.0358332985
-0.0344887470 0.7801497318 0.0000000000 1.3145022046 0.4011558665 -307.0098615125 0.0582807266 0.0359092970
-0.0650627955 0.7757623515 0.0000000000 1.2964303399 0.4186247282 -293.8936120371 0.0583831474 0.0359913739
-0.0954327979 0.7701168487 0.0000000000 1.2763773770 0.4353174628 -279.5408926397 0.0584787089 0.0360792148
-0.1255473549 0.7632226794 0.0000000000 1.2545722073 0.4511744288 -263.9011468657 0.0585667607 0.0361724800
-0.1553555600 0.7550913942 0.0000000000 1.2311707278 0.4661058623 -246.9341402685 0.0586466084 0.0362707824
-0.1848070861 0.7457365949 0.0000000000 1.2062844908 0.4799983781 -228.6139139306 0.0587175159 0.0363736637
-0.2138522678 0.7351738890 0.0000000000 1.1800021039 0.4927215689 -208.9316685085 0.0587787103 0.0364805730
-0.2424421802 0.7234208403 0.0000000000 1.1524044417 0.5041341576 -187.8976973283 0.0588293885 0.0365908453
-0.2705287181 0.7104969171 0.0000000000 1.1235749325 0.5140894673 -165.5425143557 0.0588687237 0.0367036808
-0.2980646782 0.6964234335 0.0000000000 1.0936061067 0.5224401564 -141.9173146812 0.0588958668 0.0368181202
-0.3250038568 0.6812234762 0.0000000000 1.0626033970 0.5290422591 -117.0938747927 0.0589099302 0.0369330105
-0.3513011854 0.6649218016 0.0000000000 1.0306869490 0.5337586025 -91.1639721129 0.0589099334 0.0370469431
-0.3769129634 0.6475446600 0.0000000000 0.9979919381 0.5364616483 -64.2382830589 0.0588946484 0.0371581222
-0.4017973528 0.6291194291 0.0000000000 0.9646676749 0.5370357769 -36.4448512155 0.0588621819 0.0372640472
-0.4259156627 0.6096737323 0.0000000000 0.9308749127 0.5353784721 -7.9254743088 0.0588087659 0.0373606813
-0.4492363479 0.5892331704 0.0000000000 0.8967812900 0.5313996893 21.1667460979 0.0587248310 0.0374402376
-0.4932206709 0.5456214669 0.0000000000 0.8286430603 0.5162336947 80.2311489060 0.0585722623 0.0376602883
-0.5138044333 0.5225281542 0.0000000000 0.7950018562 0.5050103388 109.7963964147 0.0585086180 0.0378037260
-0.5334381262 0.4985883418 0.0000000000 0.7618718672 0.4913265531 139.1671469123 0.0584172560 0.0379288074
-0.5520786085 0.4738481902 0.0000000000 0.7294721774 0.4752034014 168.1258675819 0.0583079296 0.0380405788
-0.5696897475 0.4483518214 0.0000000000 0.6980178676 0.4566784119 196.4590268392 0.0581851113 0.0381407030
-0.5862389907 0.4221434713 0.0000000000 0.6677188311 0.4358095777 223.9554131051 0.0580514752 0.0382296847
-0.6016962970 0.3952681779 0.0000000000 0.6387794682 0.4126749652 250.4069948542 0.0579090165 0.0383076334
-0.6160337958 0.3677719855 0.0000000000 0.6113970082 0.3873723409 275.6106507795 0.0577594407 0.0383745441
-0.6292256861 0.3397019736 0.0000000000 0.5857597826 0.3600183788 299.3700850240 0.0576043090 0.0384304053
-0.6412482240 0.3111062175 0.0000000000 0.5620454959 0.3307476528 321.4977445139 0.0574450921 0.0384752398
-0.6520797431 0.2820337186 0.0000000000 0.5404196015 0.2997114283 341.8166506625 0.0572831883 0.0385091170
-0.6617006866 0.2525343210 0.0000000000 0.5210338032 0.2670762867 360.1621029389 0.0571199253 0.0385321531
-0.6700936412 0.2226586212 0.0000000000 0.5040246879 0.2330226134 376.3832271195 0.0569565584 0.0385445062
-0.6772433660 0.1924578764 0.0000000000 0.4895124831 0.1977429785 390.3443507085 0.0567942681 0.0385463701
-0.6831368146 0.1619839110 0.0000000000 0.4775999334 0.1614404469 401.9261960203 0.0566341630 0.0385379686
-0.6877631467 0.1312890242 0.0000000000 0.4683713022 0.1243268490 411.0268903492 0.0564772882 0.0385195511
-0.6911137299 0.1004258968 0.0000000000 0.4618915263 0.0866210371 417.5628020667 0.0563246399 0.0384913880
-0.6931821342 0.0694474976 0.0000000000 0.4582055599 0.0485471362 421.4692178455 0.0561771846 0.0384537672
-0.6939641211 0.0384069893 0.0000000000 0.4573379442 0.0103327856 422.7008746839 0.0560358789 0.0384069896
-0.6934576331 0.0073576340 0.0000000000 0.4592926232 -0.0277926375 421.2323521351 0.0559016857 0.0383513650
-0.6916627837 -0.0236473002 0.0000000000 0.4640530014 -0.0655998154 417.0583190550 0.0557755860 0.0382872092
-0.6885818509 -0.0545546304 0.0000000000 0.4715822296 -0.1028613088 410.1936291131 0.0556585839 0.0382148434
-0.6842192707 -0.0853113457 0.0000000000 0.4818236536 -0.1393533882 400.6732517287 0.0555517068 0.0381345974
-0.6785816266 -0.1158646895 0.0000000000 0.4947013501 -0.1748578526 388.5520260292 0.0554560073 0.0380468175
-0.6716776294 -0.1461622368 0.0000000000 0.5101207310 -0.2091638042 373.9042487628 0.0553725699 0.0379518789
-0.6635180816 -0.1761519669 0.0000000000 0.5279692163 -0.2420693690 356.8231044711 0.0553025302 0.0378502016