 TITLE = "Tecplot data"
 VARIABLES = "X", "Y", "Z" "U", "V", "p", "dispX", "dispY"
 ZONE SOLUTIONTIME=23.900000, NODES=26114 , ELEMENTS=25916, DATAPACKING=POINT, ZONETYPE=FEQUADRILATERAL
0.3660843830 0.3449712106 0.0000000000 0.0000000000 0.0000000000 -189.5075653699 0.0125309924 -0.0085821801
0.3660843832 -0.3621355704 0.0000000000 0.0000000000 0.0000000000 -239.0008065636 0.0125309924 -0.0085821801
-0.3410223983 0.3449712104 0.0000000000 0.0000000000 0.0000000000 -52.5881447707 0.0125309924 -0.0085821801
-0.3410223980 -0.3621355708 0.0000000000 0.0000000000 0.0000000000 -101.8552304601 0.0125309924 -0.0085821801
0.5426409541 0.5218027859 0.0000000000 0.0473651876 0.0134052829 -180.9695885434 0.0123108683 -0.0085273000
0.5431194435 -0.5390983690 0.0000000000 0.0901157060 -0.0465285679 -232.5129696816 0.0127893573 -0.0087682835
-0.5175822977 0.5216353986 0.0000000000 0.8004502506 0.4676775839 108.3411949522 0.0127477883 -0.0086946871
-0.5177332159 -0.5390445582 0.0000000000 0.8230196574 -0.4822388915 79.1774432682 0.0125968697 -0.0087144721
1.0730404987 1.0519974095 0.0000000000 1.1583900116 0.2342632565 -171.9337583403 0.0123803270 -0.0086627624
1.0733512222 -1.0693177292 0.0000000000 1.1927627292 -0.1498007345 -222.8657063673 0.0126910496 -0.0086575582
-1.0477966030 1.0515634468 0.0000000000 0.9078217388 0.1830304268 107.4462839718 0.0128635691 -0.0090967246
-1.0480278028 -1.0697290126 0.0000000000 0.9178689100 -0.1844568928 92.2163625556 0.0126323685 -0.0090688403
4.2110237134 3.2924621418 0.0000000000 1.0874124947 -0.0636957475 -78.8074569221 0.0110237134 -0.0075378582
4.2122841556 -3.3074983786 0.0000000000 1.1140234941 0.0472042119 -81.5834919917 0.0122841556 -0.0074983786
20.0000000000 4.7000000000 0.0000000000 1.0014073137 -0.0043652808 0.0017008272 0.0000000000 0.0000000000
20.0000000000 -4.7000000000 0.0000000000 1.0012510872 0.0043529480 0.0022741027 0.0000000000 0.0000000000
-10.0000000000 15.0000000000 0.0000000000 1.0000000000 0.0000000000 4.9092451382 0.0000000000 0.0000000000
20.0000000000 15.0000000000 0.0000000000 1.0009049458 0.0000000000 -0.0066185404 0.0000000000 0.0000000000
20.0000000000 -15.0000000000 0.0000000000 1.0007130369 0.0000000000 -0.0065023901 0.0000000000 0.0000000000
-10.0000000000 -15.0000000000 0.0000000000 1.0000000000 0.0000000000 2.6494618777 0.0000000000 0.0000000000
0.3790569285 -0.3486685487 0.0000000000 0.0000000000 0.0000000000 -237.0526749472 0.0125309924 -0.0085821801
0.3915168542 -0.3347258854 0.0000000000 0.0000000000 0.0000000000 -235.6317287944 0.0125309924 -0.0085821801
0.4034467338 -0.3203270807 0.0000000000 0.0000000000 0.0000000000 -234.1494955233 0.0125309924 -0.0085821801
0.4148298825 -0.3054922726 0.0000000000 0.0000000000 0.0000000000 -232.7998279750 0.0125309924 -0.0085821801
0.4256503797 -0.2902422088 0.0000000000 0.0000000000 0.0000000000 -231.4241019756 0.0125309924 -0.0085821801
0.4358930922 -0.2745982180 0.0000000000 0.0000000000 0.0000000000 -230.0347070729 0.0125309924 -0.0085821801
0.4455436944 -0.2585821798 0.0000000000 0.0000000000 0.0000000000 -228.5768326872 0.0125309924 -0.0085821801
0.4545886893 -0.2422164939 0.0000000000 0.0000000000 0.0000000000 -227.0382786944 0.0125309924 -0.0085821801
0.4630154265 -0.2255240493 0.0000000000 0.0000000000 0.0000000000 -225.3986650177 0.0125309924 -0.0085821801
0.4708121204 -0.2085281919 0.0000000000 0.0000000000 0.0000000000 -223.6524351198 0.0125309924 -0.0085821801
0.4779678668 -0.1912526920 0.0000000000 0.0000000000 0.0000000000 -221.7975273471 0.0125309924 -0.0085821801
0.4844726576 -0.1737217108 0.0000000000 0.0000000000 0.0000000000 -219.8399860099 0.0125309924 -0.0085821801
0.4903173954 -0.1559597670 0.0000000000 0.0000000000 0.0000000000 -217.7910052350 0.0125309924 -0.0085821801
0.4954939056 -0.1379917024 0.0000000000 0.0000000000 0.0000000000 -215.6673858614 0.0125309924 -0.0085821801
0.4999949485 -0.1198426468 0.0000000000 0.0000000000 0.0000000000 -213.4901332379 0.0125309924 -0.0085821801
0.5038142291 -0.1015379834 0.0000000000 0.0000000000 0.0000000000 -211.2836669995 0.0125309924 -0.0085821801
0.5069464055 -0.0831033129 0.0000000000 0.0000000000 0.0000000000 -209.0744571221 0.0125309924 -0.0085821801
0.5093870974 -0.0645644179 0.0000000000 0.0000000000 0.0000000000 -206.8897194220 0.0125309924 -0.0085821801
0.5111328910 -0.0459472266 0.0000000000 0.0000000000 0.0000000000 -204.7559683602 0.0125309924 -0.0085821801
0.5121813448 -0.0272777770 0.0000000000 0.0000000000 0.0000000000 -202.6976731400 0.0125309924 -0.0085821801
0.5125309924 -0.0085821798 0.0000000000 0.0000000000 0.0000000000 -200.7360562918 0.0125309924 -0.0085821801
0.5121813448 0.0101134173 0.0000000000 0.0000000000 0.0000000000 -198.8881762422 0.0125309924 -0.0085821801
0.5111328910 0.0287828669 0.0000000000 0.0000000000 0.0000000000 -197.1663481161 0.0125309924 -0.0085821801
0.5093870973 0.0474000582 0.0000000000 0.0000000000 0.0000000000 -195.5779705576 0.0125309924 -0.0085821801
0.5069464055 0.0659389532 0.0000000000 0.0000000000 0.0000000000 -194.1257340397 0.0125309924 -0.0085821801
0.5038142290 0.0843736237 0.0000000000 0.0000000000 0.0000000000 -192.8082260273 0.0125309924 -0.0085821801
0.4999949484 0.1026782871 0.0000000000 0.0000000000 0.0000000000 -191.6207802716 0.0125309924 -0.0085821801
0.4954939055 0.1208273426 0.0000000000 0.0000000000 0.0000000000 -190.5566434635 0.0125309924 -0.0085821801
0.4903173952 0.1387954073 0.0000000000 0.0000000000 0.0000000000 -189.6080825030 0.0125309924 -0.0085821801
0.4844726575 0.1565573511 0.0000000000 0.0000000000 0.0000000000 -188.7678773744 0.0125309924 -0.0085821801
0.4779678667 0.1740883323 0.0000000000 0.0000000000 0.0000000000 -188.0301957866 0.0125309924 -0.0085821801
0.4708121203 0.1913638322 0.0000000000 0.0000000000 0.0000000000 -187.3925243439 0.0125309924 -0.0085821801
0.4630154263 0.2083596896 0.0000000000 0.0000000000 0.0000000000 -186.8555548396 0.0125309924 -0.0085821801
0.4545886891 0.2250521342 0.0000000000 0.0000000000 0.0000000000 -186.4265118773 0.0125309924 -0.0085821801
0.4455436942 0.2414178200 0.0000000000 0.0000000000 0.0000000000 -186.1159392455 0.0125309924 -0.0085821801
0.4358930920 0.2574338583 0.0000000000 0.0000000000 0.0000000000 -185.9455009039 0.0125309924 -0.0085821801
0.4256503795 0.2730778491 0.0000000000 0.0000000000 0.0000000000 -185.9348815646 0.0125309924 -0.0085821801
0.4148298822 0.2883279128 0.0000000000 0.0000000000 0.0000000000 -186.1242745437 0.0125309924 -0.0085821801
0.4034467336 0.3031627209 0.0000000000 0.0000000000 0.0000000000 -186.5302319143 0.0125309924 -0.0085821801
0.3915168539 0.3175615256 0.0000000000 0.0000000000 0.0000000000 -187.2198168044 0.0125309924 -0.0085821801
0.3790569283 0.3315041889 0.0000000000 0.0000000000 0.0000000000 -188.1624364705 0.0125309924 -0.0085821801
0.3511717782 0.3592797753 0.0000000000 0.0000000000 0.0000000000 -191.2681844470 0.0125309924 -0.0085821801
0.3356806113 0.3729598541 0.0000000000 0.0000000000 0.0000000000 -193.5588998297 0.0125309924 -0.0085821801
0.3196373487 0.3859880747 0.0000000000 0.0000000000 0.0000000000 -196.2242456827 0.0125309924 -0.0085821801
0.3030694000 0.3983421786 0.0000000000 0.0000000000 0.0000000000 -199.3527653633 0.0125309924 -0.0085821801
0.2860050714 0.4100010591 0.0000000000 0.0000000000 0.0000000000 -202.9178131009 0.0125309924 -0.0085821801
0.2684735169 0.4209447972 0.0000000000 0.0000000000 0.0000000000 -206.9823254061 0.0125309924 -0.0085821801
0.2505046889 0.4311546956 0.0000000000 0.0000000000 0.0000000000 -211.5947148662 0.0125309924 -0.0085821801
0.2321292868 0.4406133109 0.0000000000 0.0000000000 0.0000000000 -216.8451771557 0.0125309924 -0.0085821801
0.2133787047 0.4493044833 0.0000000000 0.0000000000 0.0000000000 -222.8222653456 0.0125309924 -0.0085821801
0.1942849776 0.4572133640 0.0000000000 0.0000000000 0.0000000000 -229.6181279053 0.0125309924 -0.0085821801
0.1748807269 0.4643264408 0.0000000000 0.0000000000 0.0000000000 -237.3039276520 0.0125309924 -0.0085821801
0.1551991044 0.4706315612 0.0000000000 0.0000000000 0.0000000000 -245.9240161166 0.0125309924 -0.0085821801
0.1352737359 0.4761179529 0.0000000000 0.0000000000 0.0000000000 -255.4832156519 0.0125309924 -0.0085821801
0.1151386634 0.4807762426 0.0000000000 0.0000000000 0.0000000000 -265.9404941861 0.0125309924 -0.0085821801
0.0948282874 0.4845984717 0.0000000000 0.0000000000 0.0000000000 -277.2000160922 0.0125309924 -0.0085821801
0.0743773079 0.4875781098 0.0000000000 0.0000000000 0.0000000000 -289.1046101867 0.0125309924 -0.0085821801
0.0538206650 0.4897100665 0.0000000000 0.0000000000 0.0000000000 -301.4306313171 0.0125309924 -0.0085821801
0.0331934794 0.4909906991 0.0000000000 0.0000000000 0.0000000000 -313.8871061542 0.0125309924 -0.0085821801
0.0125309923 0.4914178199 0.0000000000 0.0000000000 0.0000000000 -326.1193809806 0.0125309924 -0.0085821801
-0.0081314948 0.4909906991 0.0000000000 0.0000000000 0.0000000000 -337.7179648309 0.0125309924 -0.0085821801
-0.0287586804 0.4897100664 0.0000000000 0.0000000000 0.0000000000 -348.2319610446 0.0125309924 -0.0085821801
-0.0493153233 0.4875781098 0.0000000000 0.0000000000 0.0000000000 -357.1862352827 0.0125309924 -0.0085821801
-0.0697663029 0.4845984716 0.0000000000 0.0000000000 0.0000000000 -364.1008593633 0.0125309924 -0.0085821801
-0.0900766788 0.4807762426 0.0000000000 0.0000000000 0.0000000000 -368.5112518403 0.0125309924 -0.0085821801
-0.1102117513 0.4761179529 0.0000000000 0.0000000000 0.0000000000 -369.9874141746 0.0125309924 -0.0085821801
-0.1301371198 0.4706315611 0.0000000000 0.0000000000 0.0000000000 -368.1509249174 0.0125309924 -0.0085821801
-0.1498187423 0.4643264408 0.0000000000 0.0000000000 0.0000000000 -362.6887227924 0.0125309924 -0.0085821801
-0.1692229930 0.4572133639 0.0000000000 0.0000000000 0.0000000000 -353.3631544004 0.0125309924 -0.0085821801
-0.1883167201 0.4493044832 0.0000000000 0.0000000000 0.0000000000 -340.0181760170 0.0125309924 -0.0085821801
-0.2070673021 0.4406133108 0.0000000000 0.0000000000 0.0000000000 -322.5819390586 0.0125309924 -0.0085821801
-0.2254427042 0.4311546955 0.0000000000 0.0000000000 0.0000000000 -301.0662194425 0.0125309924 -0.0085821801
-0.2434115323 0.4209447971 0.0000000000 0.0000000000 0.0000000000 -275.5632720836 0.0125309924 -0.0085821801
-0.2609430868 0.4100010590 0.0000000000 0.0000000000 0.0000000000 -246.2407163456 0.0125309924 -0.0085821801
-0.2780074154 0.3983421785 0.0000000000 0.0000000000 0.0000000000 -213.3350125844 0.0125309924 -0.0085821801
-0.2945753641 0.3859880746 0.0000000000 0.0000000000 0.0000000000 -177.1440030660 0.0125309924 -0.0085821801
-0.3106186266 0.3729598540 0.0000000000 0.0000000000 0.0000000000 -138.0188912482 0.0125309924 -0.0085821801
-0.3261097935 0.3592797752 0.0000000000 0.0000000000 0.0000000000 -96.3559449787 0.0125309924 -0.0085821801
-0.3553309630 0.3300586056 0.0000000000 0.0000000000 0.0000000000 -7.1769587560 0.0125309924 -0.0085821801
-0.3690110418 0.3145674388 0.0000000000 0.0000000000 0.0000000000 39.3955970800 0.0125309924 -0.0085821801
-0.3820392624 0.2985241762 0.0000000000 0.0000000000 0.0000000000 86.6344801192 0.0125309924 -0.0085821801
-0.3943933663 0.2819562275 0.0000000000 0.0000000000 0.0000000000 134.0386252526 0.0125309924 -0.0085821801
-0.4060522468 0.2648918989 0.0000000000 0.0000000000 0.0000000000 181.1073785578 0.0125309924 -0.0085821801
-0.4169959849 0.2473603443 0.0000000000 0.0000000000 0.0000000000 227.3463574166 0.0125309924 -0.0085821801
-0.4272058833 0.2293915163 0.0000000000 0.0000000000 0.0000000000 272.2727722669 0.0125309924 -0.0085821801
-0.4366644986 0.2110161142 0.0000000000 0.0000000000 0.0000000000 315.4202641515 0.0125309924 -0.0085821801
-0.4453556710 0.1922655321 0.0000000000 0.0000000000 0.0000000000 356.3433182658 0.0125309924 -0.0085821801
-0.4532645517 0.1731718051 0.0000000000 0.0000000000 0.0000000000 394.6212981992 0.0125309924 -0.0085821801
-0.4603776285 0.1537675544 0.0000000000 0.0000000000 0.0000000000 429.8621357928 0.0125309924 -0.0085821801
-0.4666827489 0.1340859319 0.0000000000 0.0000000000 0.0000000000 461.7056856149 0.0125309924 -0.0085821801
-0.4721691406 0.1141605633 0.0000000000 0.0000000000 0.0000000000 489.8267591983 0.0125309924 -0.0085821801
-0.4768274303 0.0940254909 0.0000000000 0.0000000000 0.0000000000 513.9378126274 0.0125309924 -0.0085821801
-0.4806496593 0.0737151149 0.0000000000 0.0000000000 0.0000000000 533.7913230284 0.0125309924 -0.0085821801
-0.4836292975 0.0532641354 0.0000000000 0.0000000000 0.0000000000 549.1817648788 0.0125309924 -0.0085821801
-0.4857612541 0.0327074925 0.0000000000 0.0000000000 0.0000000000 559.9473341957 0.0125309924 -0.0085821801
-0.4870418868 0.0120803069 0.0000000000 0.0000000000 0.0000000000 565.9711247604 0.0125309924 -0.0085821801
-0.4874690076 -0.0085821803 0.0000000000 0.0000000000 0.0000000000 567.1823022060 0.0125309924 -0.0085821801
-0.4870418868 -0.0292446674 0.0000000000 0.0000000000 0.0000000000 563.5562469082 0.0125309924 -0.0085821801
-0.4857612541 -0.0498718530 0.0000000000 0.0000000000 0.0000000000 555.1155881273 0.0125309924 -0.0085821801
-0.4836292974 -0.0704284959 0.0000000000 0.0000000000 0.0000000000 541.9285414123 0.0125309924 -0.0085821801
-0.4806496593 -0.0908794754 0.0000000000 0.0000000000 0.0000000000 524.1112342291 0.0125309924 -0.0085821801
-0.4768274302 -0.1111898514 0.0000000000 0.0000000000 0.0000000000 501.8215773198 0.0125309924 -0.0085821801
-0.4721691405 -0.1313249238 0.0000000000 0.0000000000 0.0000000000 475.2678242938 0.0125309924 -0.0085821801
-0.4666827488 -0.1512502924 0.0000000000 0.0000000000 0.0000000000 444.6887745483 0.0125309924 -0.0085821801
-0.4603776284 -0.1709319149 0.0000000000 0.0000000000 0.0000000000 410.3857140273 0.0125309924 -0.0085821801
-0.4532645515 -0.1903361655 0.0000000000 0.0000000000 0.0000000000 372.6569190115 0.0125309924 -0.0085821801
-0.4453556708 -0.2094298926 0.0000000000 0.0000000000 0.0000000000 331.9129764034 0.0125309924 -0.0085821801
-0.4366644984 -0.2281804747 0.0000000000 0.0000000000 0.0000000000 288.4528400846 0.0125309924 -0.0085821801
-0.4272058831 -0.2465558768 0.0000000000 0.0000000000 0.0000000000 242.8752903508 0.0125309924 -0.0085821801
-0.4169959847 -0.2645247048 0.0000000000 0.0000000000 0.0000000000 195.2933408098 0.0125309924 -0.0085821801
-0.4060522466 -0.2820562593 0.0000000000 0.0000000000 0.0000000000 146.8091192222 0.0125309924 -0.0085821801
-0.3943933661 -0.2991205880 0.0000000000 0.0000000000 0.0000000000 96.7038099643 0.0125309924 -0.0085821801
-0.3820392622 -0.3156885366 0.0000000000 0.0000000000 0.0000000000 47.7577002731 0.0125309924 -0.0085821801
-0.3690110415 -0.3317317992 0.0000000000 0.0000000000 0.0000000000 -3.7645962599 0.0125309924 -0.0085821801
-0.3553309628 -0.3472229661 0.0000000000 0.0000000000 0.0000000000 -49.5284260055 0.0125309924 -0.0085821801
-0.3261097932 -0.3764441356 0.0000000000 0.0000000000 0.0000000000 -144.1765956863 0.0125309924 -0.0085821801
-0.3106186263 -0.3901242143 0.0000000000 0.0000000000 0.0000000000 -191.6141667417 0.0125309924 -0.0085821801
-0.2945753637 -0.4031524349 0.0000000000 0.0000000000 0.0000000000 -230.7880617471 0.0125309924 -0.0085821801
-0.2780074151 -0.4155065388 0.0000000000 0.0000000000 0.0000000000 -270.8212729248 0.0125309924 -0.0085821801
-0.2609430864 -0.4271654193 0.0000000000 0.0000000000 0.0000000000 -305.1866791450 0.0125309924 -0.0085821801
-0.2434115319 -0.4381091574 0.0000000000 0.0000000000 0.0000000000 -337.2605625269 0.0125309924 -0.0085821801
-0.2254427039 -0.4483190558 0.0000000000 0.0000000000 0.0000000000 -364.6013067632 0.0125309924 -0.0085821801
-0.2070673018 -0.4577776711 0.0000000000 0.0000000000 0.0000000000 -388.2991019371 0.0125309924 -0.0085821801
-0.1883167197 -0.4664688435 0.0000000000 0.0000000000 0.0000000000 -407.4753145267 0.0125309924 -0.0085821801
-0.1692229926 -0.4743777242 0.0000000000 0.0000000000 0.0000000000 -422.5339675967 0.0125309924 -0.0085821801
-0.1498187419 -0.4814908010 0.0000000000 0.0000000000 0.0000000000 -433.2518417308 0.0125309924 -0.0085821801
-0.1301371195 -0.4877959214 0.0000000000 0.0000000000 0.0000000000 -439.9097001773 0.0125309924 -0.0085821801
-0.1102117509 -0.4932823131 0.0000000000 0.0000000000 0.0000000000 -442.6260998455 0.0125309924 -0.0085821801
-0.0900766784 -0.4979406028 0.0000000000 0.0000000000 0.0000000000 -441.7441989609 0.0125309924 -0.0085821801
-0.0697663025 -0.5017628318 0.0000000000 0.0000000000 0.0000000000 -437.5947282426 0.0125309924 -0.0085821801
-0.0493153229 -0.5047424700 0.0000000000 0.0000000000 0.0000000000 -430.6176398792 0.0125309924 -0.0085821801
-0.0287586800 -0.5068744266 0.0000000000 0.0000000000 0.0000000000 -421.2692967874 0.0125309924 -0.0085821801
-0.0081314944 -0.5081550593 0.0000000000 0.0000000000 0.0000000000 -410.0488173467 0.0125309924 -0.0085821801
0.0125309927 -0.5085821801 0.0000000000 0.0000000000 0.0000000000 -397.4525880716 0.0125309924 -0.0085821801
0.0331934798 -0.5081550592 0.0000000000 0.0000000000 0.0000000000 -383.9685161717 0.0125309924 -0.0085821801
0.0538206654 -0.5068744265 0.0000000000 0.0000000000 0.0000000000 -370.0489606864 0.0125309924 -0.0085821801
0.0743773083 -0.5047424699 0.0000000000 0.0000000000 0.0000000000 -356.0992552264 0.0125309924 -0.0085821801
0.0948282878 -0.5017628317 0.0000000000 0.0000000000 0.0000000000 -342.4632245176 0.0125309924 -0.0085821801
0.1151386638 -0.4979406026 0.0000000000 0.0000000000 0.0000000000 -329.4174885276 0.0125309924 -0.0085821801
0.1352737363 -0.4932823129 0.0000000000 0.0000000000 0.0000000000 -317.1685127639 0.0125309924 -0.0085821801
0.1551991048 -0.4877959212 0.0000000000 0.0000000000 0.0000000000 -305.8556338143 0.0125309924 -0.0085821801
0.1748807273 -0.4814908008 0.0000000000 0.0000000000 0.0000000000 -295.5567064878 0.0125309924 -0.0085821801
0.1942849780 -0.4743777240 0.0000000000 0.0000000000 0.0000000000 -286.2976773059 0.0125309924 -0.0085821801
0.2133787050 -0.4664688432 0.0000000000 0.0000000000 0.0000000000 -278.0613033907 0.0125309924 -0.0085821801
0.2321292871 -0.4577776708 0.0000000000 0.0000000000 0.0000000000 -270.8009425969 0.0125309924 -0.0085821801
0.2505046892 -0.4483190555 0.0000000000 0.0000000000 0.0000000000 -264.4453408965 0.0125309924 -0.0085821801
0.2684735172 -0.4381091571 0.0000000000 0.0000000000 0.0000000000 -258.9222255484 0.0125309924 -0.0085821801
0.2860050717 -0.4271654190 0.0000000000 0.0000000000 0.0000000000 -254.1387655585 0.0125309924 -0.0085821801
0.3030694004 -0.4155065385 0.0000000000 0.0000000000 0.0000000000 -250.0454086290 0.0125309924 -0.0085821801
0.3196373490 -0.4031524345 0.0000000000 0.0000000000 0.0000000000 -246.5084080303 0.0125309924 -0.0085821801
0.3356806116 -0.3901242139 0.0000000000 0.0000000000 0.0000000000 -243.5813074127 0.0125309924 -0.0085821801
0.3511717785 -0.3764441351 0.0000000000 0.0000000000 0.0000000000 -240.9118321377 0.0125309924 -0.0085821801
0.5625504567 -0.5188860710 0.0000000000 0.0538372866 -0.0505623237 -232.1405404103 0.0127615524 -0.0087565181
0.5812246663 -0.4979723339 0.0000000000 0.0270886153 -0.0557631634 -231.7896236683 0.0127458736 -0.0087567759
0.5991053963 -0.4763765257 0.0000000000 0.0079934564 -0.0615372563 -231.4641282010 0.0127317841 -0.0087591747
0.6161655502 -0.4541271795 0.0000000000 -0.0053314520 -0.0673550688 -231.1201050963 0.0127172150 -0.0087620407
0.6323805547 -0.4312549116 0.0000000000 -0.0145706476 -0.0727745309 -230.7141516447 0.0127014737 -0.0087648685
0.6477274615 -0.4077915495 0.0000000000 -0.0211022555 -0.0774562586 -230.2071881350 0.0126843118 -0.0087674925
0.6621847416 -0.3837698741 0.0000000000 -0.0259700541 -0.0811616181 -229.5662144071 0.0126656886 -0.0087698745
0.6757322280 -0.3592234968 0.0000000000 -0.0299108263 -0.0837391086 -228.7649965462 0.0126456827 -0.0087720260
0.6883510972 -0.3341867782 0.0000000000 -0.0334082986 -0.0851062999 -227.7840962050 0.0126244461 -0.0087739743
0.7000238669 -0.3086947639 0.0000000000 -0.0367520861 -0.0852325307 -226.6107813633 0.0126021748 -0.0087757461
0.7107344013 -0.2827831286 0.0000000000 -0.0400898759 -0.0841249579 -225.2390309398 0.0125790897 -0.0087773607
0.7204679223 -0.2564881225 0.0000000000 -0.0434688894 -0.0818185215 -223.6696132141 0.0125554244 -0.0087788264
0.7292110215 -0.2298465193 0.0000000000 -0.0468670996 -0.0783693229 -221.9101126114 0.0125314171 -0.0087801388
0.7369516741 -0.2028955636 0.0000000000 -0.0502163882 -0.0738505487 -219.9747669113 0.0125073043 -0.0087812801
0.7436792506 -0.1756729185 0.0000000000 -0.0534199845 -0.0683500867 -217.8840102450 0.0124833164 -0.0087822184
0.7493845285 -0.1482166131 0.0000000000 -0.0563660438 -0.0619691379 -215.6636676266 0.0124596735 -0.0087829081
0.7540597023 -0.1205649894 0.0000000000 -0.0589386295 -0.0548213050 -213.3438007977 0.0124365825 -0.0087832901
0.7576983917 -0.0927566505 0.0000000000 -0.0610268560 -0.0470318002 -210.9572562354 0.0124142342 -0.0087832937
0.7602956494 -0.0648304074 0.0000000000 -0.0625325987 -0.0387365500 -208.5380097184 0.0123928015 -0.0087828376
0.7618479667 -0.0368252281 0.0000000000 -0.0633769483 -0.0300810862 -206.1194339823 0.0123724381 -0.0087818327
0.7623532779 -0.0087801849 0.0000000000 -0.0635054608 -0.0212191975 -203.7326335542 0.0123532779 -0.0087801852
0.7618109631 0.0192655964 0.0000000000 -0.0628921968 -0.0123113749 -201.4049919208 0.0123354346 -0.0087777996
0.7602218498 0.0472729879 0.0000000000 -0.0615425248 -0.0035231093 -199.1590605867 0.0123190020 -0.0087745826
0.7575882125 0.0752029108 0.0000000000 -0.0594946732 0.0049769116 -197.0118894965 0.0123040551 -0.0087704466
0.7539137714 0.1030163863 0.0000000000 -0.0568200202 0.0130187118 -194.9748575863 0.0122906517 -0.0087653136
0.7492036895 0.1306745867 0.0000000000 -0.0536221015 0.0204331304 -193.0540159967 0.0122788347 -0.0087591189
0.7434645687 0.1581388869 0.0000000000 -0.0500342618 0.0270543239 -191.2509096248 0.0122686347 -0.0087518138
0.7367044436 0.1853709153 0.0000000000 -0.0462157504 0.0327229932 -189.5637995991 0.0122600739 -0.0087433688
0.7289327741 0.2123326065 0.0000000000 -0.0423458265 0.0372907772 -187.9891735019 0.0122531698 -0.0087337745
0.7201604363 0.2389862538 0.0000000000 -0.0386150168 0.0406263532 -186.5234049287 0.0122479386 -0.0087230428
0.7103997104 0.2652945630 0.0000000000 -0.0352119672 0.0426238502 -185.1644134952 0.0122443989 -0.0087112054
0.6996642664 0.2912207073 0.0000000000 -0.0323032703 0.0432142375 -183.9131888655 0.0122425746 -0.0086983111
0.6879691457 0.3167283838 0.0000000000 -0.0300022999 0.0423803169 -182.7750912875 0.0122424949 -0.0086844207
0.6753307372 0.3417818706 0.0000000000 -0.0283220621 0.0401756544 -181.7609320241 0.0122441921 -0.0086696008
0.6617667462 0.3663460843 0.0000000000 -0.0271079470 0.0367467118 -180.8879181611 0.0122476934 -0.0086539158
0.6472961548 0.3903866358 0.0000000000 -0.0259517294 0.0323549200 -180.1804372641 0.0122530054 -0.0086374217
0.6319391730 0.4138698804 0.0000000000 -0.0241005491 0.0273911729 -179.6700889484 0.0122600923 -0.0086201633
0.6157171839 0.4367629590 0.0000000000 -0.0203921312 0.0223706744 -179.3933517084 0.0122688492 -0.0086021803
0.5986526829 0.4590338252 0.0000000000 -0.0132602874 0.0178954214 -179.3846562235 0.0122790711 -0.0085835263
0.5807691852 0.4806512430 0.0000000000 -0.0008465362 0.0145803287 -179.6640708229 0.0122903929 -0.0085643155
0.5620910131 0.5015847290 0.0000000000 0.0187828649 0.0129584508 -180.2192712402 0.0123021093 -0.0085448244
0.5202840542 0.5432850431 0.0000000000 0.0911236197 0.0165774215 -182.0861513711 0.0123228755 -0.0085078900
0.4970589017 0.5638203274 0.0000000000 0.1485509741 0.0226150249 -183.2355861862 0.0123344734 -0.0084927238
0.4730075933 0.5833765386 0.0000000000 0.2198203271 0.0315977390 -184.3894566578 0.0123480588 -0.0084788435
0.4481711991 0.6019206568 0.0000000000 0.3041595979 0.0436843454 -185.5398990215 0.0123635876 -0.0084658812
0.4225919146 0.6194211645 0.0000000000 0.3996523198 0.0590760224 -186.7447711407 0.0123807961 -0.0084536942
0.3963131284 0.6358481802 0.0000000000 0.5030581872 0.0778180670 -188.1014701628 0.0123993416 -0.0084422857
0.3693794225 0.6511735690 0.0000000000 0.6098959430 0.0995862319 -189.7025608527 0.0124188779 -0.0084317445
0.3418365248 0.6653710292 0.0000000000 0.7149538585 0.1236090327 -191.5870848753 0.0124390833 -0.0084222073
0.3137312387 0.6784161663 0.0000000000 0.8131266338 0.1487792027 -193.7100035564 0.0124596703 -0.0084138288
0.2851113641 0.6902865527 0.0000000000 0.9002710290 0.1738908106 -195.9472231558 0.0124803863 -0.0084067634
0.2560256135 0.7009617759 0.0000000000 0.9737772789 0.1978894529 -198.1299633990 0.0125010118 -0.0084011554
0.2265235277 0.7104234779 0.0000000000 1.0327189187 0.2200467814 -200.0848631136 0.0125213597 -0.0083971339
0.1966553903 0.7186553905 0.0000000000 1.0776275369 0.2400242882 -201.6607957339 0.0125412751 -0.0083948090
0.1664721419 0.7256433654 0.0000000000 1.1100458486 0.2578381050 -202.7377216941 0.0125606354 -0.0083942686
0.1360252928 0.7313754014 0.0000000000 1.1320281989 0.2737619074 -203.2221886851 0.0125793502 -0.0083955761
0.1053668334 0.7358416672 0.0000000000 1.1457140324 0.2882094163 -203.0362537389 0.0125973601 -0.0083987677
0.0745491432 0.7390345188 0.0000000000 1.1530362200 0.3016286853 -202.1055025432 0.0126146343 -0.0084038510
0.0436248973 0.7409485136 0.0000000000 1.1555704841 0.3144255930 -200.3499319768 0.0126311668 -0.0084108052
0.0126469709 0.7415804189 0.0000000000 1.1544976934 0.3269202800 -197.6794467894 0.0126469711 -0.0084195811
-0.0183316572 0.7409292164 0.0000000000 1.1506383420 0.3393312810 -193.9939675655 0.0126620737 -0.0084301023
-0.0492580017 0.7389961037 0.0000000000 1.1445217299 0.3517784329 -189.1870063328 0.0126765076 -0.0084422660
-0.0800791688 0.7357844904 0.0000000000 1.1364629399 0.3642958831 -183.1511584707 0.0126903048 -0.0084559444
-0.1107424531 0.7312999915 0.0000000000 1.1266322290 0.3768487143 -175.7841205640 0.0127034897 -0.0084709860
-0.1411954339 0.7255504161 0.0000000000 1.1151104753 0.3893492691 -166.9942799195 0.0127160729 -0.0084872178
-0.1713860700 0.7185457523 0.0000000000 1.1019299557 0.4016713324 -156.7053795688 0.0127280455 -0.0085044471
-0.2012627937 0.7102981471 0.0000000000 1.0871024876 0.4136616795 -144.8601063015 0.0127393747 -0.0085224647
-0.2307746018 0.7008218835 0.0000000000 1.0706378378 0.4251491971 -131.4226482899 0.0127500003 -0.0085410477
-0.2598711461 0.6901333530 0.0000000000 1.0525551559 0.4359520513 -116.3803523302 0.0127598320 -0.0085599630
-0.2885028211 0.6782510245 0.0000000000 1.0328896512 0.4458833971 -99.7446243926 0.0127687476 -0.0085789704
-0.3166208498 0.6651954114 0.0000000000 1.0116961293 0.4547560397 -81.5511994146 0.0127765920 -0.0085978250
-0.3441773696 0.6509890346 0.0000000000 0.9890504920 0.4623863449 -61.8598807138 0.0127831753 -0.0086162787
-0.3711255174 0.6356563863 0.0000000000 0.9650499217 0.4685975956 -40.7538273065 0.0127882695 -0.0086340794
-0.3974195204 0.6192238940 0.0000000000 0.9398122062 0.4732229097 -18.3384498479 0.0127915983 -0.0086509646
-0.4230148019 0.6017198944 0.0000000000 0.9134744952 0.4761077762 5.2600302823 0.0127928098 -0.0086666435
-0.4478681341 0.5831746379 0.0000000000 0.8861916615 0.4771122022 29.8963514225 0.0127914006 -0.0086807440
-0.4719379521 0.5636204152 0.0000000000 0.8581344507 0.4761123716 55.4081659265 0.0127864764 -0.0086926358
-0.4951853188 0.5430922355 0.0000000000 0.8294873865 0.4730009902 81.6191604911 0.0127758601 -0.0087006973
-0.5390330562 0.4992363395 0.0000000000 0.7712150086 0.4601519165 135.3519926112 0.0127598769 -0.0087248390
-0.5595582284 0.4759818869 0.0000000000 0.7419998422 0.4503094716 162.4696567637 0.0127548229 -0.0087425413
-0.5791114002 0.4519023584 0.0000000000 0.7130207379 0.4381407141 189.4742496251 0.0127439820 -0.0087571760
-0.5976570715 0.4270375952 0.0000000000 0.6844951217 0.4236491301 216.1480389518 0.0127294666 -0.0087700161
-0.6151627290 0.4014295581 0.0000000000 0.6566400552 0.4068580957 242.2735878148 0.0127121298 -0.0087815603
-0.6315979932 0.3751216999 0.0000000000 0.6296696004 0.3878122044 267.6358568425 0.0126924727 -0.0087920867
-0.6469344287 0.3481587586 0.0000000000 0.6037927552 0.3665769164 292.0243259992 0.0126708848 -0.0088017859
-0.6611455170 0.3205866422 0.0000000000 0.5792113856 0.3432379134 315.2351397673 0.0126477196 -0.0088107992
-0.6742066751 0.2924523367 0.0000000000 0.5561183023 0.3179001930 337.0731550061 0.0126233200 -0.0088192315
-0.6860952885 0.2638038217 0.0000000000 0.5346954675 0.2906869738 357.3538627228 0.0125980276 -0.0088271560
-0.6967907486 0.2346899861 0.0000000000 0.5151123516 0.2617384401 375.9051640889 0.0125721828 -0.0088346155
-0.7062744893 0.2051605439 0.0000000000 0.4975244504 0.2312103481 392.5689881168 0.0125461226 -0.0088416240
-0.7145300225 0.1752659475 0.0000000000 0.4820719741 0.1992725129 407.2027423004 0.0125201770 -0.0088481675
-0.7215429700 0.1450573001 0.0000000000 0.4688787119 0.1661071872 419.6805908914 0.0124946641 -0.0088542063
-0.7273010908 0.1145862653 0.0000000000 0.4580510566 0.1319073355 429.8945557869 0.0124698868 -0.0088596771
-0.7317943051 0.0839049763 0.0000000000 0.4496771528 0.0968748188 437.7554310102 0.0124461297 -0.0088644969
-0.7350147127 0.0530659419 0.0000000000 0.4438261362 0.0612185165 443.1934981384 0.0124236571 -0.0088685669
-0.7369566068 0.0221219520 0.0000000000 0.4405474620 0.0251524331 446.1590361106 0.0124027120 -0.0088717784
-0.7376164835 -0.0088740186 0.0000000000 0.4398703730 -0.0111061688 446.6226347826 0.0123835165 -0.0088740183
-0.7369930466 -0.0398689079 0.0000000000 0.4418035803 -0.0473385921 444.5753401766 0.0123662721 -0.0088751769
-0.7350872084 -0.0708096642 0.0000000000 0.4463351848 -0.0833264889 440.0286472226 0.0123511613 -0.0088751548
-0.7319020859 -0.1016433444 0.0000000000 0.4534328637 -0.1188536130 433.0143516467 0.0123383489 -0.0088738706
-0.7274429920 -0.1323172111 0.0000000000 0.4630443427 -0.1537075634 423.5842698396 0.0123279855 -0.0088712681
-0.7217174223 -0.1627788294 0.0000000000 0.4750980971 -0.1876815443 411.8098058528 0.0123202117 -0.0088673225