 TITLE = "Tecplot data"
 VARIABLES = "X", "Y", "Z" "U", "V", "p", "dispX", "dispY"
 ZONE SOLUTIONTIME=96.900000, NODES=26114 , ELEMENTS=25916, DATAPACKING=POINT, ZONETYPE=FEQUADRILATERAL
0.8437502272 -2.6380231537 0.0000000000 0.0000000000 0.0000000000 -103.6175448068 0.4901968367 -2.9915765444
0.8437502275 -3.3451299347 0.0000000000 0.0000000000 0.0000000000 -4767.8040849633 0.4901968367 -2.9915765444
0.1366434460 -2.6380231539 0.0000000000 0.0000000000 0.0000000000 515.1048098378 0.4901968367 -2.9915765444
0.1366434463 -3.3451299352 0.0000000000 0.0000000000 0.0000000000 -322.8213287779 0.4901968367 -2.9915765444
1.0099196317 -2.4563097577 0.0000000000 0.1920158726 -0.1941488716 -87.1417081949 0.4795895459 -2.9866398436
1.0109077682 -3.6212946848 0.0000000000 1.2820256574 0.4036739331 -995.4647285312 0.4805776819 -3.0909645993
-0.0719147377 -2.5396049365 0.0000000000 0.1532591264 0.0284895972 583.2536275110 0.4584153483 -3.0699350222
-0.0140074235 -3.5714886624 0.0000000000 1.4939981156 -0.9191834279 -151.2555949192 0.5163226621 -3.0411585763
1.5014732043 -1.9686261521 0.0000000000 0.3697431624 -0.2178633421 -71.8425547017 0.4408130326 -3.0292863239
1.5788917544 -4.1274663236 0.0000000000 1.1572401328 -0.0973249814 -389.7216298940 0.5182315819 -3.0668061526
-0.6721194620 -2.2009588356 0.0000000000 0.5177540702 -0.2915980963 485.1477855979 0.3885407101 -3.2616190070
-0.4938322471 -4.2634337023 0.0000000000 1.1984419274 -0.3971059498 55.0465184782 0.5668279242 -3.2027735300
4.3706985765 0.6452147035 0.0000000000 0.2756448968 0.0813023286 -160.6900344936 0.1706985765 -2.6547852965
4.9362879185 -5.9461463642 0.0000000000 1.2743110400 -0.0440787370 -180.3329495324 0.7362879185 -2.6461463642
20.0000000000 4.7000000000 0.0000000000 1.2129517271 0.1030716060 1.4890667392 0.0000000000 0.0000000000
20.0000000000 -4.7000000000 0.0000000000 0.9590900351 0.0686648852 0.1477506230 0.0000000000 0.0000000000
-10.0000000000 15.0000000000 0.0000000000 1.0000000000 0.0000000000 116.7536069312 0.0000000000 0.0000000000
20.0000000000 15.0000000000 0.0000000000 1.0594393660 0.0000000000 -0.0311398909 0.0000000000 0.0000000000
20.0000000000 -15.0000000000 0.0000000000 1.0452171031 0.0000000000 0.0280499115 0.0000000000 0.0000000000
-10.0000000000 -15.0000000000 0.0000000000 1.0000000000 0.0000000000 65.8586787855 0.0000000000 0.0000000000
0.8567227728 -3.3316629130 0.0000000000 0.0000000000 0.0000000000 -1869.9308567992 0.4901968367 -2.9915765444
0.8691826985 -3.3177202498 0.0000000000 0.0000000000 0.0000000000 -2289.6984251945 0.4901968367 -2.9915765444
0.8811125781 -3.3033214450 0.0000000000 0.0000000000 0.0000000000 -2149.4102716621 0.4901968367 -2.9915765444
0.8924957268 -3.2884866369 0.0000000000 0.0000000000 0.0000000000 -2065.5807501872 0.4901968367 -2.9915765444
0.9033162240 -3.2732365731 0.0000000000 0.0000000000 0.0000000000 -1991.9809841023 0.4901968367 -2.9915765444
0.9135589365 -3.2575925824 0.0000000000 0.0000000000 0.0000000000 -1904.3511619219 0.4901968367 -2.9915765444
0.9232095387 -3.2415765441 0.0000000000 0.0000000000 0.0000000000 -1823.7140855701 0.4901968367 -2.9915765444
0.9322545336 -3.2252108582 0.0000000000 0.0000000000 0.0000000000 -1736.1493034562 0.4901968367 -2.9915765444
0.9406812708 -3.2085184137 0.0000000000 0.0000000000 0.0000000000 -1652.8844048960 0.4901968367 -2.9915765444
0.9484779647 -3.1915225563 0.0000000000 0.0000000000 0.0000000000 -1566.5325827101 0.4901968367 -2.9915765444
0.9556337111 -3.1742470563 0.0000000000 0.0000000000 0.0000000000 -1482.6932465217 0.4901968367 -2.9915765444
0.9621385019 -3.1567160751 0.0000000000 0.0000000000 0.0000000000 -1402.8602547091 0.4901968367 -2.9915765444
0.9679832397 -3.1389541313 0.0000000000 0.0000000000 0.0000000000 -1298.7721723786 0.4901968367 -2.9915765444
0.9731597499 -3.1209860667 0.0000000000 0.0000000000 0.0000000000 -1269.7925254806 0.4901968367 -2.9915765444
0.9776607928 -3.1028370111 0.0000000000 0.0000000000 0.0000000000 -1127.4232961163 0.4901968367 -2.9915765444
0.9814800733 -3.0845323477 0.0000000000 0.0000000000 0.0000000000 -1103.8396076796 0.4901968367 -2.9915765444
0.9846122498 -3.0660976772 0.0000000000 0.0000000000 0.0000000000 -1008.9461067116 0.4901968367 -2.9915765444
0.9870529417 -3.0475587822 0.0000000000 0.0000000000 0.0000000000 -937.5309242234 0.4901968367 -2.9915765444
0.9887987353 -3.0289415910 0.0000000000 0.0000000000 0.0000000000 -866.8899403347 0.4901968367 -2.9915765444
0.9898471891 -3.0102721413 0.0000000000 0.0000000000 0.0000000000 -800.7942363174 0.4901968367 -2.9915765444
0.9901968367 -2.9915765442 0.0000000000 0.0000000000 0.0000000000 -739.9798320047 0.4901968367 -2.9915765444
0.9898471891 -2.9728809470 0.0000000000 0.0000000000 0.0000000000 -682.3874041018 0.4901968367 -2.9915765444
0.9887987353 -2.9542114974 0.0000000000 0.0000000000 0.0000000000 -627.9232951664 0.4901968367 -2.9915765444
0.9870529416 -2.9355943061 0.0000000000 0.0000000000 0.0000000000 -577.3866136626 0.4901968367 -2.9915765444
0.9846122498 -2.9170554111 0.0000000000 0.0000000000 0.0000000000 -530.0222613276 0.4901968367 -2.9915765444
0.9814800733 -2.8986207406 0.0000000000 0.0000000000 0.0000000000 -485.6116494364 0.4901968367 -2.9915765444
0.9776607927 -2.8803160772 0.0000000000 0.0000000000 0.0000000000 -444.3504941606 0.4901968367 -2.9915765444
0.9731597498 -2.8621670217 0.0000000000 0.0000000000 0.0000000000 -405.4230997508 0.4901968367 -2.9915765444
0.9679832395 -2.8441989570 0.0000000000 0.0000000000 0.0000000000 -370.0125690635 0.4901968367 -2.9915765444
0.9621385018 -2.8264370133 0.0000000000 0.0000000000 0.0000000000 -336.6297341559 0.4901968367 -2.9915765444
0.9556337110 -2.8089060321 0.0000000000 0.0000000000 0.0000000000 -300.1172456512 0.4901968367 -2.9915765444
0.9484779646 -2.7916305321 0.0000000000 0.0000000000 0.0000000000 -279.4327087333 0.4901968367 -2.9915765444
0.9406812706 -2.7746346747 0.0000000000 0.0000000000 0.0000000000 -249.1865145467 0.4901968367 -2.9915765444
0.9322545334 -2.7579422301 0.0000000000 0.0000000000 0.0000000000 -227.3736577476 0.4901968367 -2.9915765444
0.9232095385 -2.7415765443 0.0000000000 0.0000000000 0.0000000000 -207.8091594282 0.4901968367 -2.9915765444
0.9135589362 -2.7255605060 0.0000000000 0.0000000000 0.0000000000 -187.8772655263 0.4901968367 -2.9915765444
0.9033162238 -2.7099165153 0.0000000000 0.0000000000 0.0000000000 -172.2738997252 0.4901968367 -2.9915765444
0.8924957265 -2.6946664515 0.0000000000 0.0000000000 0.0000000000 -155.3260046782 0.4901968367 -2.9915765444
0.8811125779 -2.6798316434 0.0000000000 0.0000000000 0.0000000000 -142.6683231849 0.4901968367 -2.9915765444
0.8691826982 -2.6654328387 0.0000000000 0.0000000000 0.0000000000 -127.8104729539 0.4901968367 -2.9915765444
0.8567227726 -2.6514901754 0.0000000000 0.0000000000 0.0000000000 -116.4052242923 0.4901968367 -2.9915765444
0.8288376225 -2.6237145890 0.0000000000 0.0000000000 0.0000000000 -91.0962745247 0.4901968367 -2.9915765444
0.8133464556 -2.6100345102 0.0000000000 0.0000000000 0.0000000000 -78.0163314359 0.4901968367 -2.9915765444
0.7973031930 -2.5970062896 0.0000000000 0.0000000000 0.0000000000 -65.5547484855 0.4901968367 -2.9915765444
0.7807352443 -2.5846521857 0.0000000000 0.0000000000 0.0000000000 -52.7349074059 0.4901968367 -2.9915765444
0.7636709157 -2.5729933052 0.0000000000 0.0000000000 0.0000000000 -40.0789382507 0.4901968367 -2.9915765444
0.7461393612 -2.5620495672 0.0000000000 0.0000000000 0.0000000000 -27.1075593694 0.4901968367 -2.9915765444
0.7281705331 -2.5518396687 0.0000000000 0.0000000000 0.0000000000 -14.0819896622 0.4901968367 -2.9915765444
0.7097951310 -2.5423810534 0.0000000000 0.0000000000 0.0000000000 -0.7718899373 0.4901968367 -2.9915765444
0.6910445489 -2.5336898810 0.0000000000 0.0000000000 0.0000000000 12.7020766317 0.4901968367 -2.9915765444
0.6719508219 -2.5257810003 0.0000000000 0.0000000000 0.0000000000 26.4549663641 0.4901968367 -2.9915765444
0.6525465712 -2.5186679235 0.0000000000 0.0000000000 0.0000000000 40.4321922854 0.4901968367 -2.9915765444
0.6328649487 -2.5123628031 0.0000000000 0.0000000000 0.0000000000 54.6909553036 0.4901968367 -2.9915765444
0.6129395802 -2.5068764114 0.0000000000 0.0000000000 0.0000000000 69.2072919890 0.4901968367 -2.9915765444
0.5928045077 -2.5022181217 0.0000000000 0.0000000000 0.0000000000 84.0096969071 0.4901968367 -2.9915765444
0.5724941317 -2.4983958927 0.0000000000 0.0000000000 0.0000000000 99.0882368727 0.4901968367 -2.9915765444
0.5520431522 -2.4954162545 0.0000000000 0.0000000000 0.0000000000 114.4570230128 0.4901968367 -2.9915765444
0.5314865093 -2.4932842979 0.0000000000 0.0000000000 0.0000000000 130.1120559137 0.4901968367 -2.9915765444
0.5108593237 -2.4920036652 0.0000000000 0.0000000000 0.0000000000 146.0598915546 0.4901968367 -2.9915765444
0.4901968366 -2.4915765444 0.0000000000 0.0000000000 0.0000000000 162.2983860748 0.4901968367 -2.9915765444
0.4695343495 -2.4920036652 0.0000000000 0.0000000000 0.0000000000 178.8295741776 0.4901968367 -2.9915765444
0.4489071638 -2.4932842979 0.0000000000 0.0000000000 0.0000000000 195.6509488884 0.4901968367 -2.9915765444
0.4283505209 -2.4954162545 0.0000000000 0.0000000000 0.0000000000 212.7610920202 0.4901968367 -2.9915765444
0.4078995414 -2.4983958927 0.0000000000 0.0000000000 0.0000000000 230.1556840122 0.4901968367 -2.9915765444
0.3875891655 -2.5022181217 0.0000000000 0.0000000000 0.0000000000 247.8298472431 0.4901968367 -2.9915765444
0.3674540930 -2.5068764114 0.0000000000 0.0000000000 0.0000000000 265.7762113339 0.4901968367 -2.9915765444
0.3475287244 -2.5123628032 0.0000000000 0.0000000000 0.0000000000 283.9857829981 0.4901968367 -2.9915765444
0.3278471020 -2.5186679236 0.0000000000 0.0000000000 0.0000000000 302.4468241801 0.4901968367 -2.9915765444
0.3084428513 -2.5257810004 0.0000000000 0.0000000000 0.0000000000 321.1451125580 0.4901968367 -2.9915765444
0.2893491242 -2.5336898811 0.0000000000 0.0000000000 0.0000000000 340.0629634493 0.4901968367 -2.9915765444
0.2705985421 -2.5423810535 0.0000000000 0.0000000000 0.0000000000 359.1794433382 0.4901968367 -2.9915765444
0.2522231400 -2.5518396688 0.0000000000 0.0000000000 0.0000000000 378.4688770938 0.4901968367 -2.9915765444
0.2342543120 -2.5620495673 0.0000000000 0.0000000000 0.0000000000 397.9019091852 0.4901968367 -2.9915765444
0.2167227575 -2.5729933053 0.0000000000 0.0000000000 0.0000000000 417.4418916007 0.4901968367 -2.9915765444
0.1996584289 -2.5846521858 0.0000000000 0.0000000000 0.0000000000 437.0501584828 0.4901968367 -2.9915765444
0.1830904802 -2.5970062898 0.0000000000 0.0000000000 0.0000000000 456.6720992143 0.4901968367 -2.9915765444
0.1670472176 -2.6100345104 0.0000000000 0.0000000000 0.0000000000 476.2709365221 0.4901968367 -2.9915765444
0.1515560508 -2.6237145891 0.0000000000 0.0000000000 0.0000000000 495.7324118730 0.4901968367 -2.9915765444
0.1223348812 -2.6529357587 0.0000000000 0.0000000000 0.0000000000 534.0728722936 0.4901968367 -2.9915765444
0.1086548025 -2.6684269256 0.0000000000 0.0000000000 0.0000000000 552.7949348487 0.4901968367 -2.9915765444
0.0956265819 -2.6844701882 0.0000000000 0.0000000000 0.0000000000 570.9220509887 0.4901968367 -2.9915765444
0.0832724780 -2.7010381368 0.0000000000 0.0000000000 0.0000000000 588.8618462925 0.4901968367 -2.9915765444
0.0716135975 -2.7181024655 0.0000000000 0.0000000000 0.0000000000 605.5289420842 0.4901968367 -2.9915765444
0.0606698594 -2.7356340200 0.0000000000 0.0000000000 0.0000000000 621.0110168017 0.4901968367 -2.9915765444
0.0504599610 -2.7536028480 0.0000000000 0.0000000000 0.0000000000 635.9115688167 0.4901968367 -2.9915765444
0.0410013457 -2.7719782501 0.0000000000 0.0000000000 0.0000000000 649.4584019069 0.4901968367 -2.9915765444
0.0323101733 -2.7907288322 0.0000000000 0.0000000000 0.0000000000 661.8691006925 0.4901968367 -2.9915765444
0.0244012926 -2.8098225593 0.0000000000 0.0000000000 0.0000000000 673.3569727925 0.4901968367 -2.9915765444
0.0172882158 -2.8292268099 0.0000000000 0.0000000000 0.0000000000 683.8290956834 0.4901968367 -2.9915765444
0.0109830954 -2.8489084324 0.0000000000 0.0000000000 0.0000000000 692.8718303034 0.4901968367 -2.9915765444
0.0054967037 -2.8688338010 0.0000000000 0.0000000000 0.0000000000 701.1221679053 0.4901968367 -2.9915765444
0.0008384140 -2.8889688735 0.0000000000 0.0000000000 0.0000000000 706.8808174832 0.4901968367 -2.9915765444
-0.0029838150 -2.9092792494 0.0000000000 0.0000000000 0.0000000000 710.1541227821 0.4901968367 -2.9915765444
-0.0059634532 -2.9297302289 0.0000000000 0.0000000000 0.0000000000 710.4140627196 0.4901968367 -2.9915765444
-0.0080954098 -2.9502868718 0.0000000000 0.0000000000 0.0000000000 706.4923888345 0.4901968367 -2.9915765444
-0.0093760425 -2.9709140575 0.0000000000 0.0000000000 0.0000000000 698.6052745157 0.4901968367 -2.9915765444
-0.0098031633 -2.9915765446 0.0000000000 0.0000000000 0.0000000000 685.6790653242 0.4901968367 -2.9915765444
-0.0093760425 -3.0122390317 0.0000000000 0.0000000000 0.0000000000 668.7891420227 0.4901968367 -2.9915765444
-0.0080954098 -3.0328662173 0.0000000000 0.0000000000 0.0000000000 646.3356402042 0.4901968367 -2.9915765444
-0.0059634532 -3.0534228602 0.0000000000 0.0000000000 0.0000000000 620.2833349333 0.4901968367 -2.9915765444
-0.0029838150 -3.0738738397 0.0000000000 0.0000000000 0.0000000000 587.3524198293 0.4901968367 -2.9915765444
0.0008384141 -3.0941842157 0.0000000000 0.0000000000 0.0000000000 551.3204301115 0.4901968367 -2.9915765444
0.0054967038 -3.1143192882 0.0000000000 0.0000000000 0.0000000000 505.5587670223 0.4901968367 -2.9915765444
0.0109830955 -3.1342446567 0.0000000000 0.0000000000 0.0000000000 461.3477332516 0.4901968367 -2.9915765444
0.0172882159 -3.1539262792 0.0000000000 0.0000000000 0.0000000000 390.9717700549 0.4901968367 -2.9915765444
0.0244012927 -3.1733305299 0.0000000000 0.0000000000 0.0000000000 371.3490827691 0.4901968367 -2.9915765444
0.0323101734 -3.1924242569 0.0000000000 0.0000000000 0.0000000000 231.8341631331 0.4901968367 -2.9915765444
0.0410013458 -3.2111748390 0.0000000000 0.0000000000 0.0000000000 311.0018486990 0.4901968367 -2.9915765444
0.0504599612 -3.2295502411 0.0000000000 0.0000000000 0.0000000000 90.1686388123 0.4901968367 -2.9915765444
0.0606698596 -3.2475190691 0.0000000000 0.0000000000 0.0000000000 602.3174919787 0.4901968367 -2.9915765444
0.0716135977 -3.2650506236 0.0000000000 0.0000000000 0.0000000000 -918.6527876415 0.4901968367 -2.9915765444
0.0832724782 -3.2821149523 0.0000000000 0.0000000000 0.0000000000 -2180.5617326671 0.4901968367 -2.9915765444
0.0956265821 -3.2986829009 0.0000000000 0.0000000000 0.0000000000 -4241.0400310684 0.4901968367 -2.9915765444
0.1086548027 -3.3147261635 0.0000000000 0.0000000000 0.0000000000 4797.1489308275 0.4901968367 -2.9915765444
0.1223348815 -3.3302173304 0.0000000000 0.0000000000 0.0000000000 -2920.6357430856 0.4901968367 -2.9915765444
0.1515560511 -3.3594384999 0.0000000000 0.0000000000 0.0000000000 4611.1173176611 0.4901968367 -2.9915765444
0.1670472180 -3.3731185786 0.0000000000 0.0000000000 0.0000000000 -2596.9217916034 0.4901968367 -2.9915765444
0.1830904805 -3.3861467992 0.0000000000 0.0000000000 0.0000000000 -1851.3464826197 0.4901968367 -2.9915765444
0.1996584292 -3.3985009032 0.0000000000 0.0000000000 0.0000000000 -3702.2348118817 0.4901968367 -2.9915765444
0.2167227578 -3.4101597837 0.0000000000 0.0000000000 0.0000000000 -1750.8738930057 0.4901968367 -2.9915765444
0.2342543124 -3.4211035217 0.0000000000 0.0000000000 0.0000000000 -1688.6552020345 0.4901968367 -2.9915765444
0.2522231404 -3.4313134201 0.0000000000 0.0000000000 0.0000000000 -1025.9336896288 0.4901968367 -2.9915765444
0.2705985425 -3.4407720354 0.0000000000 0.0000000000 0.0000000000 -1405.0007515801 0.4901968367 -2.9915765444
0.2893491246 -3.4494632078 0.0000000000 0.0000000000 0.0000000000 -1412.1699357038 0.4901968367 -2.9915765444
0.3084428517 -3.4573720885 0.0000000000 0.0000000000 0.0000000000 -1733.5237997468 0.4901968367 -2.9915765444
0.3278471024 -3.4644851653 0.0000000000 0.0000000000 0.0000000000 -1795.3223732612 0.4901968367 -2.9915765444
0.3475287248 -3.4707902857 0.0000000000 0.0000000000 0.0000000000 -1998.8981331186 0.4901968367 -2.9915765444
0.3674540934 -3.4762766774 0.0000000000 0.0000000000 0.0000000000 -2074.0896330630 0.4901968367 -2.9915765444
0.3875891659 -3.4809349671 0.0000000000 0.0000000000 0.0000000000 -2221.2010095512 0.4901968367 -2.9915765444
0.4078995418 -3.4847571961 0.0000000000 0.0000000000 0.0000000000 -2300.3976689945 0.4901968367 -2.9915765444
0.4283505213 -3.4877368343 0.0000000000 0.0000000000 0.0000000000 -2413.5467009635 0.4901968367 -2.9915765444
0.4489071642 -3.4898687909 0.0000000000 0.0000000000 0.0000000000 -2488.1519681020 0.4901968367 -2.9915765444
0.4695343499 -3.4911494236 0.0000000000 0.0000000000 0.0000000000 -2576.4590607726 0.4901968367 -2.9915765444
0.4901968370 -3.4915765444 0.0000000000 0.0000000000 0.0000000000 -2640.8492876860 0.4901968367 -2.9915765444
0.5108593241 -3.4911494236 0.0000000000 0.0000000000 0.0000000000 -2708.0307193917 0.4901968367 -2.9915765444
0.5314865097 -3.4898687909 0.0000000000 0.0000000000 0.0000000000 -2758.6288052067 0.4901968367 -2.9915765444
0.5520431526 -3.4877368342 0.0000000000 0.0000000000 0.0000000000 -2806.1511998369 0.4901968367 -2.9915765444
0.5724941321 -3.4847571960 0.0000000000 0.0000000000 0.0000000000 -2840.7890010589 0.4901968367 -2.9915765444
0.5928045081 -3.4809349670 0.0000000000 0.0000000000 0.0000000000 -2869.2590641850 0.4901968367 -2.9915765444
0.6129395806 -3.4762766773 0.0000000000 0.0000000000 0.0000000000 -2886.8083230744 0.4901968367 -2.9915765444
0.6328649491 -3.4707902855 0.0000000000 0.0000000000 0.0000000000 -2896.5875244854 0.4901968367 -2.9915765444
0.6525465716 -3.4644851651 0.0000000000 0.0000000000 0.0000000000 -2896.8545070060 0.4901968367 -2.9915765444
0.6719508223 -3.4573720883 0.0000000000 0.0000000000 0.0000000000 -2888.1603826321 0.4901968367 -2.9915765444
0.6910445493 -3.4494632076 0.0000000000 0.0000000000 0.0000000000 -2872.1198601244 0.4901968367 -2.9915765444
0.7097951314 -3.4407720352 0.0000000000 0.0000000000 0.0000000000 -2844.8808889331 0.4901968367 -2.9915765444
0.7281705335 -3.4313134198 0.0000000000 0.0000000000 0.0000000000 -2815.5527889610 0.4901968367 -2.9915765444
0.7461393615 -3.4211035214 0.0000000000 0.0000000000 0.0000000000 -2766.5845377396 0.4901968367 -2.9915765444
0.7636709160 -3.4101597833 0.0000000000 0.0000000000 0.0000000000 -2728.3437348155 0.4901968367 -2.9915765444
0.7807352447 -3.3985009028 0.0000000000 0.0000000000 0.0000000000 -2678.5925663941 0.4901968367 -2.9915765444
0.7973031933 -3.3861467989 0.0000000000 0.0000000000 0.0000000000 -2592.8897645542 0.4901968367 -2.9915765444
0.8133464559 -3.3731185782 0.0000000000 0.0000000000 0.0000000000 -2638.4313927318 0.4901968367 -2.9915765444
0.8288376228 -3.3594384995 0.0000000000 0.0000000000 0.0000000000 -1547.0838085764 0.4901968367 -2.9915765444
1.0283697751 -3.5991729290 0.0000000000 1.2458503942 0.4194896121 -988.8552848064 0.4785808709 -3.0890433760
1.0467683349 -3.5797734103 0.0000000000 1.2090174167 0.4281724057 -972.6555069356 0.4782895422 -3.0905578523
1.0646246315 -3.5605214073 0.0000000000 1.1722575727 0.4343682036 -954.7598588074 0.4782510193 -3.0929040563
1.0817259590 -3.5407994995 0.0000000000 1.1353613226 0.4389285053 -935.8585953207 0.4782776239 -3.0954343607
1.0979791746 -3.5203868433 0.0000000000 1.0982459869 0.4422362138 -916.4478676953 0.4783000936 -3.0978968002
1.1133191401 -3.4992018592 0.0000000000 1.0608510655 0.4444537655 -896.7024507026 0.4782759904 -3.1001778022
1.1276981494 -3.4772237052 0.0000000000 1.0231364122 0.4456519536 -876.7118925976 0.4781790964 -3.1022237056
1.1410836970 -3.4544612288 0.0000000000 0.9850729585 0.4458429534 -856.5019431777 0.4779971517 -3.1040097580
1.1534558947 -3.4309383619 0.0000000000 0.9466433807 0.4449999347 -836.0609301655 0.4777292436 -3.1055255580
1.1648043948 -3.4066865675 0.0000000000 0.9078449533 0.4430684574 -815.3538955401 0.4773827027 -3.1067675497
1.1751255581 -3.3817407756 0.0000000000 0.8686930031 0.4399745226 -794.3327775569 0.4769702465 -3.1077350077
1.1844202841 -3.3561371475 0.0000000000 0.8292240156 0.4356305295 -772.9432276720 0.4765077862 -3.1084278514
1.1926925127 -3.3299117944 0.0000000000 0.7894981811 0.4299400433 -751.1292327198 0.4760129083 -3.1088454140
1.1999482081 -3.3030999986 0.0000000000 0.7496014040 0.4228020591 -728.8364632849 0.4755038383 -3.1089857151
1.2061946194 -3.2757357221 0.0000000000 0.7096468116 0.4141152889 -706.0150538038 0.4749986852 -3.1088450220
1.2114396806 -3.2478513146 0.0000000000 0.6697757242 0.4037828212 -682.6222766345 0.4745148256 -3.1084176096
1.2156914838 -3.2194773887 0.0000000000 0.6301579724 0.3917173594 -658.6253685865 0.4740683641 -3.1076956894
1.2189578121 -3.1906428582 0.0000000000 0.5909913721 0.3778471524 -634.0046383975 0.4736736547 -3.1066695015
1.2212457426 -3.1613751405 0.0000000000 0.5525000486 0.3621226360 -608.7569115984 0.4733428947 -3.1053275706
1.2225613363 -3.1317005250 0.0000000000 0.5149311576 0.3445236388 -582.8992116072 0.4730858077 -3.1036571296
1.2229094262 -3.1016447035 0.0000000000 0.4785494956 0.3250667987 -556.4723517295 0.4729094262 -3.1016447038
1.2222935013 -3.0712334475 0.0000000000 0.4436295796 0.3038125041 -529.5439341697 0.4728179728 -3.0992768435
1.2207156782 -3.0404934099 0.0000000000 0.4104451189 0.2808702320 -502.2100644364 0.4728128304 -3.0965409804
1.2181767464 -3.0094530108 0.0000000000 0.3792564311 0.2564009951 -474.5950256847 0.4728925890 -3.0934263682
1.2146762797 -2.9781433606 0.0000000000 0.3502969815 0.2306159220 -446.8484498591 0.4730531601 -3.0899250605
1.2102128144 -2.9465991604 0.0000000000 0.3237605244 0.2037705574 -419.1400068147 0.4732879595 -3.0860328660
1.2047841092 -2.9148595196 0.0000000000 0.2997902854 0.1761551494 -391.6520416635 0.4735881752 -3.0817502203
1.1983875128 -2.8829686248 0.0000000000 0.2784712941 0.1480819308 -364.5709744513 0.4739431431 -3.0770829089
1.1910204680 -2.8509762006 0.0000000000 0.2598265672 0.1198710753 -338.0784886916 0.4743408638 -3.0720425817
1.1826811849 -2.8189377038 0.0000000000 0.2438173637 0.0918372788 -312.3435082277 0.4747686872 -3.0666470005
1.1733695000 -2.7869141957 0.0000000000 0.2303469313 0.0642778850 -287.5157153550 0.4752141886 -3.0609199641
1.1630879199 -2.7549718364 0.0000000000 0.2192672331 0.0374615020 -263.7202602858 0.4756662280 -3.0548908548
1.1518427944 -2.7231809421 0.0000000000 0.2103877286 0.0116132163 -241.0530786981 0.4761161436 -3.0485937466
1.1396454654 -2.6916145549 0.0000000000 0.2034854182 -0.0131100878 -219.5761028833 0.4765589204 -3.0420660262
1.1265130507 -2.6603465318 0.0000000000 0.1983163136 -0.0366586660 -199.3123292710 0.4769939979 -3.0353465319
1.1124682867 -2.6294493362 0.0000000000 0.1946295851 -0.0591371618 -180.2429161332 0.4774251374 -3.0284733937
1.0975377420 -2.5989921066 0.0000000000 0.1921835793 -0.0808405370 -162.3107552489 0.4778586613 -3.0214821502
1.0817480305 -2.5690402374 0.0000000000 0.1907641966 -0.1022461516 -145.4318159888 0.4782996958 -3.0144053767
1.0651204764 -2.5396587704 0.0000000000 0.1901976875 -0.1239322162 -129.5158861404 0.4787468646 -3.0072761219
1.0476642399 -2.5109254181 0.0000000000 0.1903524250 -0.1464024903 -114.4833678267 0.4791854476 -3.0001409767
1.0293683036 -2.4829678548 0.0000000000 0.1911810204 -0.1698348093 -100.2993572458 0.4795793998 -2.9930974082
0.9868234532 -2.4270412999 0.0000000000 0.1938052251 -0.2208856470 -73.0432903901 0.4788622745 -2.9788342330
0.9626095648 -2.4001094716 0.0000000000 0.1956801036 -0.2427861062 -60.2580688660 0.4778851364 -2.9724225228
0.9376301279 -2.3748423564 0.0000000000 0.1975635678 -0.2558548749 -48.4245321513 0.4769705935 -2.9666977385
0.9119254098 -2.3511513861 0.0000000000 0.1990807862 -0.2569177117 -37.2132785060 0.4761177983 -2.9615379241
0.8855276211 -2.3290128875 0.0000000000 0.1999164701 -0.2449954375 -26.2631752548 0.4753165025 -2.9568877463
0.8584595100 -2.3084343321 0.0000000000 0.1999454605 -0.2219717783 -15.2573730786 0.4745457233 -2.9527247979
0.8307417107 -2.2894438668 0.0000000000 0.1992807251 -0.1921461965 -3.9603274735 0.4737811660 -2.9490491803
0.8023974542 -2.2720846629 0.0000000000 0.1982282250 -0.1607173609 7.7770340251 0.4730000126 -2.9458778994
0.7734552227 -2.2564084724 0.0000000000 0.1971542720 -0.1319107848 20.0209500647 0.4721836543 -2.9432384674
0.7439494451 -2.2424695791 0.0000000000 0.1963268515 -0.1077621738 32.7632329487 0.4713184673 -2.9411628951
0.7139200762 -2.2303201671 0.0000000000 0.1958216936 -0.0881601551 45.9472824178 0.4703954744 -2.9396830984
0.6834118772 -2.2200071203 0.0000000000 0.1955465987 -0.0718680970 59.5105529526 0.4694097091 -2.9388277322
0.6524738702 -2.2115698143 0.0000000000 0.1953488370 -0.0576270140 73.4213628218 0.4683597549 -2.9386200138
0.6211591028 -2.2050385672 0.0000000000 0.1951092576 -0.0446485083 87.6866558442 0.4672475963 -2.9390762012
0.5895246639 -2.2004336512 0.0000000000 0.1947631724 -0.0325334457 102.3343920000 0.4660787213 -2.9402046288
0.5576317970 -2.1977648888 0.0000000000 0.1942754736 -0.0210546766 117.3963613552 0.4648623237 -2.9420053236
0.5255459388 -2.1970318333 0.0000000000 0.1936217581 -0.0100524816 132.9039122859 0.4636114299 -2.9444702030
0.4933365435 -2.1982244270 0.0000000000 0.1927852287 0.0005894412 148.8888759727 0.4623428129 -2.9475837458
0.4610766160 -2.2013239242 0.0000000000 0.1917561569 0.0109562216 165.3832099263 0.4610766162 -2.9513239242
0.4288419537 -2.2063038221 0.0000000000 0.1905300450 0.0211131238 182.4180489490 0.4598356845 -2.9556631409
0.3967101539 -2.2131305859 0.0000000000 0.1891061508 0.0311126995 200.0231235530 0.4586446632 -2.9605689556
0.3647594848 -2.2217640531 0.0000000000 0.1874866194 0.0409992052 218.2263406577 0.4575289584 -2.9660044878
0.3330677146 -2.2321575194 0.0000000000 0.1856762367 0.0508126438 237.0532504229 0.4565136575 -2.9719284970
0.3017109758 -2.2442575965 0.0000000000 0.1836826913 0.0605941773 256.5262113894 0.4556224826 -2.9782952304
0.2707627078 -2.2580039648 0.0000000000 0.1815162564 0.0703889649 276.6633329817 0.4548768234 -2.9850541642
0.2402926928 -2.2733291330 0.0000000000 0.1791879010 0.0802362795 297.4772815574 0.4542948612 -2.9921497447
0.2103661829 -2.2901582612 0.0000000000 0.1767081386 0.0901504855 318.9738004174 0.4538907850 -2.9995211924
0.1810431188 -2.3084090531 0.0000000000 0.1740928691 0.1001362164 341.1509344705 0.4536740969 -3.0071023691
0.1523774475 -2.3279916576 0.0000000000 0.1713789245 0.1102989129 364.0020763983 0.4536490162 -3.0148216526
0.1244165586 -2.3488084621 0.0000000000 0.1686366526 0.1210286816 387.5233911565 0.4538140004 -3.0226016984
0.0972008644 -2.3707535422 0.0000000000 0.1659516480 0.1330443880 411.7149911595 0.4541614094 -3.0303588555
0.0707635386 -2.3937112769 0.0000000000 0.1633591021 0.1469374019 436.5548904663 0.4546773256 -3.0380017426
0.0451304029 -2.4175529837 0.0000000000 0.1607673199 0.1619988178 461.9358950893 0.4553415217 -3.0454278423
0.0203198848 -2.4421286238 0.0000000000 0.1579706655 0.1746632819 487.5975347013 0.4561274965 -3.0525151616
-0.0036573522 -2.4672450447 0.0000000000 0.1548509936 0.1775819231 513.1088736691 0.4570021825 -3.0591004266
-0.0268031345 -2.4926010832 0.0000000000 0.1517350909 0.1605079823 537.9427029482 0.4579212940 -3.0649141342
-0.0491701379 -2.5175624841 0.0000000000 0.1500157485 0.1133979731 561.2806867985 0.4587910410 -3.0693554169
-0.0907595674 -2.5740466547 0.0000000000 0.1546013836 -0.0845636819 606.0315852438 0.4610333658 -3.0820078333
-0.1100223359 -2.6059230525 0.0000000000 0.1645939454 -0.2202963531 626.0775388571 0.4622907154 -3.0906474807
-0.1284753013 -2.6373618419 0.0000000000 0.1817717955 -0.3582378988 642.9368865234 0.4633800809 -3.0980213762
-0.1460107986 -2.6687556605 0.0000000000 0.2045202363 -0.4811648239 656.6453166234 0.4643757395 -3.1045632719
-0.1625861521 -2.7002207467 0.0000000000 0.2307296062 -0.5787776404 667.2972423091 0.4652887068 -3.1104318651
-0.1781666992 -2.7317868417 0.0000000000 0.2585853167 -0.6499337602 674.9859567684 0.4661237667 -3.1157006282
-0.1927176675 -2.7634509483 0.0000000000 0.2872404388 -0.7002224881 679.8545992109 0.4668876461 -3.1204114929
-0.2062031159 -2.7951950420 0.0000000000 0.3167394935 -0.7374041376 682.1140619411 0.4675901207 -3.1245924834
-0.2185859039 -2.8269925656 0.0000000000 0.3475124076 -0.7678154324 681.9591309703 0.4682440912 -3.1282641339
-0.2298279977 -2.8588108620 0.0000000000 0.3799078794 -0.7950606522 679.4890037231 0.4688653185 -3.1314418397
-0.2398909599 -2.8906120433 0.0000000000 0.4140023747 -0.8204787643 674.7188517087 0.4694719715 -3.1341366450
-0.2487365680 -2.9223532899 0.0000000000 0.4496365467 -0.8442120298 667.6452632677 0.4700840439 -3.1363554578
-0.2563275360 -2.9539870163 0.0000000000 0.4865324974 -0.8660484782 658.2990315941 0.4707226635 -3.1381011314
-0.2626283219 -2.9854611092 0.0000000000 0.5243889334 -0.8858180834 646.7607683165 0.4714093122 -3.1393726155
-0.2676060078 -3.0167193297 0.0000000000 0.5629273712 -0.9034794730 633.1498399568 0.4721649698 -3.1401652722
-0.2712312233 -3.0477019193 0.0000000000 0.6019049368 -0.9190868135 617.6048958315 0.4730092116 -3.1404713925
-0.2734790692 -3.0783464119 0.0000000000 0.6411145109 -0.9327448084 600.2674554531 0.4739593006 -3.1402809207
-0.2743299737 -3.1085886435 0.0000000000 0.6803834097 -0.9445822743 581.2715671608 0.4750293451 -3.1395823739
-0.2737703994 -3.1383639393 0.0000000000 0.7195734651 -0.9547406390 560.7379313169 0.4762296006 -3.1383639390
-0.2717933141 -3.1676084543 0.0000000000 0.7585819430 -0.9633684723 538.7700706426 0.4775660046 -3.1366147233
-0.2683983517 -3.1962606459 0.0000000000 0.7973423516 -0.9706170197 515.4510270300 0.4790400181 -3.1343261365
-0.2635916171 -3.2242628454 0.0000000000 0.8358247168 -0.9766352356 490.8400434908 0.4806488177 -3.1314933717
-0.2573851270 -3.2515628926 0.0000000000 0.8740353129 -0.9815642529 464.9692202364 0.4823858505 -3.1281169496