 TITLE = "Tecplot data"
 VARIABLES = "X", "Y", "Z" "U", "V", "p", "dispX", "dispY"
 ZONE SOLUTIONTIME=74.900000, NODES=26114 , ELEMENTS=25916, DATAPACKING=POINT, ZONETYPE=FEQUADRILATERAL
0.5051230514 0.6767480826 0.0000000000 0.0000000000 0.0000000000 -377.4749416260 0.1515696608 0.3231946919
0.5051230517 -0.0303586984 0.0000000000 0.0000000000 0.0000000000 -1534.4335985797 0.1515696608 0.3231946919
-0.2019837299 0.6767480824 0.0000000000 0.0000000000 0.0000000000 452.2953799242 0.1515696608 0.3231946919
-0.2019837296 -0.0303586988 0.0000000000 0.0000000000 0.0000000000 1660.8396248350 0.1515696608 0.3231946919
0.6795581783 0.8537400364 0.0000000000 -0.0179065298 0.0238750010 -382.0116928440 0.1492280924 0.3234099505
0.6881963278 -0.1945775476 0.0000000000 0.5113387115 0.1135359190 -859.9294119390 0.1578662416 0.3357525379
-0.3696648862 0.8640546120 0.0000000000 0.2994926277 0.4373490860 439.8495934312 0.1606651998 0.3337245263
-0.3817497149 -0.2015959100 0.0000000000 0.8023217810 -0.4488331126 641.8101134003 0.1485803707 0.3287341762
1.2173996520 1.3884362400 0.0000000000 0.3060173354 -0.5156474371 -375.6998620715 0.1567394803 0.3277760681
1.2106651301 -0.7267560813 0.0000000000 0.5504706135 0.0229706841 -377.5959908793 0.1500049576 0.3339040897
-0.8866320766 1.4178117011 0.0000000000 0.7728481975 0.3433288857 363.8257305417 0.1740280955 0.3571515297
-0.9195472622 -0.7124570144 0.0000000000 0.8371796291 -0.1943387049 333.1614606445 0.1411129090 0.3482031579
4.3752264557 3.5882461078 0.0000000000 1.2132080248 -0.0180023902 -86.9650032767 0.1752264557 0.2882461078
4.3074656703 -3.0124170050 0.0000000000 1.1371075528 0.0554461891 -90.8190268897 0.1074656703 0.2875829950
20.0000000000 4.7000000000 0.0000000000 1.0687168131 0.0675998614 0.6876683864 0.0000000000 0.0000000000
20.0000000000 -4.7000000000 0.0000000000 1.0596794549 -0.0173795333 -0.2526004894 0.0000000000 0.0000000000
-10.0000000000 15.0000000000 0.0000000000 1.0000000000 0.0000000000 117.0654333756 0.0000000000 0.0000000000
20.0000000000 15.0000000000 0.0000000000 1.0464441063 0.0000000000 0.0185159699 0.0000000000 0.0000000000
20.0000000000 -15.0000000000 0.0000000000 1.0475525083 0.0000000000 0.0268532460 0.0000000000 0.0000000000
-10.0000000000 -15.0000000000 0.0000000000 1.0000000000 0.0000000000 80.5276232169 0.0000000000 0.0000000000
0.5180955970 -0.0168916767 0.0000000000 0.0000000000 0.0000000000 -1441.7721417505 0.1515696608 0.3231946919
0.5305555226 -0.0029490134 0.0000000000 0.0000000000 0.0000000000 -1416.7700651381 0.1515696608 0.3231946919
0.5424854023 0.0114497913 0.0000000000 0.0000000000 0.0000000000 -1358.3240078957 0.1515696608 0.3231946919
0.5538685509 0.0262845994 0.0000000000 0.0000000000 0.0000000000 -1318.0907424580 0.1515696608 0.3231946919
0.5646890482 0.0415346632 0.0000000000 0.0000000000 0.0000000000 -1264.1884839896 0.1515696608 0.3231946919
0.5749317606 0.0571786539 0.0000000000 0.0000000000 0.0000000000 -1151.2503111998 0.1515696608 0.3231946919
0.5845823629 0.0731946922 0.0000000000 0.0000000000 0.0000000000 -1195.0485501983 0.1515696608 0.3231946919
0.5936273577 0.0895603781 0.0000000000 0.0000000000 0.0000000000 -1116.9145306720 0.1515696608 0.3231946919
0.6020540949 0.1062528226 0.0000000000 0.0000000000 0.0000000000 -1079.8343832147 0.1515696608 0.3231946919
0.6098507889 0.1232486800 0.0000000000 0.0000000000 0.0000000000 -1033.2240395654 0.1515696608 0.3231946919
0.6170065352 0.1405241800 0.0000000000 0.0000000000 0.0000000000 -990.2895243295 0.1515696608 0.3231946919
0.6235113261 0.1580551612 0.0000000000 0.0000000000 0.0000000000 -948.1493132764 0.1515696608 0.3231946919
0.6293560638 0.1758171050 0.0000000000 0.0000000000 0.0000000000 -907.9033763693 0.1515696608 0.3231946919
0.6345325740 0.1937851696 0.0000000000 0.0000000000 0.0000000000 -868.7794720212 0.1515696608 0.3231946919
0.6390336170 0.2119342252 0.0000000000 0.0000000000 0.0000000000 -831.7680475919 0.1515696608 0.3231946919
0.6428528975 0.2302388886 0.0000000000 0.0000000000 0.0000000000 -796.4166650775 0.1515696608 0.3231946919
0.6459850740 0.2486735591 0.0000000000 0.0000000000 0.0000000000 -763.0483964076 0.1515696608 0.3231946919
0.6484257658 0.2672124541 0.0000000000 0.0000000000 0.0000000000 -731.6594727022 0.1515696608 0.3231946919
0.6501715594 0.2858296454 0.0000000000 0.0000000000 0.0000000000 -702.2972096387 0.1515696608 0.3231946919
0.6512200132 0.3044990950 0.0000000000 0.0000000000 0.0000000000 -674.9965471736 0.1515696608 0.3231946919
0.6515696608 0.3231946921 0.0000000000 0.0000000000 0.0000000000 -649.7061866929 0.1515696608 0.3231946919
0.6512200132 0.3418902893 0.0000000000 0.0000000000 0.0000000000 -626.3921470808 0.1515696608 0.3231946919
0.6501715594 0.3605597389 0.0000000000 0.0000000000 0.0000000000 -604.9434229247 0.1515696608 0.3231946919
0.6484257657 0.3791769302 0.0000000000 0.0000000000 0.0000000000 -585.2452044777 0.1515696608 0.3231946919
0.6459850739 0.3977158252 0.0000000000 0.0000000000 0.0000000000 -567.1462939297 0.1515696608 0.3231946919
0.6428528974 0.4161504957 0.0000000000 0.0000000000 0.0000000000 -550.4786455208 0.1515696608 0.3231946919
0.6390336169 0.4344551591 0.0000000000 0.0000000000 0.0000000000 -535.0918729688 0.1515696608 0.3231946919
0.6345325739 0.4526042146 0.0000000000 0.0000000000 0.0000000000 -520.8075338873 0.1515696608 0.3231946919
0.6293560637 0.4705722793 0.0000000000 0.0000000000 0.0000000000 -507.4760645651 0.1515696608 0.3231946919
0.6235113259 0.4883342230 0.0000000000 0.0000000000 0.0000000000 -494.9582804167 0.1515696608 0.3231946919
0.6170065351 0.5058652042 0.0000000000 0.0000000000 0.0000000000 -483.1351767663 0.1515696608 0.3231946919
0.6098507887 0.5231407042 0.0000000000 0.0000000000 0.0000000000 -471.9137396575 0.1515696608 0.3231946919
0.6020540947 0.5401365616 0.0000000000 0.0000000000 0.0000000000 -461.2071480871 0.1515696608 0.3231946919
0.5936273575 0.5568290062 0.0000000000 0.0000000000 0.0000000000 -450.9382583120 0.1515696608 0.3231946919
0.5845823627 0.5731946920 0.0000000000 0.0000000000 0.0000000000 -441.0514229675 0.1515696608 0.3231946919
0.5749317604 0.5892107303 0.0000000000 0.0000000000 0.0000000000 -431.4761983210 0.1515696608 0.3231946919
0.5646890479 0.6048547210 0.0000000000 0.0000000000 0.0000000000 -422.1757585992 0.1515696608 0.3231946919
0.5538685507 0.6201047848 0.0000000000 0.0000000000 0.0000000000 -413.0689996774 0.1515696608 0.3231946919
0.5424854020 0.6349395929 0.0000000000 0.0000000000 0.0000000000 -404.1318209013 0.1515696608 0.3231946919
0.5305555223 0.6493383976 0.0000000000 0.0000000000 0.0000000000 -395.2382577226 0.1515696608 0.3231946919
0.5180955967 0.6632810609 0.0000000000 0.0000000000 0.0000000000 -386.4538334622 0.1515696608 0.3231946919
0.4902104466 0.6910566473 0.0000000000 0.0000000000 0.0000000000 -367.6893818934 0.1515696608 0.3231946919
0.4747192797 0.7047367261 0.0000000000 0.0000000000 0.0000000000 -357.4674002205 0.1515696608 0.3231946919
0.4586760171 0.7177649467 0.0000000000 0.0000000000 0.0000000000 -347.1128409647 0.1515696608 0.3231946919
0.4421080685 0.7301190506 0.0000000000 0.0000000000 0.0000000000 -336.2926517626 0.1515696608 0.3231946919
0.4250437398 0.7417779311 0.0000000000 0.0000000000 0.0000000000 -325.0799782225 0.1515696608 0.3231946919
0.4075121853 0.7527216692 0.0000000000 0.0000000000 0.0000000000 -313.3125975011 0.1515696608 0.3231946919
0.3895433573 0.7629315676 0.0000000000 0.0000000000 0.0000000000 -300.9752172523 0.1515696608 0.3231946919
0.3711679552 0.7723901829 0.0000000000 0.0000000000 0.0000000000 -287.9814813005 0.1515696608 0.3231946919
0.3524173731 0.7810813553 0.0000000000 0.0000000000 0.0000000000 -274.2942225999 0.1515696608 0.3231946919
0.3333236460 0.7889902360 0.0000000000 0.0000000000 0.0000000000 -259.8627690775 0.1515696608 0.3231946919
0.3139193953 0.7961033128 0.0000000000 0.0000000000 0.0000000000 -244.6631362727 0.1515696608 0.3231946919
0.2942377729 0.8024084332 0.0000000000 0.0000000000 0.0000000000 -228.6609440746 0.1515696608 0.3231946919
0.2743124043 0.8078948249 0.0000000000 0.0000000000 0.0000000000 -211.8443553282 0.1515696608 0.3231946919
0.2541773318 0.8125531146 0.0000000000 0.0000000000 0.0000000000 -194.1994288418 0.1515696608 0.3231946919
0.2338669559 0.8163753436 0.0000000000 0.0000000000 0.0000000000 -175.7252391407 0.1515696608 0.3231946919
0.2134159764 0.8193549818 0.0000000000 0.0000000000 0.0000000000 -156.4212721598 0.1515696608 0.3231946919
0.1928593335 0.8214869384 0.0000000000 0.0000000000 0.0000000000 -136.2989799185 0.1515696608 0.3231946919
0.1722321478 0.8227675711 0.0000000000 0.0000000000 0.0000000000 -115.3654791027 0.1515696608 0.3231946919
0.1515696607 0.8231946919 0.0000000000 0.0000000000 0.0000000000 -93.6351288431 0.1515696608 0.3231946919
0.1309071736 0.8227675711 0.0000000000 0.0000000000 0.0000000000 -71.1226854015 0.1515696608 0.3231946919
0.1102799880 0.8214869384 0.0000000000 0.0000000000 0.0000000000 -47.8421588308 0.1515696608 0.3231946919
0.0897233451 0.8193549818 0.0000000000 0.0000000000 0.0000000000 -23.8129587743 0.1515696608 0.3231946919
0.0692723656 0.8163753436 0.0000000000 0.0000000000 0.0000000000 0.9596695656 0.1515696608 0.3231946919
0.0489619896 0.8125531146 0.0000000000 0.0000000000 0.0000000000 26.4478002594 0.1515696608 0.3231946919
0.0288269171 0.8078948249 0.0000000000 0.0000000000 0.0000000000 52.6403124160 0.1515696608 0.3231946919
0.0089015486 0.8024084331 0.0000000000 0.0000000000 0.0000000000 79.5173307694 0.1515696608 0.3231946919
-0.0107800739 0.7961033127 0.0000000000 0.0000000000 0.0000000000 107.0875282161 0.1515696608 0.3231946919
-0.0301843246 0.7889902359 0.0000000000 0.0000000000 0.0000000000 135.3141786850 0.1515696608 0.3231946919
-0.0492780516 0.7810813552 0.0000000000 0.0000000000 0.0000000000 164.1974147114 0.1515696608 0.3231946919
-0.0680286337 0.7723901828 0.0000000000 0.0000000000 0.0000000000 193.7353469632 0.1515696608 0.3231946919
-0.0864040358 0.7629315675 0.0000000000 0.0000000000 0.0000000000 223.8979145836 0.1515696608 0.3231946919
-0.1043728638 0.7527216690 0.0000000000 0.0000000000 0.0000000000 254.6979976310 0.1515696608 0.3231946919
-0.1219044184 0.7417779310 0.0000000000 0.0000000000 0.0000000000 286.1072252533 0.1515696608 0.3231946919
-0.1389687470 0.7301190505 0.0000000000 0.0000000000 0.0000000000 318.1240051820 0.1515696608 0.3231946919
-0.1555366956 0.7177649465 0.0000000000 0.0000000000 0.0000000000 350.7139320645 0.1515696608 0.3231946919
-0.1715799582 0.7047367259 0.0000000000 0.0000000000 0.0000000000 383.9866809487 0.1515696608 0.3231946919
-0.1870711251 0.6910566472 0.0000000000 0.0000000000 0.0000000000 417.3073139378 0.1515696608 0.3231946919
-0.2162922946 0.6618354776 0.0000000000 0.0000000000 0.0000000000 486.9345843468 0.1515696608 0.3231946919
-0.2299723734 0.6463443107 0.0000000000 0.0000000000 0.0000000000 521.9271700533 0.1515696608 0.3231946919
-0.2430005940 0.6303010481 0.0000000000 0.0000000000 0.0000000000 557.6892779042 0.1515696608 0.3231946919
-0.2553546979 0.6137330995 0.0000000000 0.0000000000 0.0000000000 593.8400779605 0.1515696608 0.3231946919
-0.2670135784 0.5966687709 0.0000000000 0.0000000000 0.0000000000 630.5082959502 0.1515696608 0.3231946919
-0.2779573165 0.5791372163 0.0000000000 0.0000000000 0.0000000000 667.7304988386 0.1515696608 0.3231946919
-0.2881672149 0.5611683883 0.0000000000 0.0000000000 0.0000000000 705.6220781536 0.1515696608 0.3231946919
-0.2976258302 0.5427929862 0.0000000000 0.0000000000 0.0000000000 744.3378432429 0.1515696608 0.3231946919
-0.3063170026 0.5240424041 0.0000000000 0.0000000000 0.0000000000 784.0748643441 0.1515696608 0.3231946919
-0.3142258833 0.5049486770 0.0000000000 0.0000000000 0.0000000000 825.0463962210 0.1515696608 0.3231946919
-0.3213389601 0.4855444264 0.0000000000 0.0000000000 0.0000000000 867.4489115316 0.1515696608 0.3231946919
-0.3276440805 0.4658628039 0.0000000000 0.0000000000 0.0000000000 911.4142949216 0.1515696608 0.3231946919
-0.3331304722 0.4459374353 0.0000000000 0.0000000000 0.0000000000 956.9709459024 0.1515696608 0.3231946919
-0.3377887619 0.4258023628 0.0000000000 0.0000000000 0.0000000000 1003.9968488471 0.1515696608 0.3231946919
-0.3416109909 0.4054919869 0.0000000000 0.0000000000 0.0000000000 1052.2171962821 0.1515696608 0.3231946919
-0.3445906291 0.3850410074 0.0000000000 0.0000000000 0.0000000000 1101.1703810777 0.1515696608 0.3231946919
-0.3467225857 0.3644843645 0.0000000000 0.0000000000 0.0000000000 1150.2788074058 0.1515696608 0.3231946919
-0.3480032184 0.3438571789 0.0000000000 0.0000000000 0.0000000000 1198.7816333603 0.1515696608 0.3231946919
-0.3484303392 0.3231946917 0.0000000000 0.0000000000 0.0000000000 1245.9331167023 0.1515696608 0.3231946919
-0.3480032184 0.3025322046 0.0000000000 0.0000000000 0.0000000000 1290.7604953742 0.1515696608 0.3231946919
-0.3467225857 0.2819050190 0.0000000000 0.0000000000 0.0000000000 1332.5707052115 0.1515696608 0.3231946919
-0.3445906290 0.2613483761 0.0000000000 0.0000000000 0.0000000000 1370.1801421384 0.1515696608 0.3231946919
-0.3416109908 0.2408973966 0.0000000000 0.0000000000 0.0000000000 1403.2854475842 0.1515696608 0.3231946919
-0.3377887618 0.2205870206 0.0000000000 0.0000000000 0.0000000000 1430.2196334547 0.1515696608 0.3231946919
-0.3331304721 0.2004519481 0.0000000000 0.0000000000 0.0000000000 1451.7542282283 0.1515696608 0.3231946919
-0.3276440803 0.1805265796 0.0000000000 0.0000000000 0.0000000000 1464.7807266871 0.1515696608 0.3231946919
-0.3213389600 0.1608449571 0.0000000000 0.0000000000 0.0000000000 1472.8670358978 0.1515696608 0.3231946919
-0.3142258831 0.1414407064 0.0000000000 0.0000000000 0.0000000000 1468.6999501891 0.1515696608 0.3231946919
-0.3063170024 0.1223469794 0.0000000000 0.0000000000 0.0000000000 1463.2977435744 0.1515696608 0.3231946919
-0.2976258300 0.1035963973 0.0000000000 0.0000000000 0.0000000000 1437.4181678438 0.1515696608 0.3231946919
-0.2881672147 0.0852209952 0.0000000000 0.0000000000 0.0000000000 1422.4635289369 0.1515696608 0.3231946919
-0.2779573162 0.0672521672 0.0000000000 0.0000000000 0.0000000000 1365.5286060414 0.1515696608 0.3231946919
-0.2670135782 0.0497206127 0.0000000000 0.0000000000 0.0000000000 1354.1908411963 0.1515696608 0.3231946919
-0.2553546977 0.0326562840 0.0000000000 0.0000000000 0.0000000000 1244.5668077232 0.1515696608 0.3231946919
-0.2430005937 0.0160883354 0.0000000000 0.0000000000 0.0000000000 1267.0013957386 0.1515696608 0.3231946919
-0.2299723731 0.0000450728 0.0000000000 0.0000000000 0.0000000000 1100.4142487948 0.1515696608 0.3231946919
-0.2162922943 -0.0154460941 0.0000000000 0.0000000000 0.0000000000 1218.0775909872 0.1515696608 0.3231946919
-0.1870711248 -0.0446672636 0.0000000000 0.0000000000 0.0000000000 445.2539830687 0.1515696608 0.3231946919
-0.1715799579 -0.0583473423 0.0000000000 0.0000000000 0.0000000000 1245.1961131758 0.1515696608 0.3231946919
-0.1555366953 -0.0713755629 0.0000000000 0.0000000000 0.0000000000 566.1350079820 0.1515696608 0.3231946919
-0.1389687467 -0.0837296669 0.0000000000 0.0000000000 0.0000000000 781.4004987287 0.1515696608 0.3231946919
-0.1219044180 -0.0953885473 0.0000000000 0.0000000000 0.0000000000 347.4471300753 0.1515696608 0.3231946919
-0.1043728635 -0.1063322854 0.0000000000 0.0000000000 0.0000000000 437.9875231666 0.1515696608 0.3231946919
-0.0864040355 -0.1165421838 0.0000000000 0.0000000000 0.0000000000 183.9270777855 0.1515696608 0.3231946919
-0.0680286334 -0.1260007991 0.0000000000 0.0000000000 0.0000000000 135.5505577086 0.1515696608 0.3231946919
-0.0492780513 -0.1346919715 0.0000000000 0.0000000000 0.0000000000 -36.8171263265 0.1515696608 0.3231946919
-0.0301843242 -0.1426008522 0.0000000000 0.0000000000 0.0000000000 -137.6393189708 0.1515696608 0.3231946919
-0.0107800735 -0.1497139290 0.0000000000 0.0000000000 0.0000000000 -279.8368105975 0.1515696608 0.3231946919
0.0089015490 -0.1560190494 0.0000000000 0.0000000000 0.0000000000 -396.6107726393 0.1515696608 0.3231946919
0.0288269175 -0.1615054411 0.0000000000 0.0000000000 0.0000000000 -525.4889118582 0.1515696608 0.3231946919
0.0489619900 -0.1661637308 0.0000000000 0.0000000000 0.0000000000 -643.6529606442 0.1515696608 0.3231946919
0.0692723660 -0.1699859598 0.0000000000 0.0000000000 0.0000000000 -763.2747721703 0.1515696608 0.3231946919
0.0897233455 -0.1729655980 0.0000000000 0.0000000000 0.0000000000 -876.3562449381 0.1515696608 0.3231946919
0.1102799884 -0.1750975546 0.0000000000 0.0000000000 0.0000000000 -986.5737513490 0.1515696608 0.3231946919
0.1309071740 -0.1763781873 0.0000000000 0.0000000000 0.0000000000 -1090.9102687130 0.1515696608 0.3231946919
0.1515696611 -0.1768053081 0.0000000000 0.0000000000 0.0000000000 -1190.0597255697 0.1515696608 0.3231946919
0.1722321483 -0.1763781872 0.0000000000 0.0000000000 0.0000000000 -1282.9854648758 0.1515696608 0.3231946919
0.1928593339 -0.1750975545 0.0000000000 0.0000000000 0.0000000000 -1368.1877741553 0.1515696608 0.3231946919
0.2134159768 -0.1729655979 0.0000000000 0.0000000000 0.0000000000 -1447.9182074797 0.1515696608 0.3231946919
0.2338669563 -0.1699859597 0.0000000000 0.0000000000 0.0000000000 -1516.3261199075 0.1515696608 0.3231946919
0.2541773322 -0.1661637307 0.0000000000 0.0000000000 0.0000000000 -1577.7522165647 0.1515696608 0.3231946919
0.2743124047 -0.1615054410 0.0000000000 0.0000000000 0.0000000000 -1629.9140500412 0.1515696608 0.3231946919
0.2942377733 -0.1560190492 0.0000000000 0.0000000000 0.0000000000 -1671.5025834286 0.1515696608 0.3231946919
0.3139193957 -0.1497139288 0.0000000000 0.0000000000 0.0000000000 -1705.8091867450 0.1515696608 0.3231946919
0.3333236464 -0.1426008520 0.0000000000 0.0000000000 0.0000000000 -1725.2042405142 0.1515696608 0.3231946919
0.3524173735 -0.1346919713 0.0000000000 0.0000000000 0.0000000000 -1738.5952723934 0.1515696608 0.3231946919
0.3711679555 -0.1260007989 0.0000000000 0.0000000000 0.0000000000 -1742.7857880795 0.1515696608 0.3231946919
0.3895433576 -0.1165421835 0.0000000000 0.0000000000 0.0000000000 -1734.1288846367 0.1515696608 0.3231946919
0.4075121857 -0.1063322851 0.0000000000 0.0000000000 0.0000000000 -1720.9495487568 0.1515696608 0.3231946919
0.4250437402 -0.0953885470 0.0000000000 0.0000000000 0.0000000000 -1698.8660389313 0.1515696608 0.3231946919
0.4421080688 -0.0837296665 0.0000000000 0.0000000000 0.0000000000 -1666.1752999930 0.1515696608 0.3231946919
0.4586760174 -0.0713755626 0.0000000000 0.0000000000 0.0000000000 -1637.6367768801 0.1515696608 0.3231946919
0.4747192800 -0.0583473419 0.0000000000 0.0000000000 0.0000000000 -1592.1234344624 0.1515696608 0.3231946919
0.4902104469 -0.0446672632 0.0000000000 0.0000000000 0.0000000000 -1526.5277588539 0.1515696608 0.3231946919
0.7074649962 -0.1744695964 0.0000000000 0.4815723428 0.1214436655 -852.4673144692 0.1576760920 0.3356599565
0.7259134689 -0.1533168472 0.0000000000 0.4523547406 0.1285933054 -844.0977561399 0.1574346762 0.3358987109
0.7435554464 -0.1313855263 0.0000000000 0.4239864320 0.1347185358 -834.4617507264 0.1571818343 0.3362318247
0.7603580393 -0.1087791903 0.0000000000 0.3966443468 0.1397858297 -823.6727854193 0.1569097042 0.3365859485
0.7762957688 -0.0855601779 0.0000000000 0.3704179956 0.1438233892 -811.8267252056 0.1566166878 0.3369298653
0.7913481914 -0.0617757002 0.0000000000 0.3453503693 0.1469063031 -799.0413726491 0.1563050417 0.3372483568
0.8054972842 -0.0374665007 0.0000000000 0.3214487826 0.1491365306 -785.4354384235 0.1559782312 0.3375334989
0.8187262206 -0.0126703710 0.0000000000 0.2986943432 0.1506284301 -771.1276311423 0.1556396753 0.3377810998
0.8310189657 0.0125761839 0.0000000000 0.2770497322 0.1514948502 -756.2335658483 0.1552923145 0.3379889879
0.8423602648 0.0382370795 0.0000000000 0.2564665345 0.1518355097 -740.8642472551 0.1549385727 0.3381560973
0.8527357786 0.0642761899 0.0000000000 0.2368917212 0.1517284154 -725.1251442551 0.1545804670 0.3382819578
0.8621322321 0.0906571083 0.0000000000 0.2182728803 0.1512249362 -709.1159147646 0.1542197342 0.3383664043
0.8705375290 0.1173430295 0.0000000000 0.2005618437 0.1503486052 -692.9305659137 0.1538579245 0.3384094099
0.8779408274 0.1442967015 0.0000000000 0.1837165618 0.1490972686 -676.6578573893 0.1534964576 0.3384109849
0.8843325913 0.1714804141 0.0000000000 0.1677013008 0.1474478746 -660.3817672287 0.1531366571 0.3383711142
0.8897046323 0.1988560117 0.0000000000 0.1524854423 0.1453630261 -644.1818869402 0.1527797773 0.3382897167
0.8940501502 0.2263849241 0.0000000000 0.1380413268 0.1427984141 -628.1336647074 0.1524270304 0.3381666234
0.8973637742 0.2540282131 0.0000000000 0.1243416831 0.1397103499 -612.3084629368 0.1520796167 0.3380015698
0.8996416025 0.2817466339 0.0000000000 0.1113572112 0.1360627821 -596.7734343652 0.1517387546 0.3377942038
0.9008812362 0.3095007138 0.0000000000 0.0990548436 0.1318333774 -581.5912489423 0.1514057076 0.3375441092
0.9010818058 0.3372508462 0.0000000000 0.0873970752 0.1270184130 -566.8197225915 0.1510818058 0.3372508459
0.9002439887 0.3649574023 0.0000000000 0.0763425568 0.1216363702 -552.5114087562 0.1507684601 0.3369140063
0.8983700217 0.3925808568 0.0000000000 0.0658478939 0.1157301998 -538.7132116896 0.1504671738 0.3365332863
0.8954637098 0.4200819248 0.0000000000 0.0558703400 0.1093682455 -525.4660612908 0.1501795524 0.3361085675
0.8915304348 0.4474217053 0.0000000000 0.0463708597 0.1026437280 -512.8046472383 0.1499073151 0.3356400054
0.8865771625 0.4745618239 0.0000000000 0.0373169421 0.0956724961 -500.7571462156 0.1496523076 0.3351281183
0.8806124469 0.5014645694 0.0000000000 0.0286846293 0.0885884749 -489.3448074345 0.1494165128 0.3345738687
0.8736464229 0.5280930167 0.0000000000 0.0204595485 0.0815360523 -478.5812284286 0.1492020532 0.3339787327
0.8656907811 0.5544111333 0.0000000000 0.0126373067 0.0746588680 -468.4712098054 0.1490111768 0.3333447523
0.8567587139 0.5803838632 0.0000000000 0.0052242893 0.0680854728 -459.0092628362 0.1488462163 0.3326745665
0.8468648244 0.6059771873 0.0000000000 -0.0017596118 0.0619142333 -450.1781347855 0.1487095130 0.3319714188
0.8360249859 0.6311581554 0.0000000000 -0.0082750110 0.0562020994 -441.9480016324 0.1486032940 0.3312391370
0.8242561432 0.6558948833 0.0000000000 -0.0142537452 0.0509629922 -434.2770815258 0.1485294924 0.3304820788
0.8115760533 0.6801565039 0.0000000000 -0.0195885742 0.0461798052 -427.1141944509 0.1484895082 0.3297050325
0.7980029820 0.7039130573 0.0000000000 -0.0241266163 0.0418284374 -420.4032082260 0.1484839292 0.3289130572
0.7835554221 0.7271353135 0.0000000000 -0.0276723349 0.0379043946 -414.0885109975 0.1485122727 0.3281112560
0.7682519445 0.7497945612 0.0000000000 -0.0300041849 0.0344365823 -408.1199183125 0.1485728639 0.3273045175
0.7521112853 0.7718624877 0.0000000000 -0.0309043628 0.0314743166 -402.4551006314 0.1486629506 0.3264973484
0.7351525984 0.7933114308 0.0000000000 -0.0301958015 0.0290446706 -397.0579247902 0.1487789866 0.3256940794
0.7173954160 0.8141156575 0.0000000000 -0.0277752299 0.0270964417 -391.8921292643 0.1489166237 0.3249000990
0.6988575933 0.8342555495 0.0000000000 -0.0236431894 0.0254535692 -386.9090906214 0.1490686895 0.3241259962
0.6575269534 0.8743047714 0.0000000000 -0.0099543701 0.0218007038 -376.7655407972 0.1495657748 0.3225118383
0.6346605315 0.8940728616 0.0000000000 -0.0006088891 0.0190880861 -371.3090384030 0.1499361032 0.3217598104
0.6109924435 0.9129499644 0.0000000000 0.0097609111 0.0156405697 -365.5222235969 0.1503329091 0.3210945823
0.5865631271 0.9308898516 0.0000000000 0.0207556252 0.0116934431 -359.1984689607 0.1507555157 0.3205033136
0.5614118433 0.9478545855 0.0000000000 0.0319991621 0.0077061595 -352.1338404649 0.1512007247 0.3199797268
0.5355793947 0.9638106307 0.0000000000 0.0431799541 0.0041579163 -344.1455521166 0.1516656080 0.3195201649
0.5091082498 0.9787283217 0.0000000000 0.0540785235 0.0013681909 -335.0851149142 0.1521477051 0.3191230083
0.4820422148 0.9925817161 0.0000000000 0.0645697673 -0.0005585168 -324.8433171576 0.1526447733 0.3187884796
0.4544260866 1.0053481524 0.0000000000 0.0746018313 -0.0016634406 -313.3491931149 0.1531545182 0.3185181574
0.4263054615 1.0170076651 0.0000000000 0.0841655605 -0.0020241506 -300.5666044142 0.1536744836 0.3183143490
0.3977266813 1.0275424642 0.0000000000 0.0932700789 -0.0016866967 -286.4899747738 0.1542020795 0.3181795329
0.3687368327 1.0369365567 0.0000000000 0.1019309958 -0.0006567974 -271.1392883209 0.1547346647 0.3181159448
0.3393837337 1.0451754925 0.0000000000 0.1101677921 0.0010807361 -254.5545882114 0.1552696185 0.3181252930
0.3097158745 1.0522462058 0.0000000000 0.1180038628 0.0035446543 -236.7904308792 0.1558043680 0.3182085718
0.2797823105 1.0581369362 0.0000000000 0.1254655293 0.0067502400 -217.9105610466 0.1563363680 0.3183659587
0.2496325221 1.0628372284 0.0000000000 0.1325797205 0.0107083503 -197.9830219468 0.1568630488 0.3185967936
0.2193162596 1.0663380038 0.0000000000 0.1393712151 0.0154263671 -177.0760277426 0.1573817506 0.3188996341
0.1888833963 1.0686316874 0.0000000000 0.1458600735 0.0209097819 -155.2548638331 0.1578896658 0.3192723686
0.1583838027 1.0697123590 0.0000000000 0.1520593674 0.0271640016 -132.5798520780 0.1583838028 0.3197123590
0.1278672476 1.0695758936 0.0000000000 0.1579730477 0.0341954125 -109.1052596521 0.1588609784 0.3202165748
0.0973833255 1.0682200595 0.0000000000 0.1635939315 0.0420107867 -84.8790705691 0.1593178347 0.3207816897
0.0669814030 1.0656445589 0.0000000000 0.1689018366 0.0506145117 -59.9433987708 0.1597508766 0.3214041241
0.0367105766 1.0618510082 0.0000000000 0.1738629171 0.0600022904 -34.3344889824 0.1601565194 0.3220800307
0.0066196355 1.0568428706 0.0000000000 0.1784391835 0.0701586757 -8.0800933532 0.1605311423 0.3228052366
-0.0232429722 1.0506253592 0.0000000000 0.1826335211 0.0811037998 18.8080581698 0.1608711433 0.3235751598
-0.0528291714 1.0432053279 0.0000000000 0.1865996361 0.0930808398 46.3462154505 0.1611729969 0.3243847161
-0.0820912875 1.0345911616 0.0000000000 0.1908023650 0.1069365337 74.5882802152 0.1614333146 0.3252282304
-0.1109820697 1.0247926706 0.0000000000 0.1961188077 0.1245380451 103.6211594466 0.1616489084 0.3260993546
-0.1394547139 1.0138209857 0.0000000000 0.2037033928 0.1487796086 133.5371320669 0.1618168548 0.3269909908
-0.1674628936 1.0016884418 0.0000000000 0.2145242133 0.1826862659 164.3889535499 0.1619345482 0.3278952055
-0.1949608176 0.9884084232 0.0000000000 0.2287361645 0.2276272851 196.1558563087 0.1619997273 0.3288031099
-0.2219033501 0.9739951140 0.0000000000 0.2452946843 0.2815241519 228.7638336042 0.1620104369 0.3297046484
-0.2482462697 0.9584630212 0.0000000000 0.2621568624 0.3383847782 262.1627376648 0.1619648491 0.3305881626
-0.2739468562 0.9418259255 0.0000000000 0.2770345451 0.3898504022 296.3714910101 0.1618607555 0.3314393877
-0.2989653180 0.9240942941 0.0000000000 0.2882697483 0.4280850204 331.4084214098 0.1616942167 0.3322389122
-0.3232685153 0.9052680449 0.0000000000 0.2953358580 0.4484319244 367.1708563610 0.1614559132 0.3329549939
-0.3468402822 0.8853137737 0.0000000000 0.2987531232 0.4505038752 403.4044029353 0.1611208967 0.3335208409
-0.3913264022 0.8430723977 0.0000000000 0.2996108907 0.4149920900 474.6324167811 0.1604665310 0.3351112191
-0.4121415930 0.8208992507 0.0000000000 0.2990431229 0.3869556293 508.8291647503 0.1601714583 0.3361748225
-0.4320583787 0.7977508554 0.0000000000 0.2983796315 0.3567168773 542.1737702386 0.1597970035 0.3370913211
-0.4510164792 0.7737146558 0.0000000000 0.2978651041 0.3260675708 574.6031004322 0.1593700589 0.3379070445
-0.4689703213 0.7488494601 0.0000000000 0.2975923545 0.2956536617 606.1605602064 0.1589045375 0.3386383417
-0.4858815838 0.7232056985 0.0000000000 0.2976202014 0.2655389141 636.9146376541 0.1584088821 0.3392919119
-0.5017161384 0.6968315376 0.0000000000 0.2980111552 0.2356062716 666.9155716474 0.1578891751 0.3398709931
-0.5164428968 0.6697749343 0.0000000000 0.2988361842 0.2057432445 696.1836279138 0.1573503397 0.3403774929
-0.5300333843 0.6420843516 0.0000000000 0.3001708035 0.1758845305 724.7118787197 0.1567966108 0.3408127834
-0.5424615858 0.6138089735 0.0000000000 0.3020930008 0.1459994806 752.4715026226 0.1562317304 0.3411779958
-0.5537038942 0.5849987179 0.0000000000 0.3046834568 0.1160747940 779.4144600374 0.1556590371 0.3414741162
-0.5637390979 0.5557041681 0.0000000000 0.3080260979 0.0861068718 805.4733542407 0.1550815140 0.3417020002
-0.5725483722 0.5259764771 0.0000000000 0.3122078997 0.0561015313 830.5600309738 0.1545018274 0.3418623620
-0.5801152592 0.4958672716 0.0000000000 0.3173179058 0.0260761903 854.5642566933 0.1539223749 0.3419557652
-0.5864256254 0.4654285682 0.0000000000 0.3234457420 -0.0039381156 877.3531191657 0.1533453522 0.3419826258
-0.5914675915 0.4347127050 0.0000000000 0.3306798082 -0.0338954930 898.7713275880 0.1527728433 0.3419432319
-0.5952314389 0.4037722894 0.0000000000 0.3391052111 -0.0637345935 918.6424193626 0.1522069309 0.3418377806
-0.5977095022 0.3726601581 0.0000000000 0.3488014776 -0.0933784949 936.7708482500 0.1516498166 0.3416664278
-0.5988960666 0.3414293490 0.0000000000 0.3598401210 -0.1227350199 952.9449086007 0.1511039334 0.3414293493
-0.5987872862 0.3101330827 0.0000000000 0.3722821702 -0.1516974946 966.9404075404 0.1505720325 0.3411268137
-0.5973811382 0.2788247574 0.0000000000 0.3861757839 -0.1801459221 978.5249499127 0.1500572315 0.3407592668
-0.5946774178 0.2475579584 0.0000000000 0.4015540677 -0.2079484984 987.4626761790 0.1495630169 0.3403274322
-0.5906777682 0.2163864844 0.0000000000 0.4184331898 -0.2349633850 993.5193024206 0.1490932093 0.3398324275
-0.5853857285 0.1853643895 0.0000000000 0.4368108628 -0.2610406935 996.4673421106 0.1486519054 0.3392758965
-0.5788067797 0.1545460355 0.0000000000 0.4566652032 -0.2860247213 996.0914168716 0.1482434197 0.3386601511
-0.5709483670 0.1239861457 0.0000000000 0.4779539154 -0.3097565670 992.1935616500 0.1478722447 0.3379883142
-0.5618198832 0.0937398495 0.0000000000 0.5006136770 -0.3320772692 984.5983947422 0.1475430480 0.3372644517