 TITLE = "Tecplot data"
 VARIABLES = "X", "Y", "Z" "U", "V", "p", "dispX", "dispY"
 ZONE SOLUTIONTIME=41.900000, NODES=26114 , ELEMENTS=25916, DATAPACKING=POINT, ZONETYPE=FEQUADRILATERAL
0.4347346730 0.4892755213 0.0000000000 0.0000000000 0.0000000000 -629.9682482322 0.0811812824 0.1357221306
0.4347346733 -0.2178312597 0.0000000000 0.0000000000 0.0000000000 -497.6896798202 0.0811812824 0.1357221306
-0.2723721083 0.4892755211 0.0000000000 0.0000000000 0.0000000000 -261.6202241336 0.0811812824 0.1357221306
-0.2723721080 -0.2178312601 0.0000000000 0.0000000000 0.0000000000 52.6982769816 0.0811812824 0.1357221306
0.6102291165 0.6662067783 0.0000000000 0.1880049438 0.1605654167 -629.5273641646 0.0798990307 0.1358766923
0.6146061889 -0.3891783804 0.0000000000 0.3641973687 0.2324690071 -416.9664867932 0.0842761027 0.1411517051
-0.4448439060 0.6706510567 0.0000000000 0.9233461030 0.6106491482 -20.0383848725 0.0854861801 0.1403209710
-0.4504184198 -0.3922660319 0.0000000000 0.8088367968 -0.3903528734 110.2865604616 0.0799116658 0.1380640543
1.1439982906 1.1983496945 0.0000000000 1.2477111863 -0.3064883005 -253.9755976771 0.0833381189 0.1376895226
1.1413098647 -0.9202194287 0.0000000000 0.8078663787 -0.0871475732 -92.5074870265 0.0806496921 0.1404407423
-0.9690640380 1.2110520730 0.0000000000 1.0015860546 0.2091881233 70.3799804974 0.0915961341 0.1503919016
-0.9840567707 -0.9142481327 0.0000000000 0.8988840696 -0.1268671822 93.2613032099 0.0766034005 0.1464120396
4.2901848131 3.4211689904 0.0000000000 1.0219326652 0.0151561507 15.8952643198 0.0901848131 0.1211689904
4.2611587586 -3.1790863169 0.0000000000 1.0663861230 0.0836190650 -8.8597923938 0.0611587586 0.1209136831
20.0000000000 4.7000000000 0.0000000000 1.0136538649 -0.0681470546 -0.1752395907 0.0000000000 0.0000000000
20.0000000000 -4.7000000000 0.0000000000 1.0862817755 0.0178080839 -0.1417397354 0.0000000000 0.0000000000
-10.0000000000 15.0000000000 0.0000000000 1.0000000000 0.0000000000 29.5501265304 0.0000000000 0.0000000000
20.0000000000 15.0000000000 0.0000000000 1.0169261790 0.0000000000 -0.0394534812 0.0000000000 0.0000000000
20.0000000000 -15.0000000000 0.0000000000 1.0192354899 0.0000000000 -0.0362329043 0.0000000000 0.0000000000
-10.0000000000 -15.0000000000 0.0000000000 1.0000000000 0.0000000000 32.4111674749 0.0000000000 0.0000000000
0.4477072186 -0.2043642380 0.0000000000 0.0000000000 0.0000000000 -492.4642880238 0.0811812824 0.1357221306
0.4601671442 -0.1904215747 0.0000000000 0.0000000000 0.0000000000 -487.4209375985 0.0811812824 0.1357221306
0.4720970238 -0.1760227700 0.0000000000 0.0000000000 0.0000000000 -483.7854431276 0.0811812824 0.1357221306
0.4834801725 -0.1611879619 0.0000000000 0.0000000000 0.0000000000 -480.9160877752 0.0811812824 0.1357221306
0.4943006697 -0.1459378981 0.0000000000 0.0000000000 0.0000000000 -479.4586566075 0.0811812824 0.1357221306
0.5045433822 -0.1302939074 0.0000000000 0.0000000000 0.0000000000 -479.3085078098 0.0811812824 0.1357221306
0.5141939845 -0.1142778691 0.0000000000 0.0000000000 0.0000000000 -480.5979992109 0.0811812824 0.1357221306
0.5232389793 -0.0979121832 0.0000000000 0.0000000000 0.0000000000 -483.4935210844 0.0811812824 0.1357221306
0.5316657165 -0.0812197387 0.0000000000 0.0000000000 0.0000000000 -487.3543986030 0.0811812824 0.1357221306
0.5394624105 -0.0642238813 0.0000000000 0.0000000000 0.0000000000 -493.4876682242 0.0811812824 0.1357221306
0.5466181568 -0.0469483813 0.0000000000 0.0000000000 0.0000000000 -498.1579453624 0.0811812824 0.1357221306
0.5531229476 -0.0294174001 0.0000000000 0.0000000000 0.0000000000 -506.0443845868 0.0811812824 0.1357221306
0.5589676854 -0.0116554563 0.0000000000 0.0000000000 0.0000000000 -513.5259432412 0.0811812824 0.1357221306
0.5641441956 0.0063126083 0.0000000000 0.0000000000 0.0000000000 -521.7886924041 0.0811812824 0.1357221306
0.5686452386 0.0244616639 0.0000000000 0.0000000000 0.0000000000 -530.0627185517 0.0811812824 0.1357221306
0.5724645191 0.0427663273 0.0000000000 0.0000000000 0.0000000000 -538.3475686712 0.0811812824 0.1357221306
0.5755966956 0.0612009978 0.0000000000 0.0000000000 0.0000000000 -546.4396184190 0.0811812824 0.1357221306
0.5780373874 0.0797398928 0.0000000000 0.0000000000 0.0000000000 -554.2605047169 0.0811812824 0.1357221306
0.5797831810 0.0983570841 0.0000000000 0.0000000000 0.0000000000 -561.7246551820 0.0811812824 0.1357221306
0.5808316348 0.1170265337 0.0000000000 0.0000000000 0.0000000000 -568.8026136150 0.0811812824 0.1357221306
0.5811812824 0.1357221308 0.0000000000 0.0000000000 0.0000000000 -575.4734548789 0.0811812824 0.1357221306
0.5808316348 0.1544177280 0.0000000000 0.0000000000 0.0000000000 -581.7336991925 0.0811812824 0.1357221306
0.5797831810 0.1730871776 0.0000000000 0.0000000000 0.0000000000 -587.5949193551 0.0811812824 0.1357221306
0.5780373873 0.1917043689 0.0000000000 0.0000000000 0.0000000000 -593.0609524462 0.0811812824 0.1357221306
0.5755966955 0.2102432639 0.0000000000 0.0000000000 0.0000000000 -598.1632556287 0.0811812824 0.1357221306
0.5724645190 0.2286779344 0.0000000000 0.0000000000 0.0000000000 -602.8819710003 0.0811812824 0.1357221306
0.5686452385 0.2469825978 0.0000000000 0.0000000000 0.0000000000 -607.2522904189 0.0811812824 0.1357221306
0.5641441955 0.2651316533 0.0000000000 0.0000000000 0.0000000000 -611.2576088910 0.0811812824 0.1357221306
0.5589676853 0.2830997180 0.0000000000 0.0000000000 0.0000000000 -614.8984210912 0.0811812824 0.1357221306
0.5531229475 0.3008616617 0.0000000000 0.0000000000 0.0000000000 -618.1667207451 0.0811812824 0.1357221306
0.5466181567 0.3183926429 0.0000000000 0.0000000000 0.0000000000 -621.0520087672 0.0811812824 0.1357221306
0.5394624103 0.3356681429 0.0000000000 0.0000000000 0.0000000000 -623.5497586221 0.0811812824 0.1357221306
0.5316657163 0.3526640003 0.0000000000 0.0000000000 0.0000000000 -625.6494982706 0.0811812824 0.1357221306
0.5232389791 0.3693564449 0.0000000000 0.0000000000 0.0000000000 -627.3668443435 0.0811812824 0.1357221306
0.5141939842 0.3857221307 0.0000000000 0.0000000000 0.0000000000 -628.6891034136 0.0811812824 0.1357221306
0.5045433820 0.4017381690 0.0000000000 0.0000000000 0.0000000000 -629.6688964879 0.0811812824 0.1357221306
0.4943006695 0.4173821597 0.0000000000 0.0000000000 0.0000000000 -630.2660856041 0.0811812824 0.1357221306
0.4834801722 0.4326322235 0.0000000000 0.0000000000 0.0000000000 -630.6250776645 0.0811812824 0.1357221306
0.4720970236 0.4474670316 0.0000000000 0.0000000000 0.0000000000 -630.5776463943 0.0811812824 0.1357221306
0.4601671439 0.4618658363 0.0000000000 0.0000000000 0.0000000000 -630.5388941796 0.0811812824 0.1357221306
0.4477072183 0.4758084996 0.0000000000 0.0000000000 0.0000000000 -629.9188780849 0.0811812824 0.1357221306
0.4198220682 0.5035840860 0.0000000000 0.0000000000 0.0000000000 -628.9869317533 0.0811812824 0.1357221306
0.4043309013 0.5172641648 0.0000000000 0.0000000000 0.0000000000 -628.9490060586 0.0811812824 0.1357221306
0.3882876387 0.5302923854 0.0000000000 0.0000000000 0.0000000000 -628.6906820103 0.0811812824 0.1357221306
0.3717196901 0.5426464893 0.0000000000 0.0000000000 0.0000000000 -629.0924207221 0.0811812824 0.1357221306
0.3546553614 0.5543053698 0.0000000000 0.0000000000 0.0000000000 -629.8007000862 0.0811812824 0.1357221306
0.3371238069 0.5652491078 0.0000000000 0.0000000000 0.0000000000 -631.1243523998 0.0811812824 0.1357221306
0.3191549789 0.5754590063 0.0000000000 0.0000000000 0.0000000000 -632.9365544098 0.0811812824 0.1357221306
0.3007795768 0.5849176216 0.0000000000 0.0000000000 0.0000000000 -635.3033204770 0.0811812824 0.1357221306
0.2820289947 0.5936087940 0.0000000000 0.0000000000 0.0000000000 -638.1314516576 0.0811812824 0.1357221306
0.2629352676 0.6015176747 0.0000000000 0.0000000000 0.0000000000 -641.3777510105 0.0811812824 0.1357221306
0.2435310169 0.6086307515 0.0000000000 0.0000000000 0.0000000000 -644.9394012613 0.0811812824 0.1357221306
0.2238493945 0.6149358719 0.0000000000 0.0000000000 0.0000000000 -648.7211464310 0.0811812824 0.1357221306
0.2039240259 0.6204222636 0.0000000000 0.0000000000 0.0000000000 -652.6010940976 0.0811812824 0.1357221306
0.1837889534 0.6250805533 0.0000000000 0.0000000000 0.0000000000 -656.4508272437 0.0811812824 0.1357221306
0.1634785775 0.6289027823 0.0000000000 0.0000000000 0.0000000000 -660.1244478170 0.0811812824 0.1357221306
0.1430275979 0.6318824205 0.0000000000 0.0000000000 0.0000000000 -663.4640948871 0.0811812824 0.1357221306
0.1224709550 0.6340143771 0.0000000000 0.0000000000 0.0000000000 -666.2965062218 0.0811812824 0.1357221306
0.1018437694 0.6352950098 0.0000000000 0.0000000000 0.0000000000 -668.4358398934 0.0811812824 0.1357221306
0.0811812823 0.6357221306 0.0000000000 0.0000000000 0.0000000000 -669.6812016575 0.0811812824 0.1357221306
0.0605187952 0.6352950098 0.0000000000 0.0000000000 0.0000000000 -669.8227310757 0.0811812824 0.1357221306
0.0398916096 0.6340143771 0.0000000000 0.0000000000 0.0000000000 -668.6345500826 0.0811812824 0.1357221306
0.0193349667 0.6318824205 0.0000000000 0.0000000000 0.0000000000 -665.8945700925 0.0811812824 0.1357221306
-0.0011160128 0.6289027823 0.0000000000 0.0000000000 0.0000000000 -661.3527793200 0.0811812824 0.1357221306
-0.0214263888 0.6250805533 0.0000000000 0.0000000000 0.0000000000 -654.7850837472 0.0811812824 0.1357221306
-0.0415614613 0.6204222636 0.0000000000 0.0000000000 0.0000000000 -645.9533398066 0.0811812824 0.1357221306
-0.0614868298 0.6149358718 0.0000000000 0.0000000000 0.0000000000 -634.6518737693 0.0811812824 0.1357221306
-0.0811684523 0.6086307514 0.0000000000 0.0000000000 0.0000000000 -620.6564793042 0.0811812824 0.1357221306
-0.1005727030 0.6015176746 0.0000000000 0.0000000000 0.0000000000 -603.7723837566 0.0811812824 0.1357221306
-0.1196664300 0.5936087939 0.0000000000 0.0000000000 0.0000000000 -583.8910606076 0.0811812824 0.1357221306
-0.1384170121 0.5849176215 0.0000000000 0.0000000000 0.0000000000 -560.8316803768 0.0811812824 0.1357221306
-0.1567924142 0.5754590062 0.0000000000 0.0000000000 0.0000000000 -534.3749041004 0.0811812824 0.1357221306
-0.1747612423 0.5652491077 0.0000000000 0.0000000000 0.0000000000 -505.6570463311 0.0811812824 0.1357221306
-0.1922927968 0.5543053697 0.0000000000 0.0000000000 0.0000000000 -469.0166232428 0.0811812824 0.1357221306
-0.2093571254 0.5426464892 0.0000000000 0.0000000000 0.0000000000 -447.8429617761 0.0811812824 0.1357221306
-0.2259250741 0.5302923852 0.0000000000 0.0000000000 0.0000000000 -365.2779004433 0.0811812824 0.1357221306
-0.2419683366 0.5172641646 0.0000000000 0.0000000000 0.0000000000 -353.6326261337 0.0811812824 0.1357221306
-0.2574595035 0.5035840859 0.0000000000 0.0000000000 0.0000000000 -308.9828219558 0.0811812824 0.1357221306
-0.2866806730 0.4743629163 0.0000000000 0.0000000000 0.0000000000 -211.9395541258 0.0811812824 0.1357221306
-0.3003607518 0.4588717494 0.0000000000 0.0000000000 0.0000000000 -160.4971863555 0.0811812824 0.1357221306
-0.3133889724 0.4428284868 0.0000000000 0.0000000000 0.0000000000 -107.5687323941 0.0811812824 0.1357221306
-0.3257430763 0.4262605382 0.0000000000 0.0000000000 0.0000000000 -53.6100153821 0.0811812824 0.1357221306
-0.3374019568 0.4091962096 0.0000000000 0.0000000000 0.0000000000 0.9570020463 0.0811812824 0.1357221306
-0.3483456949 0.3916646550 0.0000000000 0.0000000000 0.0000000000 55.6725882745 0.0811812824 0.1357221306
-0.3585555933 0.3736958270 0.0000000000 0.0000000000 0.0000000000 110.0706719287 0.0811812824 0.1357221306
-0.3680142086 0.3553204249 0.0000000000 0.0000000000 0.0000000000 163.6768739386 0.0811812824 0.1357221306
-0.3767053810 0.3365698428 0.0000000000 0.0000000000 0.0000000000 216.0167588758 0.0811812824 0.1357221306
-0.3846142617 0.3174761157 0.0000000000 0.0000000000 0.0000000000 266.6209018173 0.0811812824 0.1357221306
-0.3917273385 0.2980718651 0.0000000000 0.0000000000 0.0000000000 315.0304990529 0.0811812824 0.1357221306
-0.3980324589 0.2783902426 0.0000000000 0.0000000000 0.0000000000 360.8025489184 0.0811812824 0.1357221306
-0.4035188506 0.2584648740 0.0000000000 0.0000000000 0.0000000000 403.5145743911 0.0811812824 0.1357221306
-0.4081771403 0.2383298015 0.0000000000 0.0000000000 0.0000000000 442.7692843482 0.0811812824 0.1357221306
-0.4119993693 0.2180194256 0.0000000000 0.0000000000 0.0000000000 478.1982637993 0.0811812824 0.1357221306
-0.4149790075 0.1975684461 0.0000000000 0.0000000000 0.0000000000 509.4663373718 0.0811812824 0.1357221306
-0.4171109641 0.1770118032 0.0000000000 0.0000000000 0.0000000000 536.2735442801 0.0811812824 0.1357221306
-0.4183915968 0.1563846176 0.0000000000 0.0000000000 0.0000000000 558.3603068420 0.0811812824 0.1357221306
-0.4188187176 0.1357221304 0.0000000000 0.0000000000 0.0000000000 575.5055884941 0.0811812824 0.1357221306
-0.4183915968 0.1150596433 0.0000000000 0.0000000000 0.0000000000 587.5365846548 0.0811812824 0.1357221306
-0.4171109641 0.0944324577 0.0000000000 0.0000000000 0.0000000000 594.3163216935 0.0811812824 0.1357221306
-0.4149790074 0.0738758148 0.0000000000 0.0000000000 0.0000000000 595.7699610147 0.0811812824 0.1357221306
-0.4119993693 0.0534248353 0.0000000000 0.0000000000 0.0000000000 591.8401137035 0.0811812824 0.1357221306
-0.4081771402 0.0331144593 0.0000000000 0.0000000000 0.0000000000 582.5687867833 0.0811812824 0.1357221306
-0.4035188505 0.0129793868 0.0000000000 0.0000000000 0.0000000000 567.9503842401 0.0811812824 0.1357221306
-0.3980324588 -0.0069459817 0.0000000000 0.0000000000 0.0000000000 548.1951903546 0.0811812824 0.1357221306
-0.3917273384 -0.0266276042 0.0000000000 0.0000000000 0.0000000000 523.2537911802 0.0811812824 0.1357221306
-0.3846142615 -0.0460318549 0.0000000000 0.0000000000 0.0000000000 493.6696066040 0.0811812824 0.1357221306
-0.3767053808 -0.0651255819 0.0000000000 0.0000000000 0.0000000000 459.0400107322 0.0811812824 0.1357221306
-0.3680142084 -0.0838761640 0.0000000000 0.0000000000 0.0000000000 420.7852114836 0.0811812824 0.1357221306
-0.3585555931 -0.1022515661 0.0000000000 0.0000000000 0.0000000000 377.1450354732 0.0811812824 0.1357221306
-0.3483456947 -0.1202203941 0.0000000000 0.0000000000 0.0000000000 332.2102225510 0.0811812824 0.1357221306
-0.3374019566 -0.1377519486 0.0000000000 0.0000000000 0.0000000000 279.6104890356 0.0811812824 0.1357221306
-0.3257430761 -0.1548162773 0.0000000000 0.0000000000 0.0000000000 231.8602559624 0.0811812824 0.1357221306
-0.3133889721 -0.1713842259 0.0000000000 0.0000000000 0.0000000000 168.7952907320 0.0811812824 0.1357221306
-0.3003607515 -0.1874274885 0.0000000000 0.0000000000 0.0000000000 127.9086191387 0.0811812824 0.1357221306
-0.2866806728 -0.2029186554 0.0000000000 0.0000000000 0.0000000000 209.2010066734 0.0811812824 0.1357221306
-0.2574595032 -0.2321398249 0.0000000000 0.0000000000 0.0000000000 -175.8897795827 0.0811812824 0.1357221306
-0.2419683363 -0.2458199036 0.0000000000 0.0000000000 0.0000000000 40.4429647481 0.0811812824 0.1357221306
-0.2259250737 -0.2588481242 0.0000000000 0.0000000000 0.0000000000 -228.6842237801 0.0811812824 0.1357221306
-0.2093571251 -0.2712022282 0.0000000000 0.0000000000 0.0000000000 -202.9684192744 0.0811812824 0.1357221306
-0.1922927964 -0.2828611086 0.0000000000 0.0000000000 0.0000000000 -310.8032665895 0.0811812824 0.1357221306
-0.1747612419 -0.2938048467 0.0000000000 0.0000000000 0.0000000000 -336.4833314716 0.0811812824 0.1357221306
-0.1567924139 -0.3040147451 0.0000000000 0.0000000000 0.0000000000 -407.0025916302 0.0811812824 0.1357221306
-0.1384170118 -0.3134733604 0.0000000000 0.0000000000 0.0000000000 -446.3304447804 0.0811812824 0.1357221306
-0.1196664297 -0.3221645328 0.0000000000 0.0000000000 0.0000000000 -498.8680350410 0.0811812824 0.1357221306
-0.1005727026 -0.3300734135 0.0000000000 0.0000000000 0.0000000000 -537.6986604588 0.0811812824 0.1357221306
-0.0811684519 -0.3371864903 0.0000000000 0.0000000000 0.0000000000 -578.1703903181 0.0811812824 0.1357221306
-0.0614868294 -0.3434916107 0.0000000000 0.0000000000 0.0000000000 -610.7384077058 0.0811812824 0.1357221306
-0.0415614609 -0.3489780024 0.0000000000 0.0000000000 0.0000000000 -640.5941302986 0.0811812824 0.1357221306
-0.0214263884 -0.3536362921 0.0000000000 0.0000000000 0.0000000000 -664.4054212873 0.0811812824 0.1357221306
-0.0011160124 -0.3574585211 0.0000000000 0.0000000000 0.0000000000 -683.8410198283 0.0811812824 0.1357221306
0.0193349671 -0.3604381593 0.0000000000 0.0000000000 0.0000000000 -697.8835812034 0.0811812824 0.1357221306
0.0398916100 -0.3625701159 0.0000000000 0.0000000000 0.0000000000 -707.2025681895 0.0811812824 0.1357221306
0.0605187956 -0.3638507486 0.0000000000 0.0000000000 0.0000000000 -711.6243570277 0.0811812824 0.1357221306
0.0811812827 -0.3642778694 0.0000000000 0.0000000000 0.0000000000 -711.6535136797 0.0811812824 0.1357221306
0.1018437698 -0.3638507486 0.0000000000 0.0000000000 0.0000000000 -707.5601994407 0.0811812824 0.1357221306
0.1224709555 -0.3625701158 0.0000000000 0.0000000000 0.0000000000 -699.9355484000 0.0811812824 0.1357221306
0.1430275984 -0.3604381592 0.0000000000 0.0000000000 0.0000000000 -689.2773576029 0.0811812824 0.1357221306
0.1634785779 -0.3574585210 0.0000000000 0.0000000000 0.0000000000 -676.3929252990 0.0811812824 0.1357221306
0.1837889538 -0.3536362920 0.0000000000 0.0000000000 0.0000000000 -661.7134009152 0.0811812824 0.1357221306
0.2039240263 -0.3489780023 0.0000000000 0.0000000000 0.0000000000 -646.1426119023 0.0811812824 0.1357221306
0.2238493948 -0.3434916105 0.0000000000 0.0000000000 0.0000000000 -630.0904573228 0.0811812824 0.1357221306
0.2435310173 -0.3371864901 0.0000000000 0.0000000000 0.0000000000 -614.3212586705 0.0811812824 0.1357221306
0.2629352680 -0.3300734133 0.0000000000 0.0000000000 0.0000000000 -598.9810400106 0.0811812824 0.1357221306
0.2820289950 -0.3221645326 0.0000000000 0.0000000000 0.0000000000 -584.5610426426 0.0811812824 0.1357221306
0.3007795771 -0.3134733602 0.0000000000 0.0000000000 0.0000000000 -571.2176845851 0.0811812824 0.1357221306
0.3191549792 -0.3040147448 0.0000000000 0.0000000000 0.0000000000 -558.9839183534 0.0811812824 0.1357221306
0.3371238072 -0.2938048464 0.0000000000 0.0000000000 0.0000000000 -547.4729669331 0.0811812824 0.1357221306
0.3546553618 -0.2828611083 0.0000000000 0.0000000000 0.0000000000 -538.9668870327 0.0811812824 0.1357221306
0.3717196904 -0.2712022278 0.0000000000 0.0000000000 0.0000000000 -523.0326667684 0.0811812824 0.1357221306
0.3882876390 -0.2588481239 0.0000000000 0.0000000000 0.0000000000 -534.2417954521 0.0811812824 0.1357221306
0.4043309016 -0.2458199032 0.0000000000 0.0000000000 0.0000000000 -512.9722570970 0.0811812824 0.1357221306
0.4198220685 -0.2321398245 0.0000000000 0.0000000000 0.0000000000 -503.2499334746 0.0811812824 0.1357221306
0.6339503658 -0.3690068710 0.0000000000 0.3053687623 0.2629535119 -418.4589616160 0.0841614616 0.1411226820
0.6525154834 -0.3479861733 0.0000000000 0.2519731502 0.2927937472 -419.5922258439 0.0840366908 0.1412293848
0.6702820955 -0.3262412521 0.0000000000 0.2049266848 0.3214085773 -420.5157585766 0.0839084833 0.1413760989
0.6872194609 -0.3038334068 0.0000000000 0.1647589972 0.3481354808 -421.3904557757 0.0837711258 0.1415317320
0.7033022497 -0.2808072108 0.0000000000 0.1316810795 0.3723468016 -422.4272314109 0.0836231687 0.1416828323
0.7185085099 -0.2572013006 0.0000000000 0.1055544505 0.3935691747 -423.8330818138 0.0834653602 0.1418227564
0.7328182627 -0.2330520054 0.0000000000 0.0858960534 0.4115726472 -425.7761411352 0.0832992096 0.1419479942
0.7462128777 -0.2083948153 0.0000000000 0.0719372959 0.4263956583 -428.3639638416 0.0831263323 0.1420566555
0.7586748579 -0.1832650656 0.0000000000 0.0627240263 0.4383071952 -431.6383171719 0.0829482068 0.1421477383
0.7701878186 -0.1576982810 0.0000000000 0.0572284419 0.4477287027 -435.5831740357 0.0827661265 0.1422207369
0.7807365408 -0.1317303480 0.0000000000 0.0544459452 0.4551447998 -440.1400454189 0.0825812291 0.1422754199
0.7903070383 -0.1053975913 0.0000000000 0.0534616070 0.4610261019 -445.2250109017 0.0823945404 0.1423117048
0.7988866113 -0.0787367964 0.0000000000 0.0534837852 0.4657763238 -450.7437381045 0.0822070069 0.1423295840
0.8064638851 -0.0517852023 0.0000000000 0.0538513077 0.4697054359 -456.6029415065 0.0820195153 0.1423290812
0.8130288368 -0.0245804769 0.0000000000 0.0540241287 0.4730240534 -462.7182581540 0.0818329025 0.1423102232
0.8185728189 0.0028393171 0.0000000000 0.0535667943 0.4758517667 -469.0192267462 0.0816479639 0.1422730221
0.8230885811 0.0304357653 0.0000000000 0.0521314561 0.4782325535 -475.4521555545 0.0814654614 0.1422174646
0.8265702923 0.0581701505 0.0000000000 0.0494442295 0.4801522489 -481.9814576503 0.0812861349 0.1421435073
0.8290135613 0.0860035084 0.0000000000 0.0452963102 0.4815551328 -488.5897560879 0.0811107134 0.1420510783
0.8304154545 0.1138966901 0.0000000000 0.0395396937 0.4823583916 -495.2768457481 0.0809399259 0.1419400855
0.8307745100 0.1418104314 0.0000000000 0.0320865086 0.4824642878 -502.0574849062 0.0807745100 0.1418104311
0.8300907470 0.1697054296 0.0000000000 0.0229107523 0.4817702788 -508.9579739912 0.0806152184 0.1416620336
0.8283656718 0.1975424260 0.0000000000 0.0120517221 0.4801770811 -516.0115431307 0.0804628239 0.1414948555
0.8256022828 0.2252822939 0.0000000000 -0.0003800200 0.4775938366 -523.2526891815 0.0803181254 0.1413089366
0.8218050738 0.2528861289 0.0000000000 -0.0141908338 0.4739385580 -530.7107277818 0.0801819542 0.1411044290
0.8169800376 0.2803153392 0.0000000000 -0.0290812994 0.4691319567 -538.4028936120 0.0800551827 0.1408816336
0.8111346661 0.3075317338 0.0000000000 -0.0446100686 0.4630848406 -546.3273551446 0.0799387320 0.1406410331
0.8042779463 0.3344976043 0.0000000000 -0.0601508621 0.4556834846 -554.4566818501 0.0798335766 0.1403833203
0.7964203463 0.3611758009 0.0000000000 -0.0748620184 0.4467812361 -562.7327242256 0.0797407421 0.1401094199
0.7875737884 0.3875297984 0.0000000000 -0.0876950839 0.4362043956 -571.0642434864 0.0796612907 0.1398205018
0.7777516030 0.4135237541 0.0000000000 -0.0974612589 0.4237745081 -579.3283888863 0.0795962915 0.1395179857
0.7669684592 0.4391225535 0.0000000000 -0.1029525129 0.4093404106 -587.3761605628 0.0795467674 0.1392035351
0.7552402664 0.4642918424 0.0000000000 -0.1030893285 0.3928072281 -595.0410606354 0.0795136156 0.1388790379
0.7425840427 0.4889980405 0.0000000000 -0.0970530954 0.3741500695 -602.1501415385 0.0794974977 0.1385465692
0.7290177583 0.5132083275 0.0000000000 -0.0843641356 0.3534073801 -608.5376410693 0.0794987055 0.1382083274
0.7145601794 0.5368905974 0.0000000000 -0.0648822601 0.3306592369 -614.0622932438 0.0795170300 0.1378665399
0.6992307634 0.5600133932 0.0000000000 -0.0387275066 0.3060048042 -618.6288760921 0.0795516828 0.1375233496
0.6830496544 0.5825458728 0.0000000000 -0.0061387994 0.2795567832 -622.2120317059 0.0796013197 0.1371807335
0.6660377465 0.6044579270 0.0000000000 0.0326947102 0.2514668688 -624.8766294976 0.0796641348 0.1368405755
0.6482165853 0.6257207274 0.0000000000 0.0777789593 0.2219816557 -626.7861523460 0.0797377930 0.1365051689
0.6296072377 0.6463085189 0.0000000000 0.1293924930 0.1915134862 -628.1965928609 0.0798183339 0.1361789655
0.5880242253 0.6872877728 0.0000000000 0.2615848806 0.1271404726 -630.8673120975 0.0800630467 0.1354948397
0.5649656848 0.7074869986 0.0000000000 0.3452766098 0.0959081322 -632.6769227015 0.0802412564 0.1351739473
0.5410929688 0.7267459668 0.0000000000 0.4387841942 0.0684189731 -634.9753635906 0.0804334343 0.1348905847
0.5164468417 0.7450259261 0.0000000000 0.5410162401 0.0461496469 -637.6714177978 0.0806392303 0.1346393881
0.4910680507 0.7622925546 0.0000000000 0.6500090890 0.0303083586 -640.5182681071 0.0808569322 0.1344176958
0.4649986517 0.7785143320 0.0000000000 0.7631203893 0.0217347935 -643.1534233812 0.0810848650 0.1342238662
0.4382821044 0.7936623927 0.0000000000 0.8773017917 0.0208648073 -645.1605050437 0.0813215597 0.1340570793
0.4109631124 0.8077105266 0.0000000000 0.9893684681 0.0277319016 -646.1234318844 0.0815656709 0.1339172902
0.3830874345 0.8206350373 0.0000000000 1.0962333315 0.0419872044 -645.6684609026 0.0818158662 0.1338050423
0.3547017551 0.8324145220 0.0000000000 1.1951090067 0.0629389963 -643.4945675513 0.0820707773 0.1337212060
0.3258536133 0.8430296702 0.0000000000 1.2836780372 0.0896162617 -639.3923381795 0.0823290115 0.1336667389
0.2965913554 0.8524631181 0.0000000000 1.3602201048 0.1208544226 -633.2506631186 0.0825891873 0.1336425062
0.2669640817 0.8606993562 0.0000000000 1.4236824237 0.1553943344 -625.0515729871 0.0828499664 0.1336491567
0.2370215727 0.8677246766 0.0000000000 1.4736863167 0.1919820893 -614.8556236431 0.0831100661 0.1336870426
0.2068141930 0.8735271540 0.0000000000 1.5104730653 0.2294572941 -602.7815589107 0.0833682504 0.1337561765
0.1763927782 0.8780966592 0.0000000000 1.5348009052 0.2668201391 -588.9840315860 0.0836233049 0.1338562243
0.1458085143 0.8814249014 0.0000000000 1.5478106667 0.3032717091 -573.6323938767 0.0838740054 0.1339865316
0.1151128179 0.8835054931 0.0000000000 1.5508796108 0.3382266256 -556.8925935414 0.0841190874 0.1341461744
0.0843572247 0.8843340225 0.0000000000 1.5454817253 0.3713013187 -538.9133547896 0.0843572248 0.1343340225
0.0535932887 0.8839081181 0.0000000000 1.5330688156 0.4022842563 -519.8171392297 0.0845870196 0.1345487993
0.0228724927 0.8822274930 0.0000000000 1.5149812252 0.4310958704 -499.6958265968 0.0848070020 0.1347891232
-0.0077538337 0.8792939604 0.0000000000 1.4923911977 0.4577457298 -478.6105999805 0.0850156399 0.1350535257
-0.0382345897 0.8751114206 0.0000000000 1.4662768463 0.4822930579 -456.5951812828 0.0852113532 0.1353404431
-0.0685189763 0.8696858232 0.0000000000 1.4374211854 0.5048145662 -433.6613731176 0.0853925305 0.1356481893
-0.0985565669 0.8630251145 0.0000000000 1.4064289636 0.5253813540 -409.8058388958 0.0855575487 0.1359749151
-0.1282973751 0.8551391759 0.0000000000 1.3737539383 0.5440447839 -385.0171735192 0.0857047933 0.1363185641
-0.1576919198 0.8460397607 0.0000000000 1.3397302824 0.5608300142 -359.2825334107 0.0858326823 0.1366768295
-0.1866912863 0.8357404298 0.0000000000 1.3046034454 0.5757352779 -332.5933471974 0.0859396918 0.1370471139
-0.2152471863 0.8242564862 0.0000000000 1.2685575225 0.5887349260 -304.9498667263 0.0860243824 0.1374264913
-0.2433120194 0.8116049028 0.0000000000 1.2317376864 0.5997845090 -276.3645064985 0.0860854224 0.1378116665
-0.2708389473 0.7978042326 0.0000000000 1.1942673528 0.6088265945 -246.8640477867 0.0861215977 0.1381989193
-0.2977819964 0.7828744770 0.0000000000 1.1562604377 0.6157964459 -216.4908254816 0.0861317905 0.1385840113
-0.3240962293 0.7668368554 0.0000000000 1.1178294061 0.6206270839 -185.3030817577 0.0861148895 0.1389619968
-0.3497380793 0.7497133302 0.0000000000 1.0790897042 0.6232534725 -153.3742340105 0.0860695324 0.1393267923
-0.3746661136 0.7315254763 0.0000000000 1.0401611385 0.6236160070 -120.7920506219 0.0859934211 0.1396700944
-0.3988429955 0.7122913990 0.0000000000 1.0011636143 0.6216621775 -87.6506942727 0.0858814330 0.1399783480
-0.4222410945 0.6920162766 0.0000000000 0.9622089449 0.6173510539 -54.0586920258 0.0857200844 0.1402233438
-0.4663829674 0.6488715399 0.0000000000 0.8855799018 0.6013566227 13.7153201319 0.0854099658 0.1409103613
-0.4870406470 0.6260926002 0.0000000000 0.8482636624 0.5897449788 47.4883889981 0.0852724043 0.1413681720
-0.5067622350 0.6024228539 0.0000000000 0.8116719190 0.5757641131 81.0866083248 0.0850931472 0.1417633196
-0.5255000574 0.5779228257 0.0000000000 0.7759994473 0.5594404326 114.3172112156 0.0848864807 0.1421152143
-0.5432153169 0.5526417719 0.0000000000 0.7414302598 0.5408163299 146.9943142004 0.0846595419 0.1424306535
-0.5598738216 0.5266261308 0.0000000000 0.7081410928 0.5199516367 178.9322667687 0.0844166443 0.1427123442
-0.5754443879 0.4999220800 0.0000000000 0.6763043854 0.4969222901 209.9447899787 0.0841609256 0.1429615355
-0.5898982705 0.4725763739 0.0000000000 0.6460877435 0.4718202325 239.8458487828 0.0838949661 0.1431789325
-0.6032089688 0.4446366069 0.0000000000 0.6176528561 0.4447530544 268.4511132366 0.0836210263 0.1433650387
-0.6153521716 0.4161512613 0.0000000000 0.5911540854 0.4158435272 295.5796418178 0.0833411446 0.1435202837
-0.6263057541 0.3871696654 0.0000000000 0.5667369857 0.3852289700 321.0556264602 0.0830571772 0.1436450638
-0.6360497941 0.3577419155 0.0000000000 0.5445368227 0.3530604718 344.7101224965 0.0827708178 0.1437397475
-0.6445665892 0.3279187849 0.0000000000 0.5246771375 0.3195019882 366.3827201026 0.0824836103 0.1438046699
-0.6518406681 0.2977516317 0.0000000000 0.5072683764 0.2847293370 385.9231363133 0.0821969660 0.1438401254
-0.6578587883 0.2672923097 0.0000000000 0.4924065973 0.2489291108 403.1927233581 0.0819121893 0.1438463673
-0.6626099195 0.2365930860 0.0000000000 0.4801722714 0.2122975110 418.0658998191 0.0816305153 0.1438236128
-0.6660852127 0.2057065635 0.0000000000 0.4706292063 0.1750390962 430.4315136744 0.0813531571 0.1437720547
-0.6682779603 0.1746856084 0.0000000000 0.4638236300 0.1373654237 440.1941395566 0.0810813585 0.1436918781
-0.6691835553 0.1435832809 0.0000000000 0.4597834713 0.0994935580 447.2752979045 0.0808164447 0.1435832812
-0.6687994568 0.1124527699 0.0000000000 0.4585178514 0.0616444288 451.6145659419 0.0805598619 0.1434465009
-0.6671251696 0.0813473325 0.0000000000 0.4600167747 0.0240410435 453.1705376855 0.0803132001 0.1432818420
-0.6641622387 0.0503202411 0.0000000000 0.4642509768 -0.0130934181 451.9215911778 0.0800781960 0.1430897149
-0.6599142566 0.0194247369 0.0000000000 0.4711718707 -0.0495375786 447.8664369095 0.0798567209 0.1428706800
-0.6543868745 -0.0112860071 0.0000000000 0.4807115378 -0.0850738556 441.0244454256 0.0796507594 0.1426254999
-0.6475878084 -0.0417589178 0.0000000000 0.4927827325 -0.1194904218 431.4357683426 0.0794623910 0.1423551979
-0.6395268281 -0.0719410510 0.0000000000 0.5072789466 -0.1525830999 419.1612823155 0.0792937837 0.1420611175
-0.6302157222 -0.1017796215 0.0000000000 0.5240746590 -0.1841571885 404.2823776661 0.0791472090 0.1417449807