 TITLE = "Tecplot data"
 VARIABLES = "X", "Y", "Z" "U", "V", "p", "dispX", "dispY"
 ZONE SOLUTIONTIME=88.900000, NODES=26114 , ELEMENTS=25916, DATAPACKING=POINT, ZONETYPE=FEQUADRILATERAL
0.6671189700 2.4028396108 0.0000000000 0.0000000000 0.0000000000 -3352.5145137656 0.3135655794 2.0492862202
0.6671189702 1.6957328299 0.0000000000 0.0000000000 0.0000000000 -265.5343973041 0.3135655794 2.0492862202
-0.0399878113 2.4028396107 0.0000000000 0.0000000000 0.0000000000 673.8255994686 0.3135655794 2.0492862202
-0.0399878110 1.6957328294 0.0000000000 0.0000000000 0.0000000000 790.1745444251 0.3135655794 2.0492862202
0.8400892512 2.5786112992 0.0000000000 1.0965835364 -0.4569118450 -1543.2857517007 0.3097591654 2.0482812132
0.8671767039 1.5928186541 0.0000000000 0.1614900716 0.1317284144 -315.0145557600 0.3368466176 2.1231487396
-0.1770171142 2.6398475851 0.0000000000 1.4014265259 0.8032847697 446.9531462039 0.3533129719 2.1095174994
-0.2351907295 1.5535014324 0.0000000000 0.1625137170 -0.0201234953 824.4276495609 0.2951393561 2.0838315186
1.4075295970 3.1373892654 0.0000000000 1.0704546085 0.1301863867 -542.2958258713 0.3468694253 2.0767290935
1.3596695918 1.0483573013 0.0000000000 0.3814414148 0.2153128855 -208.4225289781 0.2990094192 2.1090174723
-0.6410228013 3.3101156364 0.0000000000 1.1443996820 0.3579342914 284.1151056413 0.4196373708 2.2494554650
-0.8065030433 1.1402588027 0.0000000000 0.4955480269 0.1560758821 665.3564878685 0.2541571279 2.2009189750
4.6979477554 5.1231390504 0.0000000000 1.2494998196 -0.0154038663 -240.7157370260 0.4979477554 1.8231390504
4.2893717378 -1.4819209389 0.0000000000 0.2033914809 -0.1663221196 -149.1696103850 0.0893717378 1.8180790611
20.0000000000 4.7000000000 0.0000000000 0.9672364128 0.0049947093 0.2983238736 0.0000000000 0.0000000000
20.0000000000 -4.7000000000 0.0000000000 1.0742840769 -0.0237903618 -0.1266206480 0.0000000000 0.0000000000
-10.0000000000 15.0000000000 0.0000000000 1.0000000000 0.0000000000 121.2243566272 0.0000000000 0.0000000000
20.0000000000 15.0000000000 0.0000000000 1.0457982857 0.0000000000 0.0411510351 0.0000000000 0.0000000000
20.0000000000 -15.0000000000 0.0000000000 1.0489667999 0.0000000000 0.0492279890 0.0000000000 0.0000000000
-10.0000000000 -15.0000000000 0.0000000000 1.0000000000 0.0000000000 166.9887848502 0.0000000000 0.0000000000
0.6800915155 1.7091998516 0.0000000000 0.0000000000 0.0000000000 -308.8666745766 0.3135655794 2.0492862202
0.6925514412 1.7231425148 0.0000000000 0.0000000000 0.0000000000 -321.2800680397 0.3135655794 2.0492862202
0.7044813208 1.7375413195 0.0000000000 0.0000000000 0.0000000000 -354.2224727127 0.3135655794 2.0492862202
0.7158644695 1.7523761277 0.0000000000 0.0000000000 0.0000000000 -378.9624206779 0.3135655794 2.0492862202
0.7266849667 1.7676261914 0.0000000000 0.0000000000 0.0000000000 -407.1017065080 0.3135655794 2.0492862202
0.7369276792 1.7832701822 0.0000000000 0.0000000000 0.0000000000 -435.6412904282 0.3135655794 2.0492862202
0.7465782814 1.7992862205 0.0000000000 0.0000000000 0.0000000000 -465.8705122563 0.3135655794 2.0492862202
0.7556232763 1.8156519063 0.0000000000 0.0000000000 0.0000000000 -498.1672929943 0.3135655794 2.0492862202
0.7640500135 1.8323443509 0.0000000000 0.0000000000 0.0000000000 -532.7001754255 0.3135655794 2.0492862202
0.7718467074 1.8493402083 0.0000000000 0.0000000000 0.0000000000 -570.2919408463 0.3135655794 2.0492862202
0.7790024538 1.8666157083 0.0000000000 0.0000000000 0.0000000000 -610.6548272502 0.3135655794 2.0492862202
0.7855072446 1.8841466895 0.0000000000 0.0000000000 0.0000000000 -655.7168765420 0.3135655794 2.0492862202
0.7913519824 1.9019086332 0.0000000000 0.0000000000 0.0000000000 -704.3949409525 0.3135655794 2.0492862202
0.7965284926 1.9198766979 0.0000000000 0.0000000000 0.0000000000 -757.7912731392 0.3135655794 2.0492862202
0.8010295355 1.9380257535 0.0000000000 0.0000000000 0.0000000000 -816.6048732784 0.3135655794 2.0492862202
0.8048488161 1.9563304169 0.0000000000 0.0000000000 0.0000000000 -879.8217094808 0.3135655794 2.0492862202
0.8079809925 1.9747650873 0.0000000000 0.0000000000 0.0000000000 -948.8331936029 0.3135655794 2.0492862202
0.8104216844 1.9933039824 0.0000000000 0.0000000000 0.0000000000 -1023.3243278162 0.3135655794 2.0492862202
0.8121674780 2.0119211736 0.0000000000 0.0000000000 0.0000000000 -1102.5142828513 0.3135655794 2.0492862202
0.8132159318 2.0305906233 0.0000000000 0.0000000000 0.0000000000 -1186.9897470218 0.3135655794 2.0492862202
0.8135655794 2.0492862204 0.0000000000 0.0000000000 0.0000000000 -1276.3252143886 0.3135655794 2.0492862202
0.8132159318 2.0679818175 0.0000000000 0.0000000000 0.0000000000 -1370.2979271432 0.3135655794 2.0492862202
0.8121674780 2.0866512672 0.0000000000 0.0000000000 0.0000000000 -1467.7772339324 0.3135655794 2.0492862202
0.8104216843 2.1052684584 0.0000000000 0.0000000000 0.0000000000 -1570.1482299357 0.3135655794 2.0492862202
0.8079809925 2.1238073535 0.0000000000 0.0000000000 0.0000000000 -1673.8082141686 0.3135655794 2.0492862202
0.8048488160 2.1422420239 0.0000000000 0.0000000000 0.0000000000 -1781.2886461452 0.3135655794 2.0492862202
0.8010295355 2.1605466873 0.0000000000 0.0000000000 0.0000000000 -1889.0304752744 0.3135655794 2.0492862202
0.7965284925 2.1786957429 0.0000000000 0.0000000000 0.0000000000 -1998.1854609223 0.3135655794 2.0492862202
0.7913519822 2.1966638075 0.0000000000 0.0000000000 0.0000000000 -2105.5644251020 0.3135655794 2.0492862202
0.7855072445 2.2144257513 0.0000000000 0.0000000000 0.0000000000 -2212.4173696935 0.3135655794 2.0492862202
0.7790024537 2.2319567325 0.0000000000 0.0000000000 0.0000000000 -2316.2871086885 0.3135655794 2.0492862202
0.7718467073 2.2492322325 0.0000000000 0.0000000000 0.0000000000 -2417.3742144487 0.3135655794 2.0492862202
0.7640500133 2.2662280899 0.0000000000 0.0000000000 0.0000000000 -2514.9857344030 0.3135655794 2.0492862202
0.7556232761 2.2829205344 0.0000000000 0.0000000000 0.0000000000 -2611.8986792863 0.3135655794 2.0492862202
0.7465782812 2.2992862203 0.0000000000 0.0000000000 0.0000000000 -2699.4802402610 0.3135655794 2.0492862202
0.7369276790 2.3153022585 0.0000000000 0.0000000000 0.0000000000 -2797.0164439652 0.3135655794 2.0492862202
0.7266849665 2.3309462493 0.0000000000 0.0000000000 0.0000000000 -2865.1612105582 0.3135655794 2.0492862202
0.7158644692 2.3461963131 0.0000000000 0.0000000000 0.0000000000 -2969.6609504679 0.3135655794 2.0492862202
0.7044813206 2.3610311212 0.0000000000 0.0000000000 0.0000000000 -3025.5007146064 0.3135655794 2.0492862202
0.6925514409 2.3754299259 0.0000000000 0.0000000000 0.0000000000 -3173.5917837837 0.3135655794 2.0492862202
0.6800915153 2.3893725891 0.0000000000 0.0000000000 0.0000000000 -3048.1948460361 0.3135655794 2.0492862202
0.6522063652 2.4171481756 0.0000000000 0.0000000000 0.0000000000 -3232.2154523438 0.3135655794 2.0492862202
0.6367151983 2.4308282543 0.0000000000 0.0000000000 0.0000000000 -3398.7994791228 0.3135655794 2.0492862202
0.6206719357 2.4438564749 0.0000000000 0.0000000000 0.0000000000 -3387.1646315683 0.3135655794 2.0492862202
0.6041039870 2.4562105789 0.0000000000 0.0000000000 0.0000000000 -3447.4616184282 0.3135655794 2.0492862202
0.5870396584 2.4678694594 0.0000000000 0.0000000000 0.0000000000 -3458.0938556449 0.3135655794 2.0492862202
0.5695081039 2.4788131974 0.0000000000 0.0000000000 0.0000000000 -3472.7529921384 0.3135655794 2.0492862202
0.5515392759 2.4890230958 0.0000000000 0.0000000000 0.0000000000 -3471.7415065793 0.3135655794 2.0492862202
0.5331638738 2.4984817112 0.0000000000 0.0000000000 0.0000000000 -3459.5623468386 0.3135655794 2.0492862202
0.5144132917 2.5071728836 0.0000000000 0.0000000000 0.0000000000 -3434.6217093592 0.3135655794 2.0492862202
0.4953195646 2.5150817643 0.0000000000 0.0000000000 0.0000000000 -3397.5297288409 0.3135655794 2.0492862202
0.4759153139 2.5221948411 0.0000000000 0.0000000000 0.0000000000 -3347.2092403886 0.3135655794 2.0492862202
0.4562336914 2.5284999615 0.0000000000 0.0000000000 0.0000000000 -3283.8269932472 0.3135655794 2.0492862202
0.4363083229 2.5339863532 0.0000000000 0.0000000000 0.0000000000 -3208.6723271964 0.3135655794 2.0492862202
0.4161732504 2.5386446429 0.0000000000 0.0000000000 0.0000000000 -3120.9318164980 0.3135655794 2.0492862202
0.3958628744 2.5424668719 0.0000000000 0.0000000000 0.0000000000 -3025.9872628147 0.3135655794 2.0492862202
0.3754118949 2.5454465101 0.0000000000 0.0000000000 0.0000000000 -2912.6974416847 0.3135655794 2.0492862202
0.3548552520 2.5475784667 0.0000000000 0.0000000000 0.0000000000 -2794.1354351829 0.3135655794 2.0492862202
0.3342280664 2.5488590994 0.0000000000 0.0000000000 0.0000000000 -2663.1262995929 0.3135655794 2.0492862202
0.3135655793 2.5492862202 0.0000000000 0.0000000000 0.0000000000 -2523.1957445701 0.3135655794 2.0492862202
0.2929030922 2.5488590994 0.0000000000 0.0000000000 0.0000000000 -2374.0693852831 0.3135655794 2.0492862202
0.2722759066 2.5475784667 0.0000000000 0.0000000000 0.0000000000 -2216.5916259732 0.3135655794 2.0492862202
0.2517192637 2.5454465101 0.0000000000 0.0000000000 0.0000000000 -2051.7520615077 0.3135655794 2.0492862202
0.2312682841 2.5424668719 0.0000000000 0.0000000000 0.0000000000 -1876.4775318299 0.3135655794 2.0492862202
0.2109579082 2.5386446428 0.0000000000 0.0000000000 0.0000000000 -1699.9077197210 0.3135655794 2.0492862202
0.1908228357 2.5339863531 0.0000000000 0.0000000000 0.0000000000 -1512.0131747061 0.3135655794 2.0492862202
0.1708974672 2.5284999614 0.0000000000 0.0000000000 0.0000000000 -1325.0714993773 0.3135655794 2.0492862202
0.1512158447 2.5221948410 0.0000000000 0.0000000000 0.0000000000 -1125.7809322143 0.3135655794 2.0492862202
0.1318115940 2.5150817642 0.0000000000 0.0000000000 0.0000000000 -942.0600107463 0.3135655794 2.0492862202
0.1127178670 2.5071728835 0.0000000000 0.0000000000 0.0000000000 -732.0287123605 0.3135655794 2.0492862202
0.0939672849 2.4984817111 0.0000000000 0.0000000000 0.0000000000 -555.6599104366 0.3135655794 2.0492862202
0.0755918828 2.4890230957 0.0000000000 0.0000000000 0.0000000000 -359.4993960270 0.3135655794 2.0492862202
0.0576230547 2.4788131973 0.0000000000 0.0000000000 0.0000000000 -171.9799160783 0.3135655794 2.0492862202
0.0400915002 2.4678694593 0.0000000000 0.0000000000 0.0000000000 -9.3798939007 0.3135655794 2.0492862202
0.0230271716 2.4562105788 0.0000000000 0.0000000000 0.0000000000 160.8990650079 0.3135655794 2.0492862202
0.0064592229 2.4438564748 0.0000000000 0.0000000000 0.0000000000 314.1379625025 0.3135655794 2.0492862202
-0.0095840396 2.4308282542 0.0000000000 0.0000000000 0.0000000000 448.0215652237 0.3135655794 2.0492862202
-0.0250752065 2.4171481754 0.0000000000 0.0000000000 0.0000000000 580.1164840930 0.3135655794 2.0492862202
-0.0542963760 2.3879270059 0.0000000000 0.0000000000 0.0000000000 773.3798330891 0.3135655794 2.0492862202
-0.0679764548 2.3724358390 0.0000000000 0.0000000000 0.0000000000 69.7774501622 0.3135655794 2.0492862202
-0.0810046754 2.3563925764 0.0000000000 0.0000000000 0.0000000000 1292.7099919783 0.3135655794 2.0492862202
-0.0933587793 2.3398246278 0.0000000000 0.0000000000 0.0000000000 1044.2794801585 0.3135655794 2.0492862202
-0.1050176598 2.3227602991 0.0000000000 0.0000000000 0.0000000000 1244.1884310673 0.3135655794 2.0492862202
-0.1159613979 2.3052287446 0.0000000000 0.0000000000 0.0000000000 1301.6762990054 0.3135655794 2.0492862202
-0.1261712963 2.2872599166 0.0000000000 0.0000000000 0.0000000000 1383.7331615552 0.3135655794 2.0492862202
-0.1356299116 2.2688845145 0.0000000000 0.0000000000 0.0000000000 1443.5100113825 0.3135655794 2.0492862202
-0.1443210840 2.2501339324 0.0000000000 0.0000000000 0.0000000000 1495.2879132049 0.3135655794 2.0492862202
-0.1522299647 2.2310402053 0.0000000000 0.0000000000 0.0000000000 1534.7125412409 0.3135655794 2.0492862202
-0.1593430415 2.2116359546 0.0000000000 0.0000000000 0.0000000000 1563.9282363855 0.3135655794 2.0492862202
-0.1656481619 2.1919543321 0.0000000000 0.0000000000 0.0000000000 1582.5929878214 0.3135655794 2.0492862202
-0.1711345536 2.1720289636 0.0000000000 0.0000000000 0.0000000000 1591.6514154699 0.3135655794 2.0492862202
-0.1757928433 2.1518938911 0.0000000000 0.0000000000 0.0000000000 1591.5404339983 0.3135655794 2.0492862202
-0.1796150723 2.1315835151 0.0000000000 0.0000000000 0.0000000000 1583.1370845405 0.3135655794 2.0492862202
-0.1825947105 2.1111325356 0.0000000000 0.0000000000 0.0000000000 1567.2420071725 0.3135655794 2.0492862202
-0.1847266671 2.0905758927 0.0000000000 0.0000000000 0.0000000000 1544.8632503207 0.3135655794 2.0492862202
-0.1860072998 2.0699487071 0.0000000000 0.0000000000 0.0000000000 1517.0340653283 0.3135655794 2.0492862202
-0.1864344206 2.0492862200 0.0000000000 0.0000000000 0.0000000000 1484.8761648768 0.3135655794 2.0492862202
-0.1860072998 2.0286237329 0.0000000000 0.0000000000 0.0000000000 1449.5008335684 0.3135655794 2.0492862202
-0.1847266671 2.0079965473 0.0000000000 0.0000000000 0.0000000000 1411.9897942053 0.3135655794 2.0492862202
-0.1825947104 1.9874399044 0.0000000000 0.0000000000 0.0000000000 1373.2986775222 0.3135655794 2.0492862202
-0.1796150723 1.9669889248 0.0000000000 0.0000000000 0.0000000000 1334.2363025577 0.3135655794 2.0492862202
-0.1757928432 1.9466785489 0.0000000000 0.0000000000 0.0000000000 1295.3498170803 0.3135655794 2.0492862202
-0.1711345535 1.9265434764 0.0000000000 0.0000000000 0.0000000000 1257.0365242891 0.3135655794 2.0492862202
-0.1656481618 1.9066181079 0.0000000000 0.0000000000 0.0000000000 1219.3181062144 0.3135655794 2.0492862202
-0.1593430414 1.8869364854 0.0000000000 0.0000000000 0.0000000000 1182.3737111245 0.3135655794 2.0492862202
-0.1522299645 1.8675322347 0.0000000000 0.0000000000 0.0000000000 1145.6553571040 0.3135655794 2.0492862202
-0.1443210838 1.8484385077 0.0000000000 0.0000000000 0.0000000000 1109.8196107268 0.3135655794 2.0492862202
-0.1356299114 1.8296879256 0.0000000000 0.0000000000 0.0000000000 1073.1474128235 0.3135655794 2.0492862202
-0.1261712961 1.8113125235 0.0000000000 0.0000000000 0.0000000000 1038.4747371146 0.3135655794 2.0492862202
-0.1159613977 1.7933436954 0.0000000000 0.0000000000 0.0000000000 1000.3387852242 0.3135655794 2.0492862202
-0.1050176596 1.7758121409 0.0000000000 0.0000000000 0.0000000000 968.2991181531 0.3135655794 2.0492862202
-0.0933587791 1.7587478123 0.0000000000 0.0000000000 0.0000000000 925.8371788360 0.3135655794 2.0492862202
-0.0810046752 1.7421798637 0.0000000000 0.0000000000 0.0000000000 899.1415708032 0.3135655794 2.0492862202
-0.0679764545 1.7261366011 0.0000000000 0.0000000000 0.0000000000 850.0736457597 0.3135655794 2.0492862202
-0.0542963758 1.7106454342 0.0000000000 0.0000000000 0.0000000000 809.5464950380 0.3135655794 2.0492862202
-0.0250752062 1.6814242647 0.0000000000 0.0000000000 0.0000000000 749.0410326579 0.3135655794 2.0492862202
-0.0095840393 1.6677441859 0.0000000000 0.0000000000 0.0000000000 754.9305090291 0.3135655794 2.0492862202
0.0064592233 1.6547159653 0.0000000000 0.0000000000 0.0000000000 657.8912032482 0.3135655794 2.0492862202
0.0230271719 1.6423618614 0.0000000000 0.0000000000 0.0000000000 671.0985215444 0.3135655794 2.0492862202
0.0400915006 1.6307029809 0.0000000000 0.0000000000 0.0000000000 607.6075795981 0.3135655794 2.0492862202
0.0576230551 1.6197592429 0.0000000000 0.0000000000 0.0000000000 597.0437699741 0.3135655794 2.0492862202
0.0755918831 1.6095493445 0.0000000000 0.0000000000 0.0000000000 552.5883528673 0.3135655794 2.0492862202
0.0939672852 1.6000907291 0.0000000000 0.0000000000 0.0000000000 530.0860958929 0.3135655794 2.0492862202
0.1127178673 1.5913995568 0.0000000000 0.0000000000 0.0000000000 494.2770022119 0.3135655794 2.0492862202
0.1318115944 1.5834906761 0.0000000000 0.0000000000 0.0000000000 467.3555278791 0.3135655794 2.0492862202
0.1512158451 1.5763775993 0.0000000000 0.0000000000 0.0000000000 435.2846598575 0.3135655794 2.0492862202
0.1708974675 1.5700724789 0.0000000000 0.0000000000 0.0000000000 407.0041699815 0.3135655794 2.0492862202
0.1908228361 1.5645860872 0.0000000000 0.0000000000 0.0000000000 376.9694003109 0.3135655794 2.0492862202
0.2109579086 1.5599277975 0.0000000000 0.0000000000 0.0000000000 348.4953995219 0.3135655794 2.0492862202
0.2312682845 1.5561055684 0.0000000000 0.0000000000 0.0000000000 319.6707417120 0.3135655794 2.0492862202
0.2517192641 1.5531259303 0.0000000000 0.0000000000 0.0000000000 291.5576939711 0.3135655794 2.0492862202
0.2722759070 1.5509939737 0.0000000000 0.0000000000 0.0000000000 263.5726048141 0.3135655794 2.0492862202
0.2929030926 1.5497133410 0.0000000000 0.0000000000 0.0000000000 236.0153159105 0.3135655794 2.0492862202
0.3135655797 1.5492862202 0.0000000000 0.0000000000 0.0000000000 208.7222452645 0.3135655794 2.0492862202
0.3342280668 1.5497133410 0.0000000000 0.0000000000 0.0000000000 181.7487890180 0.3135655794 2.0492862202
0.3548552524 1.5509939737 0.0000000000 0.0000000000 0.0000000000 155.0743235045 0.3135655794 2.0492862202
0.3754118953 1.5531259304 0.0000000000 0.0000000000 0.0000000000 128.6612020976 0.3135655794 2.0492862202
0.3958628748 1.5561055685 0.0000000000 0.0000000000 0.0000000000 102.5207871455 0.3135655794 2.0492862202
0.4161732508 1.5599277976 0.0000000000 0.0000000000 0.0000000000 76.6655504843 0.3135655794 2.0492862202
0.4363083233 1.5645860873 0.0000000000 0.0000000000 0.0000000000 51.0259470978 0.3135655794 2.0492862202
0.4562336918 1.5700724791 0.0000000000 0.0000000000 0.0000000000 25.6517726020 0.3135655794 2.0492862202
0.4759153143 1.5763775995 0.0000000000 0.0000000000 0.0000000000 0.3890359008 0.3135655794 2.0492862202
0.4953195650 1.5834906763 0.0000000000 0.0000000000 0.0000000000 -24.4596950202 0.3135655794 2.0492862202
0.5144132920 1.5913995570 0.0000000000 0.0000000000 0.0000000000 -49.5993232785 0.3135655794 2.0492862202
0.5331638741 1.6000907294 0.0000000000 0.0000000000 0.0000000000 -74.0320088297 0.3135655794 2.0492862202
0.5515392762 1.6095493448 0.0000000000 0.0000000000 0.0000000000 -99.1600668764 0.3135655794 2.0492862202
0.5695081042 1.6197592432 0.0000000000 0.0000000000 0.0000000000 -123.0452390088 0.3135655794 2.0492862202
0.5870396587 1.6307029813 0.0000000000 0.0000000000 0.0000000000 -149.2881287194 0.3135655794 2.0492862202
0.6041039874 1.6423618618 0.0000000000 0.0000000000 0.0000000000 -171.3786660636 0.3135655794 2.0492862202
0.6206719360 1.6547159657 0.0000000000 0.0000000000 0.0000000000 -201.7866902661 0.3135655794 2.0492862202
0.6367151986 1.6677441863 0.0000000000 0.0000000000 0.0000000000 -217.5516010603 0.3135655794 2.0492862202
0.6522063655 1.6814242651 0.0000000000 0.0000000000 0.0000000000 -259.4182395664 0.3135655794 2.0492862202
0.8867147556 1.6120681576 0.0000000000 0.1667676960 0.1033762670 -338.0166571514 0.3369258514 2.1221977106
0.9047378082 1.6342581545 0.0000000000 0.1711333992 0.0800363540 -363.3188628693 0.3362590155 2.1234737126
0.9218430510 1.6577164118 0.0000000000 0.1757343286 0.0602456060 -389.8701710530 0.3354694388 2.1253337628
0.9380446842 1.6819583449 0.0000000000 0.1807109150 0.0425190126 -417.3731607255 0.3345963491 2.1273234837
0.9533374421 1.7067675438 0.0000000000 0.1862793314 0.0254456473 -445.7089424809 0.3336583611 2.1292575869
0.9677203039 1.7320248556 0.0000000000 0.1926194971 0.0082219091 -474.8103966388 0.3326771542 2.1310489125
0.9811917501 1.7576539491 0.0000000000 0.1998672009 -0.0094326125 -504.6202196618 0.3316726970 2.1326539487
0.9937465835 1.7835994505 0.0000000000 0.2081182072 -0.0275091983 -535.0800385661 0.3306600382 2.1340509213
1.0053754767 1.8098165739 0.0000000000 0.2174452135 -0.0459046332 -566.1281158857 0.3296488255 2.1352293778
1.0160659394 1.8362657010 0.0000000000 0.2279104629 -0.0645147762 -597.6971813522 0.3286442473 2.1361847188
1.0258036697 1.8629094346 0.0000000000 0.2395697183 -0.0832543140 -629.7118925662 0.3276483581 2.1369152025
1.0345737284 1.8897109813 0.0000000000 0.2524705437 -0.1020478645 -662.0876579706 0.3266612306 2.1374202774
1.0423613757 1.9166332495 0.0000000000 0.2666490919 -0.1208200580 -694.7317892883 0.3256817712 2.1376996299
1.0491526238 1.9436383325 0.0000000000 0.2821277599 -0.1394924072 -727.5465260964 0.3247082540 2.1377526160
1.0549346221 1.9706872101 0.0000000000 0.2989141838 -0.1579850281 -760.4329182090 0.3237386878 2.1375779102
1.0596959671 1.9977395926 0.0000000000 0.3170012363 -0.1762198388 -793.2947317382 0.3227711121 2.1371732977
1.0634269870 2.0247538785 0.0000000000 0.3363676511 -0.1941234260 -826.0419499439 0.3218038673 2.1365355778
1.0661200122 2.0516872159 0.0000000000 0.3569790922 -0.2116291799 -858.5937252813 0.3208358547 2.1356605726
1.0677696189 2.0784956696 0.0000000000 0.3787896084 -0.2286788445 -890.8807520368 0.3198667710 2.1345432395
1.0683728311 2.1051344952 0.0000000000 0.4017434441 -0.2452236446 -922.8470449431 0.3188973025 2.1331778906
1.0679292663 2.1315585204 0.0000000000 0.4257771651 -0.2612250285 -954.4510998492 0.3179292663 2.1315585201
1.0664412268 2.1577226301 0.0000000000 0.4508220375 -0.2766549897 -985.6664038509 0.3169656982 2.1296792341
1.0639137458 2.1835823386 0.0000000000 0.4768065868 -0.2914959047 -1016.4812559077 0.3160108980 2.1275347681
1.0603546023 2.2090944281 0.0000000000 0.5036592453 -0.3057398380 -1046.8978600264 0.3150704449 2.1251210708
1.0557743155 2.2342176184 0.0000000000 0.5313109704 -0.3193872940 -1076.9306731826 0.3141511959 2.1224359185
1.0501861175 2.2589132285 0.0000000000 0.5596977006 -0.3324454385 -1106.6040364472 0.3132612626 2.1194795229
1.0436058888 2.2831457895 0.0000000000 0.5887625050 -0.3449258643 -1135.9491859467 0.3124099547 2.1162550888
1.0360520279 2.3068835658 0.0000000000 0.6184573040 -0.3568420262 -1165.0008159561 0.3116076583 2.1127692817
1.0275452184 2.3300989502 0.0000000000 0.6487440722 -0.3682065134 -1193.7934320696 0.3108656142 2.1090325692
1.0181080529 2.3527687013 0.0000000000 0.6795954887 -0.3790283504 -1222.3577766293 0.3101955552 2.1050594047
1.0077644761 2.3748739940 0.0000000000 0.7109950557 -0.3893105280 -1250.7176310090 0.3096091647 2.1008682256
0.9965390148 2.3964002523 0.0000000000 0.7429367511 -0.3990479579 -1278.8873029432 0.3091173230 2.0964812339
0.9844557809 2.4173367237 0.0000000000 0.7754243197 -0.4082260144 -1306.8700770202 0.3087291301 2.0919239192
0.9715372917 2.4376757420 0.0000000000 0.8084703042 -0.4168197522 -1334.6577813468 0.3084507467 2.0872242707
0.9578032827 2.4574116337 0.0000000000 0.8420948751 -0.4247937054 -1362.2312754895 0.3082842299 2.0824116335
0.9432699105 2.4765393090 0.0000000000 0.8763244155 -0.4321018480 -1389.5609826322 0.3082267612 2.0775152515
0.9279499412 2.4950528437 0.0000000000 0.9111897588 -0.4386868929 -1416.6057373803 0.3082708605 2.0725628001
0.9118543719 2.5129448678 0.0000000000 0.9467242422 -0.4444778612 -1443.3077469433 0.3084060372 2.0675797285
0.8949951146 2.5302084414 0.0000000000 0.9829630058 -0.4493848496 -1469.5824346030 0.3086215028 2.0625910900
0.8773872786 2.5468454861 0.0000000000 1.0199479213 -0.4532870436 -1495.2949948599 0.3089084864 2.0576299276
0.8590454483 2.5628927489 0.0000000000 1.0577634875 -0.4560071026 -1520.2600143823 0.3092565444 2.0527631955
0.8190411968 2.5945530635 0.0000000000 1.1386180868 -0.4564585314 -1566.8295132505 0.3110800181 2.0427601305
0.7973144064 2.6104926417 0.0000000000 1.1818646436 -0.4528986259 -1586.5176818934 0.3125899780 2.0381795905
0.7748221277 2.6259649556 0.0000000000 1.2258583421 -0.4466616318 -1602.9482051091 0.3141625933 2.0341095735
0.7516036161 2.6408541381 0.0000000000 1.2702883723 -0.4376232028 -1615.7828898496 0.3157960046 2.0304676001
0.7276946820 2.6550896746 0.0000000000 1.3148722360 -0.4256449693 -1624.6216386760 0.3174835634 2.0272148159
0.7031369358 2.6686224120 0.0000000000 1.3593151897 -0.4105939657 -1629.0287762036 0.3192231490 2.0243319462
0.6779758038 2.6814191968 0.0000000000 1.4033011112 -0.3923552821 -1628.5518556106 0.3210152592 2.0218138833
0.6522580188 2.6934603872 0.0000000000 1.4464905422 -0.3708398709 -1622.7363504981 0.3228605772 2.0196671508
0.6260297520 2.7047361646 0.0000000000 1.4885211380 -0.3459943587 -1611.1469711476 0.3247581836 2.0179061696
0.5993359174 2.7152425300 0.0000000000 1.5290108611 -0.3178114385 -1593.3930354350 0.3267049396 2.0165492139
0.5722202938 2.7249779997 0.0000000000 1.5675645860 -0.2863392130 -1569.1544595667 0.3286956920 2.0156150684
0.5447259225 2.7339412437 0.0000000000 1.6037843354 -0.2516884442 -1538.2061232618 0.3307237545 2.0151206318
0.5168954062 2.7421294680 0.0000000000 1.6372826996 -0.2140368318 -1500.4388636954 0.3327812909 2.0150792685
0.4887709599 2.7495373295 0.0000000000 1.6676982440 -0.1736292283 -1455.8749020347 0.3348594534 2.0154996955
0.4603942271 2.7561563047 0.0000000000 1.6947110372 -0.1307728189 -1404.6752274195 0.3369482845 2.0163853272
0.4318059546 2.7619745120 0.0000000000 1.7180561549 -0.0858270696 -1347.1371469572 0.3390364813 2.0177340772
0.4030456526 2.7669769708 0.0000000000 1.7375333463 -0.0391894268 -1283.6818455998 0.3411111436 2.0195386010
0.3741513513 2.7711462055 0.0000000000 1.7530119335 0.0087211964 -1214.8337457804 0.3431576208 2.0217868867
0.3451595258 2.7744630242 0.0000000000 1.7644310940 0.0574806761 -1141.1948834592 0.3451595259 2.0244630242
0.3161052078 2.7769072719 0.0000000000 1.7717964651 0.1066736302 -1063.4178601404 0.3470989386 2.0275479531
0.2870222600 2.7784583877 0.0000000000 1.7751741689 0.1559041941 -982.1801965586 0.3489567693 2.0310200180
0.2579437578 2.7790956745 0.0000000000 1.7746829765 0.2048041439 -898.1616389748 0.3507132314 2.0348552397
0.2289024211 2.7787982760 0.0000000000 1.7704848945 0.2530397242 -812.0248793806 0.3523483640 2.0390272985
0.1999310507 2.7775449319 0.0000000000 1.7627745016 0.3003181902 -724.3996604123 0.3538425575 2.0435072980
0.1710629452 2.7753136096 0.0000000000 1.7517679492 0.3463936844 -635.8702329633 0.3551770607 2.0482634102
0.1423322936 2.7720811050 0.0000000000 1.7376930748 0.3910707082 -546.9661907292 0.3563344620 2.0532604932
0.1137745479 2.7678226722 0.0000000000 1.7207818099 0.4342033749 -458.1565131289 0.3572991500 2.0584597410
0.0854267756 2.7625116950 0.0000000000 1.7012648602 0.4756902515 -369.8463019880 0.3580577537 2.0638183791
0.0573279789 2.7561193708 0.0000000000 1.6793673680 0.5154667901 -282.3755502289 0.3585995476 2.0692893758
0.0295193453 2.7486143264 0.0000000000 1.6553041135 0.5534982150 -196.0194504300 0.3589167871 2.0748210901
0.0020443607 2.7399620037 0.0000000000 1.6292738517 0.5897745280 -110.9898530914 0.3590049056 2.0803566904
-0.0250513313 2.7301234629 0.0000000000 1.6014530998 0.6243079310 -27.4369773423 0.3588624557 2.0858329973
-0.0517205670 2.7190527922 0.0000000000 1.5719888717 0.6571340889 54.5507185264 0.3584905518 2.0911779336
-0.0779163651 2.7066910239 0.0000000000 1.5409892639 0.6883213833 134.9521782007 0.3578912466 2.0963044861
-0.1035961924 2.6929505643 0.0000000000 1.5085105643 0.7179940774 213.8375504085 0.3570633423 2.1010951824
-0.1287320318 2.6776701200 0.0000000000 1.4745321713 0.7463946820 291.4440620458 0.3559923967 2.1053570690
-0.1533299002 2.6604655131 0.0000000000 1.4389149199 0.7740855081 368.3833378346 0.3546312787 2.1086725803
-0.2000061246 2.6260104187 0.0000000000 1.3639303477 0.8184966698 510.5797731636 0.3517868086 2.1180492402
-0.2218931091 2.6091054268 0.0000000000 1.3261819450 0.8349816600 574.1499209888 0.3504199422 2.1243809986
-0.2429968846 2.5904723372 0.0000000000 1.2875083800 0.8506438191 636.1587179235 0.3488584976 2.1298128029
-0.2632240865 2.5704477076 0.0000000000 1.2480276388 0.8649452178 696.0616995339 0.3471624516 2.1346400962
-0.2825026494 2.5491801811 0.0000000000 1.2078044313 0.8776718686 753.5938856163 0.3453722095 2.1389690627
-0.3007775261 2.5267598869 0.0000000000 1.1668967285 0.8886955167 808.5833414564 0.3435129398 2.1428461003
-0.3180036603 2.5032563750 0.0000000000 1.1253623811 0.8979174891 860.8834595516 0.3416016533 2.1462958304
-0.3341425993 2.4787313365 0.0000000000 1.0832655299 0.9052513597 910.3516963596 0.3396506372 2.1493338951
-0.3491610707 2.4532432411 0.0000000000 1.0406795489 0.9106179288 956.8426824963 0.3376689243 2.1519716729
-0.3630303106 2.4268489990 0.0000000000 0.9976894397 0.9139432737 1000.2070150532 0.3356630055 2.1542180213
-0.3757256653 2.3996044499 0.0000000000 0.9543936253 0.9151578968 1040.2923419231 0.3336372661 2.1560798482
-0.3872262733 2.3715644003 0.0000000000 0.9109051438 0.9141967991 1076.9455129189 0.3315943386 2.1575622324
-0.3975147369 2.3427825329 0.0000000000 0.8673523043 0.9110006876 1110.0154073144 0.3295354627 2.1586684178
-0.4065767306 2.3133113409 0.0000000000 0.8238789068 0.9055183821 1139.3564694601 0.3274609034 2.1593998345
-0.4144005213 2.2832021588 0.0000000000 0.7806439996 0.8977102825 1164.8331394799 0.3253704563 2.1597562164
-0.4209763921 2.2525053154 0.0000000000 0.7378209696 0.8875526159 1186.3253270200 0.3232640427 2.1597358423
-0.4262959987 2.2212704074 0.0000000000 0.6955956403 0.8750420873 1203.7348907129 0.3211423711 2.1593358986
-0.4303517129 2.1895466831 0.0000000000 0.6541631063 0.8602004958 1216.9928242482 0.3190076059 2.1585529527
-0.4331360361 2.1573835225 0.0000000000 0.6137232278 0.8430788791 1226.0665922299 0.3168639639 2.1573835228
-0.4346411690 2.1248310048 0.0000000000 0.5744749540 0.8237607790 1230.9668552332 0.3147181498 2.1558247358
-0.4348588082 2.0919405600 0.0000000000 0.5366096991 0.8023640305 1231.7526523973 0.3125795615 2.1538750694
-0.4337802005 2.0587657030 0.0000000000 0.5003037771 0.7790397604 1228.5339282117 0.3104602343 2.1515351767
-0.4313964384 2.0253628412 0.0000000000 0.4657098088 0.7539665138 1221.4702880442 0.3083745391 2.1488087842
-0.4276989391 1.9917921338 0.0000000000 0.4329481600 0.7273390904 1210.7656532821 0.3063386949 2.1457036408
-0.4226800277 1.9581183591 0.0000000000 0.4021022975 0.6993592805 1196.6608725125 0.3043701717 2.1422324748
-0.4163335522 1.9244117249 0.0000000000 0.3732243680 0.6702479438 1179.4295924923 0.3024870595 2.1384138934
-0.4086554810 1.8907485442 0.0000000000 0.3463529146 0.6402993270 1159.3837532121 0.3007074502 2.1342731465