 TITLE = "Tecplot data"
 VARIABLES = "X", "Y", "Z" "U", "V", "p", "dispX", "dispY"
 ZONE SOLUTIONTIME=50.900000, NODES=26114 , ELEMENTS=25916, DATAPACKING=POINT, ZONETYPE=FEQUADRILATERAL
0.4380389960 0.2658421689 0.0000000000 0.0000000000 0.0000000000 -643.6098066743 0.0844856054 -0.0877112217
0.4380389962 -0.4412646121 0.0000000000 0.0000000000 0.0000000000 -758.4540839582 0.0844856054 -0.0877112217
-0.2690677853 0.2658421688 0.0000000000 0.0000000000 0.0000000000 206.8795689019 0.0844856054 -0.0877112217
-0.2690677850 -0.4412646125 0.0000000000 0.0000000000 0.0000000000 -3.9931458446 0.0844856054 -0.0877112217
0.6133091488 0.4430202276 0.0000000000 0.6205272899 -0.0554709698 -353.9801100247 0.0829790630 -0.0873098583
0.6163359212 -0.6203312391 0.0000000000 -0.0687505403 -0.5614693844 -868.9350629028 0.0860058350 -0.0900011536
-0.4448353202 0.4410291226 0.0000000000 0.8703199968 0.4358131547 241.1685463266 0.0854947658 -0.0893009631
-0.4451356629 -0.6194323261 0.0000000000 0.6933502585 -0.6014117341 116.9323678643 0.0851944227 -0.0891022399
1.1436411890 0.9720172629 0.0000000000 0.9043221934 0.2684357407 -143.4734643238 0.0829810174 -0.0886429090
1.1464696165 -1.1496919646 0.0000000000 1.2031401887 0.5831523668 -328.6539498405 0.0858094440 -0.0890317936
-0.9752210190 0.9666710463 0.0000000000 0.9139262070 0.1486786441 160.1200013072 0.0854391531 -0.0939891252
-0.9746743912 -1.1538121947 0.0000000000 0.9433023037 -0.2377191909 146.6884010636 0.0859857800 -0.0931520224
4.2713951832 3.2226557783 0.0000000000 1.0231333479 -0.0446566176 7.8548720750 0.0713951832 -0.0773442217
4.2856957308 -3.3769983096 0.0000000000 1.0638000571 -0.0262424417 12.2117300470 0.0856957308 -0.0769983096
20.0000000000 4.7000000000 0.0000000000 1.0366381874 0.1250882939 0.4438717972 0.0000000000 0.0000000000
20.0000000000 -4.7000000000 0.0000000000 1.0829643545 -0.0533281515 0.4528456770 0.0000000000 0.0000000000
-10.0000000000 15.0000000000 0.0000000000 1.0000000000 0.0000000000 53.1286338575 0.0000000000 0.0000000000
20.0000000000 15.0000000000 0.0000000000 1.0484836777 0.0000000000 0.0153263684 0.0000000000 0.0000000000
20.0000000000 -15.0000000000 0.0000000000 1.0388701228 0.0000000000 -0.0022823871 0.0000000000 0.0000000000
-10.0000000000 -15.0000000000 0.0000000000 1.0000000000 0.0000000000 59.2713596920 0.0000000000 0.0000000000
0.4510115416 -0.4277975903 0.0000000000 0.0000000000 0.0000000000 -761.0019326564 0.0844856054 -0.0877112217
0.4634714672 -0.4138549271 0.0000000000 0.0000000000 0.0000000000 -762.9295396606 0.0844856054 -0.0877112217
0.4754013468 -0.3994561224 0.0000000000 0.0000000000 0.0000000000 -763.2025589767 0.0844856054 -0.0877112217
0.4867844955 -0.3846213142 0.0000000000 0.0000000000 0.0000000000 -762.1844526409 0.0844856054 -0.0877112217
0.4976049927 -0.3693712505 0.0000000000 0.0000000000 0.0000000000 -759.5722596150 0.0844856054 -0.0877112217
0.5078477052 -0.3537272597 0.0000000000 0.0000000000 0.0000000000 -755.3881890219 0.0844856054 -0.0877112217
0.5174983074 -0.3377112214 0.0000000000 0.0000000000 0.0000000000 -749.5367594912 0.0844856054 -0.0877112217
0.5265433023 -0.3213455356 0.0000000000 0.0000000000 0.0000000000 -742.0141017148 0.0844856054 -0.0877112217
0.5349700395 -0.3046530910 0.0000000000 0.0000000000 0.0000000000 -732.8328484497 0.0844856054 -0.0877112217
0.5427667334 -0.2876572336 0.0000000000 0.0000000000 0.0000000000 -722.0424659150 0.0844856054 -0.0877112217
0.5499224798 -0.2703817336 0.0000000000 0.0000000000 0.0000000000 -709.7951231676 0.0844856054 -0.0877112217
0.5564272706 -0.2528507524 0.0000000000 0.0000000000 0.0000000000 -696.1008386599 0.0844856054 -0.0877112217
0.5622720084 -0.2350888087 0.0000000000 0.0000000000 0.0000000000 -681.5823682411 0.0844856054 -0.0877112217
0.5674485186 -0.2171207440 0.0000000000 0.0000000000 0.0000000000 -665.6831367659 0.0844856054 -0.0877112217
0.5719495615 -0.1989716884 0.0000000000 0.0000000000 0.0000000000 -655.1940722608 0.0844856054 -0.0877112217
0.5757688421 -0.1806670251 0.0000000000 0.0000000000 0.0000000000 -629.2651519839 0.0844856054 -0.0877112217
0.5789010185 -0.1622323546 0.0000000000 0.0000000000 0.0000000000 -615.4871778515 0.0844856054 -0.0877112217
0.5813417104 -0.1436934595 0.0000000000 0.0000000000 0.0000000000 -597.3781179592 0.0844856054 -0.0877112217
0.5830875040 -0.1250762683 0.0000000000 0.0000000000 0.0000000000 -580.9841864469 0.0844856054 -0.0877112217
0.5841359578 -0.1064068186 0.0000000000 0.0000000000 0.0000000000 -564.6360414591 0.0844856054 -0.0877112217
0.5844856054 -0.0877112215 0.0000000000 0.0000000000 0.0000000000 -549.1972230257 0.0844856054 -0.0877112217
0.5841359578 -0.0690156244 0.0000000000 0.0000000000 0.0000000000 -534.6776636613 0.0844856054 -0.0877112217
0.5830875040 -0.0503461747 0.0000000000 0.0000000000 0.0000000000 -521.3368794965 0.0844856054 -0.0877112217
0.5813417103 -0.0317289835 0.0000000000 0.0000000000 0.0000000000 -509.3460324222 0.0844856054 -0.0877112217
0.5789010185 -0.0131900885 0.0000000000 0.0000000000 0.0000000000 -498.9019613083 0.0844856054 -0.0877112217
0.5757688420 0.0052445820 0.0000000000 0.0000000000 0.0000000000 -490.1830437626 0.0844856054 -0.0877112217
0.5719495615 0.0235492454 0.0000000000 0.0000000000 0.0000000000 -483.3463929538 0.0844856054 -0.0877112217
0.5674485185 0.0416983010 0.0000000000 0.0000000000 0.0000000000 -478.5696223342 0.0844856054 -0.0877112217
0.5622720082 0.0596663656 0.0000000000 0.0000000000 0.0000000000 -475.9231824530 0.0844856054 -0.0877112217
0.5564272705 0.0774283094 0.0000000000 0.0000000000 0.0000000000 -475.5637183390 0.0844856054 -0.0877112217
0.5499224797 0.0949592906 0.0000000000 0.0000000000 0.0000000000 -477.5088347616 0.0844856054 -0.0877112217
0.5427667333 0.1122347906 0.0000000000 0.0000000000 0.0000000000 -481.8367787918 0.0844856054 -0.0877112217
0.5349700393 0.1292306480 0.0000000000 0.0000000000 0.0000000000 -488.4207835133 0.0844856054 -0.0877112217
0.5265433021 0.1459230925 0.0000000000 0.0000000000 0.0000000000 -497.5625652967 0.0844856054 -0.0877112217
0.5174983072 0.1622887784 0.0000000000 0.0000000000 0.0000000000 -508.3224487836 0.0844856054 -0.0877112217
0.5078477050 0.1783048166 0.0000000000 0.0000000000 0.0000000000 -523.4684259565 0.0844856054 -0.0877112217
0.4976049925 0.1939488074 0.0000000000 0.0000000000 0.0000000000 -535.7840290396 0.0844856054 -0.0877112217
0.4867844952 0.2091988711 0.0000000000 0.0000000000 0.0000000000 -554.7942582814 0.0844856054 -0.0877112217
0.4754013466 0.2240336793 0.0000000000 0.0000000000 0.0000000000 -572.9043102989 0.0844856054 -0.0877112217
0.4634714669 0.2384324840 0.0000000000 0.0000000000 0.0000000000 -595.0536569559 0.0844856054 -0.0877112217
0.4510115413 0.2523751472 0.0000000000 0.0000000000 0.0000000000 -619.2763983592 0.0844856054 -0.0877112217
0.4231263912 0.2801507337 0.0000000000 0.0000000000 0.0000000000 -674.6257602794 0.0844856054 -0.0877112217
0.4076352243 0.2938308124 0.0000000000 0.0000000000 0.0000000000 -706.8671796220 0.0844856054 -0.0877112217
0.3915919617 0.3068590330 0.0000000000 0.0000000000 0.0000000000 -740.5587657429 0.0844856054 -0.0877112217
0.3750240130 0.3192131370 0.0000000000 0.0000000000 0.0000000000 -775.3707918344 0.0844856054 -0.0877112217
0.3579596844 0.3308720175 0.0000000000 0.0000000000 0.0000000000 -810.3540416778 0.0844856054 -0.0877112217
0.3404281299 0.3418157555 0.0000000000 0.0000000000 0.0000000000 -844.8735409219 0.0844856054 -0.0877112217
0.3224593019 0.3520256539 0.0000000000 0.0000000000 0.0000000000 -878.0061769526 0.0844856054 -0.0877112217
0.3040838998 0.3614842693 0.0000000000 0.0000000000 0.0000000000 -908.9770170060 0.0844856054 -0.0877112217
0.2853333177 0.3701754416 0.0000000000 0.0000000000 0.0000000000 -937.0196405928 0.0844856054 -0.0877112217
0.2662395906 0.3780843223 0.0000000000 0.0000000000 0.0000000000 -961.5010875489 0.0844856054 -0.0877112217
0.2468353399 0.3851973992 0.0000000000 0.0000000000 0.0000000000 -981.8883704708 0.0844856054 -0.0877112217
0.2271537174 0.3915025195 0.0000000000 0.0000000000 0.0000000000 -997.7609693457 0.0844856054 -0.0877112217
0.2072283489 0.3969889113 0.0000000000 0.0000000000 0.0000000000 -1008.7846204535 0.0844856054 -0.0877112217
0.1870932764 0.4016472010 0.0000000000 0.0000000000 0.0000000000 -1014.6958581291 0.0844856054 -0.0877112217
0.1667829004 0.4054694300 0.0000000000 0.0000000000 0.0000000000 -1015.2849515577 0.0844856054 -0.0877112217
0.1463319209 0.4084490682 0.0000000000 0.0000000000 0.0000000000 -1010.3873799273 0.0844856054 -0.0877112217
0.1257752780 0.4105810248 0.0000000000 0.0000000000 0.0000000000 -999.8808164470 0.0844856054 -0.0877112217
0.1051480924 0.4118616575 0.0000000000 0.0000000000 0.0000000000 -983.6870061176 0.0844856054 -0.0877112217
0.0844856053 0.4122887783 0.0000000000 0.0000000000 0.0000000000 -961.7759860653 0.0844856054 -0.0877112217
0.0638231182 0.4118616575 0.0000000000 0.0000000000 0.0000000000 -934.1707052485 0.0844856054 -0.0877112217
0.0431959326 0.4105810248 0.0000000000 0.0000000000 0.0000000000 -900.9506563830 0.0844856054 -0.0877112217
0.0226392897 0.4084490681 0.0000000000 0.0000000000 0.0000000000 -862.2537487588 0.0844856054 -0.0877112217
0.0021883101 0.4054694300 0.0000000000 0.0000000000 0.0000000000 -818.2762471629 0.0844856054 -0.0877112217
-0.0181220658 0.4016472009 0.0000000000 0.0000000000 0.0000000000 -769.2709222401 0.0844856054 -0.0877112217
-0.0382571383 0.3969889112 0.0000000000 0.0000000000 0.0000000000 -715.5437639936 0.0844856054 -0.0877112217
-0.0581825068 0.3915025195 0.0000000000 0.0000000000 0.0000000000 -657.4496500173 0.0844856054 -0.0877112217
-0.0778641293 0.3851973991 0.0000000000 0.0000000000 0.0000000000 -595.3873418930 0.0844856054 -0.0877112217
-0.0972683800 0.3780843223 0.0000000000 0.0000000000 0.0000000000 -529.7941215545 0.0844856054 -0.0877112217
-0.1163621070 0.3701754416 0.0000000000 0.0000000000 0.0000000000 -461.1403175523 0.0844856054 -0.0877112217
-0.1351126891 0.3614842692 0.0000000000 0.0000000000 0.0000000000 -389.9239171673 0.0844856054 -0.0877112217
-0.1534880912 0.3520256538 0.0000000000 0.0000000000 0.0000000000 -316.6654198059 0.0844856054 -0.0877112217
-0.1714569193 0.3418157554 0.0000000000 0.0000000000 0.0000000000 -241.9030551871 0.0844856054 -0.0877112217
-0.1889884738 0.3308720173 0.0000000000 0.0000000000 0.0000000000 -166.1884561813 0.0844856054 -0.0877112217
-0.2060528024 0.3192131368 0.0000000000 0.0000000000 0.0000000000 -90.0828266326 0.0844856054 -0.0877112217
-0.2226207511 0.3068590329 0.0000000000 0.0000000000 0.0000000000 -14.1535488024 0.0844856054 -0.0877112217
-0.2386640136 0.2938308123 0.0000000000 0.0000000000 0.0000000000 61.0289991972 0.0844856054 -0.0877112217
-0.2541551805 0.2801507335 0.0000000000 0.0000000000 0.0000000000 134.8949407375 0.0844856054 -0.0877112217
-0.2833763500 0.2509295640 0.0000000000 0.0000000000 0.0000000000 276.4302070676 0.0844856054 -0.0877112217
-0.2970564288 0.2354383971 0.0000000000 0.0000000000 0.0000000000 343.0157570734 0.0844856054 -0.0877112217
-0.3100846494 0.2193951345 0.0000000000 0.0000000000 0.0000000000 406.1382413687 0.0844856054 -0.0877112217
-0.3224387533 0.2028271859 0.0000000000 0.0000000000 0.0000000000 465.3439467449 0.0844856054 -0.0877112217
-0.3340976338 0.1857628572 0.0000000000 0.0000000000 0.0000000000 520.2316128798 0.0844856054 -0.0877112217
-0.3450413719 0.1682313027 0.0000000000 0.0000000000 0.0000000000 570.4554982799 0.0844856054 -0.0877112217
-0.3552512703 0.1502624747 0.0000000000 0.0000000000 0.0000000000 615.7246461118 0.0844856054 -0.0877112217
-0.3647098856 0.1318870726 0.0000000000 0.0000000000 0.0000000000 655.8002410010 0.0844856054 -0.0877112217
-0.3734010580 0.1131364905 0.0000000000 0.0000000000 0.0000000000 690.4933984012 0.0844856054 -0.0877112217
-0.3813099387 0.0940427634 0.0000000000 0.0000000000 0.0000000000 719.6643176020 0.0844856054 -0.0877112217
-0.3884230155 0.0746385127 0.0000000000 0.0000000000 0.0000000000 743.2227699864 0.0844856054 -0.0877112217
-0.3947281359 0.0549568902 0.0000000000 0.0000000000 0.0000000000 761.1292762299 0.0844856054 -0.0877112217
-0.4002145276 0.0350315217 0.0000000000 0.0000000000 0.0000000000 773.3963098945 0.0844856054 -0.0877112217
-0.4048728173 0.0148964492 0.0000000000 0.0000000000 0.0000000000 780.0889861419 0.0844856054 -0.0877112217
-0.4086950463 -0.0054139268 0.0000000000 0.0000000000 0.0000000000 781.3249653302 0.0844856054 -0.0877112217
-0.4116746845 -0.0258649063 0.0000000000 0.0000000000 0.0000000000 777.2733187578 0.0844856054 -0.0877112217
-0.4138066411 -0.0464215492 0.0000000000 0.0000000000 0.0000000000 768.1524436064 0.0844856054 -0.0877112217
-0.4150872738 -0.0670487348 0.0000000000 0.0000000000 0.0000000000 754.2266764729 0.0844856054 -0.0877112217
-0.4155143946 -0.0877112219 0.0000000000 0.0000000000 0.0000000000 735.8022193126 0.0844856054 -0.0877112217
-0.4150872738 -0.1083737090 0.0000000000 0.0000000000 0.0000000000 713.2212108732 0.0844856054 -0.0877112217
-0.4138066411 -0.1290008947 0.0000000000 0.0000000000 0.0000000000 686.8562860609 0.0844856054 -0.0877112217
-0.4116746844 -0.1495575376 0.0000000000 0.0000000000 0.0000000000 657.1013424055 0.0844856054 -0.0877112217
-0.4086950463 -0.1700085171 0.0000000000 0.0000000000 0.0000000000 624.3670896003 0.0844856054 -0.0877112217
-0.4048728172 -0.1903188930 0.0000000000 0.0000000000 0.0000000000 589.0655567991 0.0844856054 -0.0877112217
-0.4002145275 -0.2104539655 0.0000000000 0.0000000000 0.0000000000 551.6145974740 0.0844856054 -0.0877112217
-0.3947281358 -0.2303793341 0.0000000000 0.0000000000 0.0000000000 512.4042191974 0.0844856054 -0.0877112217
-0.3884230154 -0.2500609565 0.0000000000 0.0000000000 0.0000000000 471.8367936279 0.0844856054 -0.0877112217
-0.3813099385 -0.2694652072 0.0000000000 0.0000000000 0.0000000000 430.2291994222 0.0844856054 -0.0877112217
-0.3734010578 -0.2885589343 0.0000000000 0.0000000000 0.0000000000 387.9812171422 0.0844856054 -0.0877112217
-0.3647098854 -0.3073095163 0.0000000000 0.0000000000 0.0000000000 345.2424721407 0.0844856054 -0.0877112217
-0.3552512701 -0.3256849184 0.0000000000 0.0000000000 0.0000000000 302.5396836233 0.0844856054 -0.0877112217
-0.3450413717 -0.3436537465 0.0000000000 0.0000000000 0.0000000000 259.5751218774 0.0844856054 -0.0877112217
-0.3340976336 -0.3611853010 0.0000000000 0.0000000000 0.0000000000 217.5454199215 0.0844856054 -0.0877112217
-0.3224387531 -0.3782496296 0.0000000000 0.0000000000 0.0000000000 174.6335099343 0.0844856054 -0.0877112217
-0.3100846491 -0.3948175783 0.0000000000 0.0000000000 0.0000000000 134.9677241457 0.0844856054 -0.0877112217
-0.2970564285 -0.4108608408 0.0000000000 0.0000000000 0.0000000000 90.2863042340 0.0844856054 -0.0877112217
-0.2833763498 -0.4263520077 0.0000000000 0.0000000000 0.0000000000 59.7538185300 0.0844856054 -0.0877112217
-0.2541551802 -0.4555731772 0.0000000000 0.0000000000 0.0000000000 -18.4079747065 0.0844856054 -0.0877112217
-0.2386640133 -0.4692532560 0.0000000000 0.0000000000 0.0000000000 -66.2277107735 0.0844856054 -0.0877112217
-0.2226207507 -0.4822814766 0.0000000000 0.0000000000 0.0000000000 -96.1557478695 0.0844856054 -0.0877112217
-0.2060528021 -0.4946355805 0.0000000000 0.0000000000 0.0000000000 -134.8610604476 0.0844856054 -0.0877112217
-0.1889884734 -0.5062944610 0.0000000000 0.0000000000 0.0000000000 -166.8415769249 0.0844856054 -0.0877112217
-0.1714569189 -0.5172381990 0.0000000000 0.0000000000 0.0000000000 -200.8930509590 0.0844856054 -0.0877112217
-0.1534880909 -0.5274480974 0.0000000000 0.0000000000 0.0000000000 -231.9229675907 0.0844856054 -0.0877112217
-0.1351126888 -0.5369067128 0.0000000000 0.0000000000 0.0000000000 -262.8388301131 0.0844856054 -0.0877112217
-0.1163621067 -0.5455978852 0.0000000000 0.0000000000 0.0000000000 -291.9441941076 0.0844856054 -0.0877112217
-0.0972683796 -0.5535067658 0.0000000000 0.0000000000 0.0000000000 -320.2265738766 0.0844856054 -0.0877112217
-0.0778641289 -0.5606198427 0.0000000000 0.0000000000 0.0000000000 -347.1274418456 0.0844856054 -0.0877112217
-0.0581825065 -0.5669249630 0.0000000000 0.0000000000 0.0000000000 -372.9993720644 0.0844856054 -0.0877112217
-0.0382571379 -0.5724113548 0.0000000000 0.0000000000 0.0000000000 -397.6781813456 0.0844856054 -0.0877112217
-0.0181220654 -0.5770696444 0.0000000000 0.0000000000 0.0000000000 -421.3094581750 0.0844856054 -0.0877112217
0.0021883105 -0.5808918735 0.0000000000 0.0000000000 0.0000000000 -443.8699103840 0.0844856054 -0.0877112217
0.0226392901 -0.5838715116 0.0000000000 0.0000000000 0.0000000000 -465.4416903803 0.0844856054 -0.0877112217
0.0431959330 -0.5860034682 0.0000000000 0.0000000000 0.0000000000 -486.0540477031 0.0844856054 -0.0877112217
0.0638231186 -0.5872841009 0.0000000000 0.0000000000 0.0000000000 -505.7722459455 0.0844856054 -0.0877112217
0.0844856057 -0.5877112217 0.0000000000 0.0000000000 0.0000000000 -524.6457351415 0.0844856054 -0.0877112217
0.1051480928 -0.5872841009 0.0000000000 0.0000000000 0.0000000000 -542.7355893583 0.0844856054 -0.0877112217
0.1257752784 -0.5860034682 0.0000000000 0.0000000000 0.0000000000 -560.0970845133 0.0844856054 -0.0877112217
0.1463319213 -0.5838715115 0.0000000000 0.0000000000 0.0000000000 -576.7868263381 0.0844856054 -0.0877112217
0.1667829008 -0.5808918734 0.0000000000 0.0000000000 0.0000000000 -592.8556983387 0.0844856054 -0.0877112217
0.1870932768 -0.5770696443 0.0000000000 0.0000000000 0.0000000000 -608.3491815417 0.0844856054 -0.0877112217
0.2072283493 -0.5724113546 0.0000000000 0.0000000000 0.0000000000 -623.3029017704 0.0844856054 -0.0877112217
0.2271537178 -0.5669249628 0.0000000000 0.0000000000 0.0000000000 -637.7411100061 0.0844856054 -0.0877112217
0.2468353403 -0.5606198425 0.0000000000 0.0000000000 0.0000000000 -651.6724881924 0.0844856054 -0.0877112217
0.2662395910 -0.5535067656 0.0000000000 0.0000000000 0.0000000000 -665.0903965697 0.0844856054 -0.0877112217
0.2853333180 -0.5455978849 0.0000000000 0.0000000000 0.0000000000 -677.9670478610 0.0844856054 -0.0877112217
0.3040839001 -0.5369067125 0.0000000000 0.0000000000 0.0000000000 -690.2624535319 0.0844856054 -0.0877112217
0.3224593022 -0.5274480972 0.0000000000 0.0000000000 0.0000000000 -701.9075206706 0.0844856054 -0.0877112217
0.3404281302 -0.5172381987 0.0000000000 0.0000000000 0.0000000000 -712.8440982269 0.0844856054 -0.0877112217
0.3579596847 -0.5062944607 0.0000000000 0.0000000000 0.0000000000 -722.9517210141 0.0844856054 -0.0877112217
0.3750240134 -0.4946355801 0.0000000000 0.0000000000 0.0000000000 -732.2099062070 0.0844856054 -0.0877112217
0.3915919620 -0.4822814762 0.0000000000 0.0000000000 0.0000000000 -740.3753460700 0.0844856054 -0.0877112217
0.4076352246 -0.4692532556 0.0000000000 0.0000000000 0.0000000000 -747.6476854281 0.0844856054 -0.0877112217
0.4231263915 -0.4555731768 0.0000000000 0.0000000000 0.0000000000 -753.3477431592 0.0844856054 -0.0877112217
0.6355970578 -0.6000349624 0.0000000000 -0.0802878606 -0.5813397668 -881.5274709235 0.0858081535 -0.0899054095
0.6541848566 -0.5791396133 0.0000000000 -0.0932519273 -0.5870930184 -890.2102469921 0.0857060639 -0.0899240553
0.6719904444 -0.5575828939 0.0000000000 -0.1073279498 -0.5801624921 -893.6797742199 0.0856168322 -0.0899655429
0.6889736450 -0.5353771828 0.0000000000 -0.1220002332 -0.5626340142 -891.1709826477 0.0855253099 -0.0900120440
0.7051054342 -0.5125475842 0.0000000000 -0.1365185881 -0.5370719965 -882.3477502235 0.0854263532 -0.0900575411
0.7203610695 -0.4891237718 0.0000000000 -0.1500964128 -0.5060526119 -867.3278864301 0.0853179198 -0.0900997148
0.7347185111 -0.4651377208 0.0000000000 -0.1620047345 -0.4719144011 -846.6304307386 0.0851994581 -0.0901377212
0.7481578718 -0.4406228254 0.0000000000 -0.1716467569 -0.4366314328 -821.0791046240 0.0850713264 -0.0901713546
0.7606611235 -0.4156134733 0.0000000000 -0.1785974063 -0.4017804719 -791.6880830063 0.0849344724 -0.0902006693
0.7722119053 -0.3901448127 0.0000000000 -0.1826154058 -0.3685607190 -759.5509447817 0.0847902133 -0.0902257949
0.7827953960 -0.3642526121 0.0000000000 -0.1836342059 -0.3378380111 -725.7461490088 0.0846400844 -0.0902468442
0.7923982348 -0.3379731648 0.0000000000 -0.1817389111 -0.3101969642 -691.2657522395 0.0844857370 -0.0902638687
0.8010084738 -0.3113432137 0.0000000000 -0.1771354105 -0.2859928911 -656.9689834604 0.0843288693 -0.0902768333
0.8086155473 -0.2843998864 0.0000000000 -0.1701167667 -0.2653997002 -623.5587433041 0.0841711774 -0.0902856029
0.8152102510 -0.2571806353 0.0000000000 -0.1610305722 -0.2484518873 -591.5769365038 0.0840143168 -0.0902899352
0.8207847252 -0.2297231831 0.0000000000 -0.1502496030 -0.2350795441 -561.4135987814 0.0838598702 -0.0902894781
0.8253324417 -0.2020654719 0.0000000000 -0.1381468189 -0.2251357977 -533.3247925558 0.0837093220 -0.0902837726
0.8288481934 -0.1742456185 0.0000000000 -0.1250747250 -0.2184166073 -507.4549201414 0.0835640360 -0.0902722618
0.8313280871 -0.1463018749 0.0000000000 -0.1113484669 -0.2146734182 -483.8601289857 0.0834252392 -0.0902543051
0.8327695387 -0.1182725932 0.0000000000 -0.0972318533 -0.2136197127 -462.5305698117 0.0832940100 -0.0902291978
0.8331712710 -0.0901961966 0.0000000000 -0.0829255766 -0.2149327470 -443.4101679179 0.0831712710 -0.0901961969
0.8325333147 -0.0621111535 0.0000000000 -0.0685568127 -0.2182515391 -426.4131415030 0.0830577861 -0.0901545495
0.8308570101 -0.0340559555 0.0000000000 -0.0541688423 -0.2231715922 -411.4367985323 0.0829541623 -0.0901035260
0.8281450138 -0.0060690965 0.0000000000 -0.0397087939 -0.2292366246 -398.3703808058 0.0828608564 -0.0900424538
0.8244013062 0.0218109474 0.0000000000 -0.0250123683 -0.2359286746 -387.1000873791 0.0827781866 -0.0899707524
0.8196312034 0.0495457395 0.0000000000 -0.0097875216 -0.2426606367 -377.5108428005 0.0827063486 -0.0898879661
0.8138413715 0.0770969070 0.0000000000 0.0063961630 -0.2487782887 -369.4856248321 0.0826454374 -0.0897937937
0.8070398428 0.1044261709 0.0000000000 0.0241022179 -0.2535797288 -362.9031219319 0.0825954732 -0.0896881131
0.7992360345 0.1314953836 0.0000000000 0.0439970770 -0.2563568985 -357.6344309254 0.0825564302 -0.0895709974
0.7904407664 0.1582665762 0.0000000000 0.0667923692 -0.2564569170 -353.5398422124 0.0825282688 -0.0894427205
0.7806662785 0.1847020189 0.0000000000 0.0931664110 -0.2533530966 -350.4674760202 0.0825109671 -0.0893037496
0.7699262413 0.2107642963 0.0000000000 0.1236791120 -0.2467102595 -348.2559815082 0.0825045494 -0.0891547221
0.7582357545 0.2364163992 0.0000000000 0.1586971366 -0.2364285116 -346.7429223772 0.0825091037 -0.0889964053
0.7456113221 0.2616218331 0.0000000000 0.1983433307 -0.2226542938 -345.7786993116 0.0825247771 -0.0888296383
0.7320707866 0.2863447360 0.0000000000 0.2424774242 -0.2057563710 -345.2435983086 0.0825517338 -0.0886552641
0.7176332075 0.3105499942 0.0000000000 0.2907061085 -0.1862753492 -345.0638839635 0.0825900581 -0.0884740633
0.7023186760 0.3342033255 0.0000000000 0.3424128135 -0.1648645735 -345.2225567503 0.0826395953 -0.0882867182
0.6861480768 0.3572712938 0.0000000000 0.3967945062 -0.1422428085 -345.7615389572 0.0826997421 -0.0880938454
0.6691428033 0.3797211981 0.0000000000 0.4528969815 -0.1191713978 -346.7741195254 0.0827691915 -0.0878961534
0.6513242684 0.4015206723 0.0000000000 0.5096497906 -0.0964524496 -348.3884938714 0.0828454761 -0.0876948862
0.6327126494 0.4226366719 0.0000000000 0.5659117955 -0.0749285632 -350.7463748385 0.0829237455 -0.0874928815
0.5910077434 0.4646931332 0.0000000000 0.6777477959 -0.0372822847 -358.6554185570 0.0830465647 -0.0870997998
0.5678331063 0.4853808970 0.0000000000 0.7305319941 -0.0234398676 -364.5277240349 0.0831086780 -0.0869321542
0.5438435557 0.5050750484 0.0000000000 0.7782399929 -0.0142831612 -371.4646419236 0.0831840213 -0.0867803337
0.5190799179 0.5237458903 0.0000000000 0.8207433454 -0.0096281615 -379.2306186736 0.0832723065 -0.0866406477
0.4935828756 0.5413632822 0.0000000000 0.8584051867 -0.0087224224 -387.4895333731 0.0833717571 -0.0865115766
0.4673937638 0.5578975787 0.0000000000 0.8919532085 -0.0103605738 -395.8384955865 0.0834799771 -0.0863928871
0.4405550556 0.5733201721 0.0000000000 0.9222914841 -0.0130939068 -403.8526450300 0.0835945109 -0.0862851414
0.4131105172 0.5876038452 0.0000000000 0.9503057188 -0.0154736431 -411.1272628122 0.0837130757 -0.0861893913
0.3851052185 0.6007230736 0.0000000000 0.9767087304 -0.0162632222 -417.3075786643 0.0838336501 -0.0861069215
0.3565854660 0.6126542513 0.0000000000 1.0019540593 -0.0145736387 -422.1017085431 0.0839544882 -0.0860390648
0.3275987081 0.6233758417 0.0000000000 1.0262217765 -0.0099058410 -425.2782476869 0.0840741063 -0.0859870896
0.2981934377 0.6328684812 0.0000000000 1.0494609395 -0.0021129406 -426.6543333333 0.0841912696 -0.0859521306
0.2684191009 0.6411150565 0.0000000000 1.0714629405 0.0086870042 -426.0811445117 0.0843049857 -0.0859351430
0.2383260107 0.6481007694 0.0000000000 1.0919399813 0.0222129297 -423.4321874284 0.0844145042 -0.0859368646
0.2079652593 0.6538131900 0.0000000000 1.1105901467 0.0381102321 -418.5968142659 0.0845193167 -0.0859577876
0.1773886258 0.6582422948 0.0000000000 1.1271404854 0.0560134430 -411.4787888822 0.0846191525 -0.0859981401
0.1466484731 0.6613804896 0.0000000000 1.1413681774 0.0755800844 -401.9982101618 0.0847139641 -0.0860578802
0.1157976325 0.6632226169 0.0000000000 1.1531050922 0.0965016658 -390.0948005092 0.0848039019 -0.0861367018
0.0848892770 0.6637659522 0.0000000000 1.1622326604 0.1185007342 -375.7310402605 0.0848892772 -0.0862340478
0.0539767835 0.6630101929 0.0000000000 1.1686730341 0.1413220584 -358.8943574056 0.0849705143 -0.0863491258
0.0231135885 0.6609574462 0.0000000000 1.1723804477 0.1647234052 -339.5981984207 0.0850480977 -0.0864809235
-0.0076469586 0.6576122139 0.0000000000 1.1733346230 0.1884685955 -317.8821629540 0.0851225150 -0.0866282208
-0.0382517409 0.6529813773 0.0000000000 1.1715365798 0.2123234952 -293.8115003727 0.0851942019 -0.0867896002
-0.0686480154 0.6470741779 0.0000000000 1.1670064291 0.2360545086 -267.4762308612 0.0852634914 -0.0869634561
-0.0987835477 0.6399021925 0.0000000000 1.1597824770 0.2594287811 -238.9900607692 0.0853305678 -0.0871480069
-0.1286067392 0.6314793026 0.0000000000 1.1499210267 0.2822153830 -208.4891723903 0.0853954292 -0.0873413092
-0.1580667468 0.6218216556 0.0000000000 1.1374964386 0.3041869628 -176.1309082266 0.0854578553 -0.0875412756
-0.1871135942 0.6109476224 0.0000000000 1.1226011864 0.3251215718 -142.0923407460 0.0855173839 -0.0877456935
-0.2156982761 0.5988777511 0.0000000000 1.1053457780 0.3448045174 -106.5687112192 0.0855732926 -0.0879522438
-0.2437728559 0.5856347223 0.0000000000 1.0858584875 0.3630301895 -69.7717242034 0.0856245859 -0.0881585140
-0.2712905632 0.5712433127 0.0000000000 1.0642848859 0.3796038373 -31.9276897407 0.0856699818 -0.0883620006
-0.2982059006 0.5557303786 0.0000000000 1.0407871636 0.3943432771 6.7244899740 0.0857078864 -0.0885600871
-0.3244747878 0.5391248910 0.0000000000 1.0155432381 0.4070804818 45.9354854218 0.0857363309 -0.0887499676
-0.3500548118 0.5214581003 0.0000000000 0.9887456300 0.4176629299 85.4478321009 0.0857528000 -0.0889284375
-0.3749057859 0.5027640648 0.0000000000 0.9606000957 0.4259543750 124.9983178573 0.0857537488 -0.0890913171
-0.3989913845 0.4830814458 0.0000000000 0.9313243429 0.4318338187 164.3197569768 0.0857330441 -0.0892316052
-0.4222852688 0.4624606046 0.0000000000 0.9011455408 0.4351873775 203.1449206543 0.0856759101 -0.0893323282
-0.4661925552 0.4183344978 0.0000000000 0.8389985319 0.4343099663 278.2998045593 0.0856003779 -0.0896266808
-0.4867303953 0.3948890783 0.0000000000 0.8074506382 0.4300217141 314.1877932993 0.0855826560 -0.0898353499
-0.5063288072 0.3706490750 0.0000000000 0.7759298386 0.4230477974 348.5960401803 0.0855265750 -0.0900104593
-0.5249402558 0.3456427032 0.0000000000 0.7446730308 0.4134308787 381.3024757639 0.0854462823 -0.0901649081
-0.5425275804 0.3199074963 0.0000000000 0.7139130757 0.4012188374 412.1011524007 0.0853472784 -0.0903036221
-0.5590576910 0.2934846065 0.0000000000 0.6838739846 0.3864776493 440.8057297147 0.0852327749 -0.0904291801
-0.5745000103 0.2664172903 0.0000000000 0.6547695616 0.3692916357 467.2505851284 0.0851053032 -0.0905432543
-0.5888260368 0.2387503911 0.0000000000 0.6268012034 0.3497627821 491.2919394230 0.0849671997 -0.0906470503
-0.6020092229 0.2105301079 0.0000000000 0.6001561418 0.3280092746 512.8086102060 0.0848207722 -0.0907414603
-0.6140249669 0.1818038596 0.0000000000 0.5750060093 0.3041637568 531.7024051280 0.0846683492 -0.0908271181
-0.6248506504 0.1526201832 0.0000000000 0.5515058068 0.2783713791 547.8981655271 0.0845122809 -0.0909044185
-0.6344656954 0.1230286414 0.0000000000 0.5297932532 0.2507876743 561.3434973415 0.0843549165 -0.0909735265
-0.6428516276 0.0930797284 0.0000000000 0.5099883837 0.2215763397 572.0081809855 0.0841985720 -0.0910343866
-0.6499921395 0.0628247704 0.0000000000 0.4921933965 0.1909069691 579.8832919926 0.0840454946 -0.0910867360
-0.6558731484 0.0323158181 0.0000000000 0.4764927088 0.1589527776 584.9800467704 0.0838978292 -0.0911301243
-0.6604828457 0.0016055320 0.0000000000 0.4629531393 0.1258884059 587.3283782244 0.0837575892 -0.0911639412
-0.6638117359 -0.0292529430 0.0000000000 0.4516242319 0.0918878929 586.9752737339 0.0836266338 -0.0911874518
-0.6658526647 -0.0602061105 0.0000000000 0.4425388299 0.0571228446 583.9829338313 0.0835066541 -0.0911998409
-0.6666008355 -0.0912002645 0.0000000000 0.4357139965 0.0217607771 578.4268090521 0.0833991645 -0.0912002642
-0.6660538165 -0.1221816380 0.0000000000 0.4311522750 -0.0140363969 570.3935539234 0.0833055022 -0.0911879070
-0.6642115369 -0.1530965558 0.0000000000 0.4288431911 -0.0501137308 559.9789241057 0.0832268328 -0.0911620464
-0.6610762705 -0.1838915891 0.0000000000 0.4287648736 -0.0863244160 547.2856459681 0.0831641642 -0.0911221154
-0.6566526062 -0.2145137084 0.0000000000 0.4308857039 -0.1225307080 532.4213009273 0.0831183713 -0.0910677654