 TITLE = "Tecplot data"
 VARIABLES = "X", "Y", "Z" "U", "V", "p", "dispX", "dispY"
 ZONE SOLUTIONTIME=48.900000, NODES=26114 , ELEMENTS=25916, DATAPACKING=POINT, ZONETYPE=FEQUADRILATERAL
0.4316771510 0.0416808372 0.0000000000 0.0000000000 0.0000000000 -291.8478357296 0.0781237604 -0.3118725534
0.4316771513 -0.6654259438 0.0000000000 0.0000000000 0.0000000000 -1237.7810643987 0.0781237604 -0.3118725534
-0.2754296303 0.0416808370 0.0000000000 0.0000000000 0.0000000000 272.6589038534 0.0781237604 -0.3118725534
-0.2754296300 -0.6654259442 0.0000000000 0.0000000000 0.0000000000 -99.0790597466 0.0781237604 -0.3118725534
0.6068872894 0.2190710831 0.0000000000 0.0754807368 0.1656491286 -288.3861579220 0.0765572035 -0.3112590029
0.6081456105 -0.8523233612 0.0000000000 0.9735943247 0.4766733955 -577.0829648614 0.0778155243 -0.3219932757
-0.4547715307 0.2105613727 0.0000000000 0.5158731941 0.4352091856 319.3597179286 0.0755585553 -0.3197687130
-0.4495047366 -0.8473474155 0.0000000000 1.0395604875 -0.5502930855 74.5467678369 0.0808253490 -0.3170173293
1.1336138136 0.7449233993 0.0000000000 0.9803656958 0.3002784854 -947.1851657697 0.0729536419 -0.3157367726
1.1418999775 -1.3800343187 0.0000000000 0.9332705159 0.0064511499 -146.2805448999 0.0812398049 -0.3193741477
-0.9916179650 0.7212674973 0.0000000000 0.8470654918 0.2072724388 261.7486662442 0.0690422071 -0.3393926742
-0.9748353315 -1.3942604950 0.0000000000 0.9909119654 -0.1760594197 112.0430755010 0.0858248397 -0.3336003227
4.2433812324 3.0234278086 0.0000000000 0.9977014324 0.0309498273 71.0124083611 0.0433812324 -0.2765721914
4.3014645312 -3.5756358849 0.0000000000 1.0644835236 0.0357851946 17.0320556087 0.1014645312 -0.2756358849
20.0000000000 4.7000000000 0.0000000000 1.1113499541 0.1658756098 1.9786432457 0.0000000000 0.0000000000
20.0000000000 -4.7000000000 0.0000000000 1.0801158359 -0.0251664996 0.2112399361 0.0000000000 0.0000000000
-10.0000000000 15.0000000000 0.0000000000 1.0000000000 0.0000000000 104.5354559834 0.0000000000 0.0000000000
20.0000000000 15.0000000000 0.0000000000 1.0445724546 0.0000000000 -0.0305017434 0.0000000000 0.0000000000
20.0000000000 -15.0000000000 0.0000000000 1.0353739610 0.0000000000 -0.0047387468 0.0000000000 0.0000000000
-10.0000000000 -15.0000000000 0.0000000000 1.0000000000 0.0000000000 67.2131713303 0.0000000000 0.0000000000
0.4446496966 -0.6519589221 0.0000000000 0.0000000000 0.0000000000 -1220.3335999182 0.0781237604 -0.3118725534
0.4571096222 -0.6380162588 0.0000000000 0.0000000000 0.0000000000 -1154.0589815051 0.0781237604 -0.3118725534
0.4690395019 -0.6236174541 0.0000000000 0.0000000000 0.0000000000 -1115.1180355057 0.0781237604 -0.3118725534
0.4804226505 -0.6087826460 0.0000000000 0.0000000000 0.0000000000 -1062.9878560731 0.0781237604 -0.3118725534
0.4912431478 -0.5935325822 0.0000000000 0.0000000000 0.0000000000 -1018.1710325610 0.0781237604 -0.3118725534
0.5014858602 -0.5778885914 0.0000000000 0.0000000000 0.0000000000 -970.5745512932 0.0781237604 -0.3118725534
0.5111364625 -0.5618725532 0.0000000000 0.0000000000 0.0000000000 -925.7955961472 0.0781237604 -0.3118725534
0.5201814573 -0.5455068673 0.0000000000 0.0000000000 0.0000000000 -881.3060729572 0.0781237604 -0.3118725534
0.5286081945 -0.5288144227 0.0000000000 0.0000000000 0.0000000000 -838.7714270159 0.0781237604 -0.3118725534
0.5364048885 -0.5118185653 0.0000000000 0.0000000000 0.0000000000 -797.6459862855 0.0781237604 -0.3118725534
0.5435606348 -0.4945430654 0.0000000000 0.0000000000 0.0000000000 -758.4992939606 0.0781237604 -0.3118725534
0.5500654257 -0.4770120842 0.0000000000 0.0000000000 0.0000000000 -721.2965258292 0.0781237604 -0.3118725534
0.5559101634 -0.4592501404 0.0000000000 0.0000000000 0.0000000000 -686.2314387098 0.0781237604 -0.3118725534
0.5610866736 -0.4412820758 0.0000000000 0.0000000000 0.0000000000 -653.4762673790 0.0781237604 -0.3118725534
0.5655877166 -0.4231330202 0.0000000000 0.0000000000 0.0000000000 -622.7385249090 0.0781237604 -0.3118725534
0.5694069971 -0.4048283568 0.0000000000 0.0000000000 0.0000000000 -594.7011510635 0.0781237604 -0.3118725534
0.5725391736 -0.3863936863 0.0000000000 0.0000000000 0.0000000000 -569.3203409992 0.0781237604 -0.3118725534
0.5749798654 -0.3678547913 0.0000000000 0.0000000000 0.0000000000 -547.6118219387 0.0781237604 -0.3118725534
0.5767256590 -0.3492376000 0.0000000000 0.0000000000 0.0000000000 -525.3910543646 0.0781237604 -0.3118725534
0.5777741128 -0.3305681504 0.0000000000 0.0000000000 0.0000000000 -506.3598428354 0.0781237604 -0.3118725534
0.5781237604 -0.3118725532 0.0000000000 0.0000000000 0.0000000000 -489.2698083169 0.0781237604 -0.3118725534
0.5777741128 -0.2931769561 0.0000000000 0.0000000000 0.0000000000 -474.0164782287 0.0781237604 -0.3118725534
0.5767256590 -0.2745075065 0.0000000000 0.0000000000 0.0000000000 -460.3390775928 0.0781237604 -0.3118725534
0.5749798653 -0.2558903152 0.0000000000 0.0000000000 0.0000000000 -448.0029050156 0.0781237604 -0.3118725534
0.5725391735 -0.2373514202 0.0000000000 0.0000000000 0.0000000000 -436.7666890953 0.0781237604 -0.3118725534
0.5694069970 -0.2189167497 0.0000000000 0.0000000000 0.0000000000 -426.4026996588 0.0781237604 -0.3118725534
0.5655877165 -0.2006120863 0.0000000000 0.0000000000 0.0000000000 -416.7094505550 0.0781237604 -0.3118725534
0.5610866735 -0.1824630307 0.0000000000 0.0000000000 0.0000000000 -407.4858816290 0.0781237604 -0.3118725534
0.5559101633 -0.1644949661 0.0000000000 0.0000000000 0.0000000000 -398.6435993748 0.0781237604 -0.3118725534
0.5500654255 -0.1467330223 0.0000000000 0.0000000000 0.0000000000 -389.9470404022 0.0781237604 -0.3118725534
0.5435606347 -0.1292020411 0.0000000000 0.0000000000 0.0000000000 -381.3433669583 0.0781237604 -0.3118725534
0.5364048883 -0.1119265412 0.0000000000 0.0000000000 0.0000000000 -372.7716284212 0.0781237604 -0.3118725534
0.5286081943 -0.0949306838 0.0000000000 0.0000000000 0.0000000000 -364.3359224837 0.0781237604 -0.3118725534
0.5201814571 -0.0782382392 0.0000000000 0.0000000000 0.0000000000 -355.9106533310 0.0781237604 -0.3118725534
0.5111364623 -0.0618725534 0.0000000000 0.0000000000 0.0000000000 -347.5033949901 0.0781237604 -0.3118725534
0.5014858600 -0.0458565151 0.0000000000 0.0000000000 0.0000000000 -339.1503030863 0.0781237604 -0.3118725534
0.4912431475 -0.0302125243 0.0000000000 0.0000000000 0.0000000000 -330.8880744223 0.0781237604 -0.3118725534
0.4804226503 -0.0149624606 0.0000000000 0.0000000000 0.0000000000 -322.7340320591 0.0781237604 -0.3118725534
0.4690395016 -0.0001276525 0.0000000000 0.0000000000 0.0000000000 -314.7548955657 0.0781237604 -0.3118725534
0.4571096220 0.0142711522 0.0000000000 0.0000000000 0.0000000000 -306.9188439434 0.0781237604 -0.3118725534
0.4446496963 0.0282138155 0.0000000000 0.0000000000 0.0000000000 -299.3426509119 0.0781237604 -0.3118725534
0.4167645462 0.0559894019 0.0000000000 0.0000000000 0.0000000000 -283.9623457801 0.0781237604 -0.3118725534
0.4012733793 0.0696694807 0.0000000000 0.0000000000 0.0000000000 -276.1468578601 0.0781237604 -0.3118725534
0.3852301167 0.0826977013 0.0000000000 0.0000000000 0.0000000000 -268.5887856098 0.0781237604 -0.3118725534
0.3686621681 0.0950518052 0.0000000000 0.0000000000 0.0000000000 -261.0962349914 0.0781237604 -0.3118725534
0.3515978394 0.1067106857 0.0000000000 0.0000000000 0.0000000000 -253.6773605289 0.0781237604 -0.3118725534
0.3340662849 0.1176544238 0.0000000000 0.0000000000 0.0000000000 -246.2182371275 0.0781237604 -0.3118725534
0.3160974569 0.1278643222 0.0000000000 0.0000000000 0.0000000000 -238.6729901070 0.0781237604 -0.3118725534
0.2977220548 0.1373229375 0.0000000000 0.0000000000 0.0000000000 -230.9587387835 0.0781237604 -0.3118725534
0.2789714727 0.1460141099 0.0000000000 0.0000000000 0.0000000000 -223.0205660721 0.0781237604 -0.3118725534
0.2598777456 0.1539229906 0.0000000000 0.0000000000 0.0000000000 -214.7946854830 0.0781237604 -0.3118725534
0.2404734949 0.1610360674 0.0000000000 0.0000000000 0.0000000000 -206.2304995997 0.0781237604 -0.3118725534
0.2207918725 0.1673411878 0.0000000000 0.0000000000 0.0000000000 -197.2771111447 0.0781237604 -0.3118725534
0.2008665039 0.1728275795 0.0000000000 0.0000000000 0.0000000000 -187.8906010189 0.0781237604 -0.3118725534
0.1807314314 0.1774858692 0.0000000000 0.0000000000 0.0000000000 -178.0289307463 0.0781237604 -0.3118725534
0.1604210555 0.1813080983 0.0000000000 0.0000000000 0.0000000000 -167.6541664311 0.0781237604 -0.3118725534
0.1399700760 0.1842877364 0.0000000000 0.0000000000 0.0000000000 -156.7304187049 0.0781237604 -0.3118725534
0.1194134331 0.1864196931 0.0000000000 0.0000000000 0.0000000000 -145.2243555289 0.0781237604 -0.3118725534
0.0987862474 0.1877003257 0.0000000000 0.0000000000 0.0000000000 -133.1042787424 0.0781237604 -0.3118725534
0.0781237603 0.1881274466 0.0000000000 0.0000000000 0.0000000000 -120.3401296039 0.0781237604 -0.3118725534
0.0574612732 0.1877003257 0.0000000000 0.0000000000 0.0000000000 -106.9030638188 0.0781237604 -0.3118725534
0.0368340876 0.1864196930 0.0000000000 0.0000000000 0.0000000000 -92.7653960956 0.0781237604 -0.3118725534
0.0162774447 0.1842877364 0.0000000000 0.0000000000 0.0000000000 -77.9004634619 0.0781237604 -0.3118725534
-0.0041735348 0.1813080982 0.0000000000 0.0000000000 0.0000000000 -62.2826729000 0.0781237604 -0.3118725534
-0.0244839108 0.1774858692 0.0000000000 0.0000000000 0.0000000000 -45.8875923263 0.0781237604 -0.3118725534
-0.0446189833 0.1728275795 0.0000000000 0.0000000000 0.0000000000 -28.6921753369 0.0781237604 -0.3118725534
-0.0645443518 0.1673411877 0.0000000000 0.0000000000 0.0000000000 -10.6750798958 0.0781237604 -0.3118725534
-0.0842259743 0.1610360674 0.0000000000 0.0000000000 0.0000000000 8.1828936671 0.0781237604 -0.3118725534
-0.1036302250 0.1539229905 0.0000000000 0.0000000000 0.0000000000 27.8982694660 0.0781237604 -0.3118725534
-0.1227239520 0.1460141098 0.0000000000 0.0000000000 0.0000000000 48.4842824952 0.0781237604 -0.3118725534
-0.1414745341 0.1373229374 0.0000000000 0.0000000000 0.0000000000 69.9502209234 0.0781237604 -0.3118725534
-0.1598499362 0.1278643221 0.0000000000 0.0000000000 0.0000000000 92.3007591876 0.0781237604 -0.3118725534
-0.1778187642 0.1176544237 0.0000000000 0.0000000000 0.0000000000 115.5353162554 0.0781237604 -0.3118725534
-0.1953503188 0.1067106856 0.0000000000 0.0000000000 0.0000000000 139.6474544809 0.0781237604 -0.3118725534
-0.2124146474 0.0950518051 0.0000000000 0.0000000000 0.0000000000 164.6243079291 0.0781237604 -0.3118725534
-0.2289825960 0.0826977012 0.0000000000 0.0000000000 0.0000000000 190.4459844670 0.0781237604 -0.3118725534
-0.2450258586 0.0696694806 0.0000000000 0.0000000000 0.0000000000 217.0848543179 0.0781237604 -0.3118725534
-0.2605170255 0.0559894018 0.0000000000 0.0000000000 0.0000000000 244.5045935657 0.0781237604 -0.3118725534
-0.2897381950 0.0267682322 0.0000000000 0.0000000000 0.0000000000 301.4896973681 0.0781237604 -0.3118725534
-0.3034182738 0.0112770654 0.0000000000 0.0000000000 0.0000000000 330.9245658303 0.0781237604 -0.3118725534
-0.3164464944 -0.0047661972 0.0000000000 0.0000000000 0.0000000000 360.8729920869 0.0781237604 -0.3118725534
-0.3288005983 -0.0213341459 0.0000000000 0.0000000000 0.0000000000 391.2206237946 0.0781237604 -0.3118725534
-0.3404594788 -0.0383984745 0.0000000000 0.0000000000 0.0000000000 421.8215302233 0.0781237604 -0.3118725534
-0.3514032169 -0.0559300290 0.0000000000 0.0000000000 0.0000000000 452.4921323622 0.0781237604 -0.3118725534
-0.3616131153 -0.0738988571 0.0000000000 0.0000000000 0.0000000000 483.0140141407 0.0781237604 -0.3118725534
-0.3710717306 -0.0922742592 0.0000000000 0.0000000000 0.0000000000 513.1443326020 0.0781237604 -0.3118725534
-0.3797629030 -0.1110248413 0.0000000000 0.0000000000 0.0000000000 542.6200110284 0.0781237604 -0.3118725534
-0.3876717837 -0.1301185683 0.0000000000 0.0000000000 0.0000000000 571.1527421727 0.0781237604 -0.3118725534
-0.3947848605 -0.1495228190 0.0000000000 0.0000000000 0.0000000000 598.4240465773 0.0781237604 -0.3118725534
-0.4010899809 -0.1692044415 0.0000000000 0.0000000000 0.0000000000 624.0873419179 0.0781237604 -0.3118725534
-0.4065763726 -0.1891298101 0.0000000000 0.0000000000 0.0000000000 647.7729764463 0.0781237604 -0.3118725534
-0.4112346623 -0.2092648825 0.0000000000 0.0000000000 0.0000000000 669.0981425836 0.0781237604 -0.3118725534
-0.4150568913 -0.2295752585 0.0000000000 0.0000000000 0.0000000000 687.6715153937 0.0781237604 -0.3118725534
-0.4180365295 -0.2500262380 0.0000000000 0.0000000000 0.0000000000 703.1083816295 0.0781237604 -0.3118725534
-0.4201684861 -0.2705828809 0.0000000000 0.0000000000 0.0000000000 715.0260830257 0.0781237604 -0.3118725534
-0.4214491188 -0.2912100665 0.0000000000 0.0000000000 0.0000000000 723.0741457373 0.0781237604 -0.3118725534
-0.4218762396 -0.3118725537 0.0000000000 0.0000000000 0.0000000000 726.9002203462 0.0781237604 -0.3118725534
-0.4214491188 -0.3325350408 0.0000000000 0.0000000000 0.0000000000 726.2292688788 0.0781237604 -0.3118725534
-0.4201684861 -0.3531622264 0.0000000000 0.0000000000 0.0000000000 720.7383457528 0.0781237604 -0.3118725534
-0.4180365294 -0.3737188693 0.0000000000 0.0000000000 0.0000000000 710.2928956582 0.0781237604 -0.3118725534
-0.4150568912 -0.3941698488 0.0000000000 0.0000000000 0.0000000000 694.5390428217 0.0781237604 -0.3118725534
-0.4112346622 -0.4144802248 0.0000000000 0.0000000000 0.0000000000 673.6362514670 0.0781237604 -0.3118725534
-0.4065763725 -0.4346152972 0.0000000000 0.0000000000 0.0000000000 646.9634028113 0.0781237604 -0.3118725534
-0.4010899807 -0.4545406658 0.0000000000 0.0000000000 0.0000000000 615.4354437470 0.0781237604 -0.3118725534
-0.3947848604 -0.4742222883 0.0000000000 0.0000000000 0.0000000000 577.3327468065 0.0781237604 -0.3118725534
-0.3876717835 -0.4936265389 0.0000000000 0.0000000000 0.0000000000 535.9694759650 0.0781237604 -0.3118725534
-0.3797629028 -0.5127202660 0.0000000000 0.0000000000 0.0000000000 485.1495645279 0.0781237604 -0.3118725534
-0.3710717304 -0.5314708481 0.0000000000 0.0000000000 0.0000000000 438.3641013807 0.0781237604 -0.3118725534
-0.3616131151 -0.5498462502 0.0000000000 0.0000000000 0.0000000000 365.4473303711 0.0781237604 -0.3118725534
-0.3514032166 -0.5678150782 0.0000000000 0.0000000000 0.0000000000 344.7752655860 0.0781237604 -0.3118725534
-0.3404594786 -0.5853466327 0.0000000000 0.0000000000 0.0000000000 168.8242354034 0.0781237604 -0.3118725534
-0.3288005981 -0.6024109613 0.0000000000 0.0000000000 0.0000000000 291.5942133032 0.0781237604 -0.3118725534
-0.3164464941 -0.6189789100 0.0000000000 0.0000000000 0.0000000000 -162.8510769647 0.0781237604 -0.3118725534
-0.3034182735 -0.6350221726 0.0000000000 0.0000000000 0.0000000000 276.6930154957 0.0781237604 -0.3118725534
-0.2897381947 -0.6505133394 0.0000000000 0.0000000000 0.0000000000 -336.2772267723 0.0781237604 -0.3118725534
-0.2605170252 -0.6797345090 0.0000000000 0.0000000000 0.0000000000 118.4847793372 0.0781237604 -0.3118725534
-0.2450258583 -0.6934145877 0.0000000000 0.0000000000 0.0000000000 -801.0999135457 0.0781237604 -0.3118725534
-0.2289825957 -0.7064428083 0.0000000000 0.0000000000 0.0000000000 -200.7801021325 0.0781237604 -0.3118725534
-0.2124146471 -0.7187969122 0.0000000000 0.0000000000 0.0000000000 -626.6520961322 0.0781237604 -0.3118725534
-0.1953503184 -0.7304557927 0.0000000000 0.0000000000 0.0000000000 -514.9601923706 0.0781237604 -0.3118725534
-0.1778187639 -0.7413995308 0.0000000000 0.0000000000 0.0000000000 -721.7417326059 0.0781237604 -0.3118725534
-0.1598499359 -0.7516094292 0.0000000000 0.0000000000 0.0000000000 -739.2787866055 0.0781237604 -0.3118725534
-0.1414745338 -0.7610680445 0.0000000000 0.0000000000 0.0000000000 -869.6070434048 0.0781237604 -0.3118725534
-0.1227239516 -0.7697592169 0.0000000000 0.0000000000 0.0000000000 -926.2043013184 0.0781237604 -0.3118725534
-0.1036302246 -0.7776680976 0.0000000000 0.0000000000 0.0000000000 -1024.9543089383 0.0781237604 -0.3118725534
-0.0842259739 -0.7847811744 0.0000000000 0.0000000000 0.0000000000 -1091.9941926989 0.0781237604 -0.3118725534
-0.0645443514 -0.7910862948 0.0000000000 0.0000000000 0.0000000000 -1173.4847181992 0.0781237604 -0.3118725534
-0.0446189829 -0.7965726865 0.0000000000 0.0000000000 0.0000000000 -1239.3661686595 0.0781237604 -0.3118725534
-0.0244839104 -0.8012309762 0.0000000000 0.0000000000 0.0000000000 -1308.1320152001 0.0781237604 -0.3118725534
-0.0041735344 -0.8050532052 0.0000000000 0.0000000000 0.0000000000 -1367.3934840223 0.0781237604 -0.3118725534
0.0162774451 -0.8080328434 0.0000000000 0.0000000000 0.0000000000 -1424.4779998796 0.0781237604 -0.3118725534
0.0368340880 -0.8101648000 0.0000000000 0.0000000000 0.0000000000 -1474.2354762763 0.0781237604 -0.3118725534
0.0574612736 -0.8114454327 0.0000000000 0.0000000000 0.0000000000 -1519.4996937732 0.0781237604 -0.3118725534
0.0781237607 -0.8118725534 0.0000000000 0.0000000000 0.0000000000 -1558.1222022655 0.0781237604 -0.3118725534
0.0987862479 -0.8114454326 0.0000000000 0.0000000000 0.0000000000 -1591.1703138547 0.0781237604 -0.3118725534
0.1194134335 -0.8101647999 0.0000000000 0.0000000000 0.0000000000 -1617.7688042720 0.0781237604 -0.3118725534
0.1399700764 -0.8080328433 0.0000000000 0.0000000000 0.0000000000 -1638.3349236837 0.0781237604 -0.3118725534
0.1604210559 -0.8050532051 0.0000000000 0.0000000000 0.0000000000 -1652.5630668320 0.0781237604 -0.3118725534
0.1807314318 -0.8012309760 0.0000000000 0.0000000000 0.0000000000 -1660.6741912638 0.0781237604 -0.3118725534
0.2008665043 -0.7965726863 0.0000000000 0.0000000000 0.0000000000 -1662.6465498311 0.0781237604 -0.3118725534
0.2207918729 -0.7910862946 0.0000000000 0.0000000000 0.0000000000 -1658.6854398777 0.0781237604 -0.3118725534
0.2404734953 -0.7847811742 0.0000000000 0.0000000000 0.0000000000 -1648.9334816517 0.0781237604 -0.3118725534
0.2598777460 -0.7776680974 0.0000000000 0.0000000000 0.0000000000 -1633.6520913446 0.0781237604 -0.3118725534
0.2789714731 -0.7697592166 0.0000000000 0.0000000000 0.0000000000 -1613.0820249411 0.0781237604 -0.3118725534
0.2977220551 -0.7610680442 0.0000000000 0.0000000000 0.0000000000 -1587.5899551603 0.0781237604 -0.3118725534
0.3160974572 -0.7516094289 0.0000000000 0.0000000000 0.0000000000 -1557.4241921079 0.0781237604 -0.3118725534
0.3340662853 -0.7413995305 0.0000000000 0.0000000000 0.0000000000 -1523.1501682836 0.0781237604 -0.3118725534
0.3515978398 -0.7304557924 0.0000000000 0.0000000000 0.0000000000 -1484.9255150846 0.0781237604 -0.3118725534
0.3686621684 -0.7187969119 0.0000000000 0.0000000000 0.0000000000 -1443.2705236452 0.0781237604 -0.3118725534
0.3852301170 -0.7064428079 0.0000000000 0.0000000000 0.0000000000 -1399.7553093638 0.0781237604 -0.3118725534
0.4012733796 -0.6934145873 0.0000000000 0.0000000000 0.0000000000 -1349.1422360487 0.0781237604 -0.3118725534
0.4167645465 -0.6797345085 0.0000000000 0.0000000000 0.0000000000 -1311.9740696621 0.0781237604 -0.3118725534
0.6273426395 -0.8319073507 0.0000000000 0.9364111378 0.4846994654 -560.4141368393 0.0775537353 -0.3217777978
0.6459661049 -0.8111413137 0.0000000000 0.8988588972 0.4906770055 -543.0407128084 0.0774873122 -0.3219257556
0.6638229550 -0.7897771773 0.0000000000 0.8610537060 0.4951032514 -525.5842421487 0.0774493429 -0.3221598263
0.6808648796 -0.7677780802 0.0000000000 0.8230977035 0.4980991369 -508.2580689460 0.0774165444 -0.3224129414
0.6970595776 -0.7451494046 0.0000000000 0.7851313530 0.4996986975 -491.2345669622 0.0773804966 -0.3226593614
0.7123796173 -0.7219116929 0.0000000000 0.7473293550 0.4998820695 -474.6605675707 0.0773364676 -0.3228876359
0.7268008609 -0.6980924513 0.0000000000 0.7098965602 0.4985949546 -458.6700218236 0.0772818078 -0.3230924517
0.7403020612 -0.6737228997 0.0000000000 0.6730564266 0.4957712261 -443.3867319930 0.0772155159 -0.3232714289
0.7528645232 -0.6488364254 0.0000000000 0.6370314031 0.4913636325 -428.9274752008 0.0771378721 -0.3234236214
0.7644717575 -0.6234677666 0.0000000000 0.6020154483 0.4853792180 -415.4042110192 0.0770500654 -0.3235487488
0.7751091815 -0.5976525549 0.0000000000 0.5681416446 0.4779134331 -402.9253269368 0.0769538698 -0.3236467871
0.7847638984 -0.5714270446 0.0000000000 0.5354499230 0.4691754631 -391.5955427320 0.0768514005 -0.3237177485
0.7934245511 -0.5448279382 0.0000000000 0.5038613051 0.4594977895 -381.5144841733 0.0767449467 -0.3237615577
0.8010812259 -0.5178922620 0.0000000000 0.4731653309 0.4493252531 -372.7742301222 0.0766368560 -0.3237779785
0.8077253840 -0.4906572707 0.0000000000 0.4430262760 0.4391825865 -365.4562421610 0.0765294498 -0.3237665706
0.8133498082 -0.4631603710 0.0000000000 0.4130113556 0.4296238347 -359.6278381139 0.0764249532 -0.3237266660
0.8179485549 -0.4354390633 0.0000000000 0.3826405811 0.4211713041 -355.3378214519 0.0763254351 -0.3236573640
0.8215169129 -0.4075308995 0.0000000000 0.3514537090 0.4142546226 -352.6103410483 0.0762327555 -0.3235575428
0.8240513687 -0.3794734586 0.0000000000 0.3190855312 0.4091612122 -351.4360299226 0.0761485208 -0.3234258887
0.8255495792 -0.3513043390 0.0000000000 0.2853376116 0.4060074894 -351.7603514064 0.0760740506 -0.3232609436
0.8260103540 -0.3230611683 0.0000000000 0.2502335661 0.4047356671 -353.4707866657 0.0760103540 -0.3230611686
0.8254336465 -0.2947816274 0.0000000000 0.2140469305 0.4051352150 -356.3863128138 0.0759581179 -0.3228250234
0.8238205527 -0.2665034881 0.0000000000 0.1772955183 0.4068825530 -360.2534696202 0.0759177048 -0.3225510586
0.8211733172 -0.2382646587 0.0000000000 0.1407028331 0.4095890660 -364.7524064620 0.0758891598 -0.3222380160
0.8174953449 -0.2101032335 0.0000000000 0.1051336483 0.4128469833 -369.5137319992 0.0758722253 -0.3218849334
0.8127912197 -0.1820575399 0.0000000000 0.0715153407 0.4162648423 -374.1437944090 0.0758663649 -0.3214912455
0.8070667300 -0.1541661761 0.0000000000 0.0407578462 0.4194880079 -378.2536132527 0.0758707960 -0.3210568768
0.8003289048 -0.1264680339 0.0000000000 0.0136832623 0.4222035329 -381.4860458517 0.0758845351 -0.3205823179
0.7925860613 -0.0990022989 0.0000000000 -0.0090277717 0.4241313984 -383.5369618805 0.0759064570 -0.3200686799
0.7838478683 -0.0718084227 0.0000000000 -0.0268703090 0.4250053588 -384.1684673301 0.0759353707 -0.3195177194
0.7741254241 -0.0449260600 0.0000000000 -0.0395312906 0.4245463641 -383.2145297224 0.0759701127 -0.3189318284
0.7634313487 -0.0183949655 0.0000000000 -0.0468917634 0.4224303564 -380.5809535792 0.0760096569 -0.3183139839
0.7517798830 0.0077451559 0.0000000000 -0.0490205119 0.4182510139 -376.2423274821 0.0760532321 -0.3176676486
0.7391869740 0.0334548502 0.0000000000 -0.0461645671 0.4114781386 -370.2385440612 0.0761004289 -0.3169966211
0.7256703113 0.0586951638 0.0000000000 -0.0387410117 0.4014159626 -362.6730916930 0.0761512586 -0.3163048363
0.7112492523 0.0834279181 0.0000000000 -0.0273321684 0.3871749755 -353.7145056068 0.0762061030 -0.3155961394
0.6959445710 0.1076159472 0.0000000000 -0.0126821785 0.3676864051 -343.6006392020 0.0762654904 -0.3148740965
0.6797779994 0.1312231661 0.0000000000 0.0043131368 0.3418049773 -332.6422451571 0.0763296646 -0.3141419732
0.6627716059 0.1542142371 0.0000000000 0.0226382427 0.3085484503 -321.2183595769 0.0763979941 -0.3134031144
0.6449469521 0.1765532282 0.0000000000 0.0412309416 0.2674897882 -309.7541555570 0.0764681598 -0.3126623303
0.6263238457 0.1981997792 0.0000000000 0.0591078041 0.2192343228 -298.6774240860 0.0765349419 -0.3119297742
0.5844767957 0.2413404227 0.0000000000 0.0916505781 0.1046339706 -278.0810398356 0.0765156171 -0.3104525103
0.5611731570 0.2625211237 0.0000000000 0.1058816395 0.0477048028 -269.1639282170 0.0764487287 -0.3097919275
0.5370522916 0.2826540883 0.0000000000 0.1190314097 0.0005593204 -261.6298945742 0.0763927572 -0.3092012938
0.5121551243 0.3017186869 0.0000000000 0.1319974485 -0.0334900845 -255.3418651338 0.0763475128 -0.3086678512
0.4865224769 0.3196889882 0.0000000000 0.1452452962 -0.0542330600 -250.0033039593 0.0763113584 -0.3081858705
0.4601952068 0.3365372866 0.0000000000 0.1586413749 -0.0639291677 -245.1855616146 0.0762814201 -0.3077531793
0.4332150380 0.3522353101 0.0000000000 0.1717035463 -0.0657905265 -240.4442167912 0.0762544933 -0.3073700034
0.4056250190 0.3667549074 0.0000000000 0.1840033219 -0.0626472895 -235.4370407194 0.0762275774 -0.3070383291
0.3774697321 0.3800687863 0.0000000000 0.1954144450 -0.0563973763 -229.9574640370 0.0761981637 -0.3067612087
0.3487952907 0.3921511848 0.0000000000 0.2061307414 -0.0480946703 -223.8994021172 0.0761643129 -0.3065421313
0.3196492207 0.4029783791 0.0000000000 0.2165490995 -0.0382574489 -217.2093951822 0.0761246189 -0.3063845522
0.2900803121 0.4125290394 0.0000000000 0.2271317188 -0.0271259639 -209.8549129520 0.0760781440 -0.3062915725
0.2601384894 0.4207844814 0.0000000000 0.2383103979 -0.0147994102 -201.8096175880 0.0760243742 -0.3062657181
0.2298747113 0.4277288494 0.0000000000 0.2504482599 -0.0012807476 -193.0478080465 0.0759632047 -0.3063087846
0.1993408924 0.4333492411 0.0000000000 0.2638493524 0.0135261945 -183.5417776949 0.0758949499 -0.3064217365
0.1685898331 0.4376357708 0.0000000000 0.2787976186 0.0298376272 -173.2590109583 0.0758203597 -0.3066046640
0.1376751358 0.4405815698 0.0000000000 0.2956041880 0.0480138064 -162.1583413403 0.0757406269 -0.3068567999
0.1066510989 0.4421827353 0.0000000000 0.3146398112 0.0685750579 -150.1853664917 0.0756573684 -0.3071765835
0.0755725764 0.4424382476 0.0000000000 0.3363272750 0.0921925863 -137.2682143375 0.0755725765 -0.3075617524
0.0444948074 0.4413498826 0.0000000000 0.3610717436 0.1196287988 -123.3155869648 0.0754885383 -0.3080094362
0.0134732219 0.4389221405 0.0000000000 0.3891218099 0.1516033000 -108.2196509305 0.0754077312 -0.3085162293
-0.0174367690 0.4351622013 0.0000000000 0.4203828138 0.1885806855 -91.8658825150 0.0753327046 -0.3090782335
-0.0481799844 0.4300799084 0.0000000000 0.4542386769 0.2305146876 -74.1491934360 0.0752659585 -0.3096910691
-0.0787016808 0.4236877693 0.0000000000 0.4894600332 0.2766253397 -54.9909559804 0.0752098260 -0.3103498647
-0.1089477490 0.4160009621 0.0000000000 0.5242642773 0.3253047280 -34.3493124610 0.0751663665 -0.3110492373
-0.1388648992 0.4070373375 0.0000000000 0.5565429660 0.3742203209 -12.2201443145 0.0751372692 -0.3117832743
-0.1684008341 0.3968174097 0.0000000000 0.5842053256 0.4206169396 11.3652117464 0.0751237680 -0.3125455216
-0.1975044101 0.3853643370 0.0000000000 0.6055387739 0.4617428044 36.3372147375 0.0751265680 -0.3133289790
-0.2261257856 0.3727038996 0.0000000000 0.6194827632 0.4952811170 62.5795922254 0.0751457831 -0.3141260953
-0.2542165556 0.3588644847 0.0000000000 0.6257491731 0.5196741175 89.9227633001 0.0751808862 -0.3149287516
-0.2817298718 0.3438771057 0.0000000000 0.6247782981 0.5342712237 118.1473342578 0.0752306731 -0.3157282076
-0.3086205511 0.3277755047 0.0000000000 0.6175681112 0.5392916156 146.9991314326 0.0752932359 -0.3165149610
-0.3348451831 0.3105964573 0.0000000000 0.6054403731 0.5356411267 176.2107067030 0.0753659357 -0.3172784013
-0.3603622720 0.2923805836 0.0000000000 0.5898083488 0.5246507334 205.5221231997 0.0754453397 -0.3180059542
-0.3851325264 0.2731745495 0.0000000000 0.5719944583 0.5078071416 234.6959852516 0.0755270083 -0.3186808324
-0.4091199672 0.2530377639 0.0000000000 0.5531247163 0.4865314290 263.5212015596 0.0756044613 -0.3192752871
-0.4322978923 0.2320660070 0.0000000000 0.5341133160 0.4620270562 291.8154737101 0.0756632866 -0.3197269258
-0.4759503293 0.1869447592 0.0000000000 0.4969351196 0.4067619622 346.5939866346 0.0758426039 -0.3210164193
-0.4963604053 0.1628245272 0.0000000000 0.4794512186 0.3769413775 372.9779126343 0.0759526460 -0.3218999010
-0.5158230914 0.1380067380 0.0000000000 0.4632662864 0.3460704826 398.4266411336 0.0760322908 -0.3226527963
-0.5342926434 0.1124872172 0.0000000000 0.4484727442 0.3142724733 422.8616977285 0.0760938947 -0.3233203941
-0.5517342576 0.0862917745 0.0000000000 0.4351596844 0.2816225530 446.1886186850 0.0761406013 -0.3239193439
-0.5681163729 0.0594563178 0.0000000000 0.4234186672 0.2481724327 468.3027678498 0.0761740930 -0.3244574688
-0.5834093429 0.0320212338 0.0000000000 0.4133411140 0.2139742357 489.0915892433 0.0761959706 -0.3249393107
-0.5975851932 0.0040295021 0.0000000000 0.4050180633 0.1790916268 508.4366688646 0.0762080433 -0.3253679393
-0.6106175956 -0.0244740388 0.0000000000 0.3985380282 0.1436043102 526.2161200786 0.0762123995 -0.3257456070
-0.6224819144 -0.0534430114 0.0000000000 0.3939844775 0.1076083726 542.3071461345 0.0762114017 -0.3260739891
-0.6331552871 -0.0828296626 0.0000000000 0.3914333737 0.0712146944 556.5885789060 0.0762076443 -0.3263542643
-0.6426167208 -0.1125849704 0.0000000000 0.3909510824 0.0345466755 568.9432503999 0.0762038911 -0.3265871383
-0.6508472009 -0.1426587399 0.0000000000 0.3925927214 -0.0022620981 579.2601231391 0.0762029986 -0.3267728550
-0.6578298045 -0.1729997089 0.0000000000 0.3964009416 -0.0390700237 587.4361470721 0.0762078296 -0.3269112153
-0.6635498169 -0.2035556723 0.0000000000 0.4024051100 -0.0757294568 593.3778299419 0.0762211607 -0.3270016147
-0.6679948475 -0.2342736283 0.0000000000 0.4106208698 -0.1120885236 597.0025148300 0.0762455873 -0.3270431014
-0.6711549390 -0.2650999487 0.0000000000 0.4210500594 -0.1479928002 598.2393622629 0.0762834308 -0.3270344575
-0.6730226647 -0.2959805711 0.0000000000 0.4336809643 -0.1832868659 597.0300396270 0.0763366541 -0.3269743015
-0.6735932058 -0.3268612102 0.0000000000 0.4484888612 -0.2178157197 593.3291281483 0.0764067942 -0.3268612099
-0.6728644006 -0.3576875873 0.0000000000 0.4654367946 -0.2514260452 587.1042650585 0.0764949182 -0.3266938563
-0.6708367586 -0.3884056731 0.0000000000 0.4844764999 -0.2839673170 578.3360432300 0.0766016112 -0.3264711636
-0.6675134356 -0.4189619403 0.0000000000 0.5055493755 -0.3152927474 567.0176928456 0.0767269991 -0.3261924666
-0.6629001674 -0.4493036222 0.0000000000 0.5285874042 -0.3452600688 553.1545721410 0.0768708101 -0.3258576792