 TITLE = "Tecplot data"
 VARIABLES = "X", "Y", "Z" "U", "V", "p", "dispX", "dispY"
 ZONE SOLUTIONTIME=9.900000, NODES=26114 , ELEMENTS=25916, DATAPACKING=POINT, ZONETYPE=FEQUADRILATERAL
0.3503146761 0.3535403835 0.0000000000 0.0232533943 0.0000361339 -250.7673024342 -0.0032387145 -0.0000130072
0.3503146763 -0.3535663975 0.0000000000 0.0232533943 0.0000361339 -250.6035529983 -0.0032387145 -0.0000130072
-0.3567921052 0.3535403833 0.0000000000 0.0232533943 0.0000361339 -108.5131636190 -0.0032387145 -0.0000130072
-0.3567921049 -0.3535663979 0.0000000000 0.0232533943 0.0000361339 -108.5104086100 -0.0032387145 -0.0000130072
0.5275026515 0.5301780248 0.0000000000 0.0741166917 0.1423006246 -251.6496068410 -0.0028274343 -0.0001520612
0.5275037970 -0.5302007609 0.0000000000 0.0742280466 -0.1424037884 -251.4207013637 -0.0028262892 0.0001293246
-0.5331360126 0.5304670916 0.0000000000 0.8286579105 0.4765613287 61.6140416188 -0.0028059266 0.0001370058
-0.5331371401 -0.5304897814 0.0000000000 0.8286626134 -0.4765618539 61.6745677494 -0.0028070545 -0.0001596952
1.0585330281 1.0604303437 0.0000000000 1.3522811454 0.1081930646 -353.2259857774 -0.0021271436 -0.0002298282
1.0585348971 -1.0604475162 0.0000000000 1.3523639624 -0.1082984917 -353.3323339933 -0.0021252754 0.0002126548
-1.0627269969 1.0608909963 0.0000000000 0.9306493053 0.1789044878 76.3648620603 -0.0020668248 0.0002308249
-1.0627287068 -1.0609079505 0.0000000000 0.9307047778 -0.1788117408 76.3181976688 -0.0020685356 -0.0002477781
4.1990262101 3.2997868866 0.0000000000 1.0275452159 -0.0520167575 -23.3487250363 -0.0009737899 -0.0002131134
4.1990281802 -3.2997937734 0.0000000000 1.0275151613 0.0519446587 -23.3318831305 -0.0009718198 0.0002062266
20.0000000000 4.7000000000 0.0000000000 0.9995621702 -0.0011660825 0.0028972893 0.0000000000 0.0000000000
20.0000000000 -4.7000000000 0.0000000000 0.9995644003 0.0011680895 0.0031259900 0.0000000000 0.0000000000
-10.0000000000 15.0000000000 0.0000000000 1.0000000000 0.0000000000 4.1236055191 0.0000000000 0.0000000000
20.0000000000 15.0000000000 0.0000000000 1.0007921710 0.0000000000 0.0005876405 0.0000000000 0.0000000000
20.0000000000 -15.0000000000 0.0000000000 1.0007963560 0.0000000000 0.0008088554 0.0000000000 0.0000000000
-10.0000000000 -15.0000000000 0.0000000000 1.0000000000 0.0000000000 4.1231088624 0.0000000000 0.0000000000
0.3632872216 -0.3400993758 0.0000000000 0.0232533943 0.0000361339 -251.6179304382 -0.0032387145 -0.0000130072
0.3757471473 -0.3261567125 0.0000000000 0.0232533943 0.0000361339 -253.4872935887 -0.0032387145 -0.0000130072
0.3876770269 -0.3117579078 0.0000000000 0.0232533943 0.0000361339 -254.7041049906 -0.0032387145 -0.0000130072
0.3990601756 -0.2969230997 0.0000000000 0.0232533943 0.0000361339 -255.7744816846 -0.0032387145 -0.0000130072
0.4098806728 -0.2816730359 0.0000000000 0.0232533943 0.0000361339 -256.2553751844 -0.0032387145 -0.0000130072
0.4201233853 -0.2660290452 0.0000000000 0.0232533943 0.0000361339 -256.1632017620 -0.0032387145 -0.0000130072
0.4297739875 -0.2500130069 0.0000000000 0.0232533943 0.0000361339 -255.3103849396 -0.0032387145 -0.0000130072
0.4388189824 -0.2336473210 0.0000000000 0.0232533943 0.0000361339 -253.6216479089 -0.0032387145 -0.0000130072
0.4472457196 -0.2169548765 0.0000000000 0.0232533943 0.0000361339 -251.0034339892 -0.0032387145 -0.0000130072
0.4550424135 -0.1999590191 0.0000000000 0.0232533943 0.0000361339 -247.4249534062 -0.0032387145 -0.0000130072
0.4621981599 -0.1826835191 0.0000000000 0.0232533943 0.0000361339 -242.9021821651 -0.0032387145 -0.0000130072
0.4687029507 -0.1651525379 0.0000000000 0.0232533943 0.0000361339 -237.5235987426 -0.0032387145 -0.0000130072
0.4745476885 -0.1473905941 0.0000000000 0.0232533943 0.0000361339 -231.4494880169 -0.0032387145 -0.0000130072
0.4797241987 -0.1294225295 0.0000000000 0.0232533943 0.0000361339 -224.9136811177 -0.0032387145 -0.0000130072
0.4842252416 -0.1112734739 0.0000000000 0.0232533943 0.0000361339 -218.2124371057 -0.0032387145 -0.0000130072
0.4880445222 -0.0929688105 0.0000000000 0.0232533943 0.0000361339 -211.6874431648 -0.0032387145 -0.0000130072
0.4911766986 -0.0745341400 0.0000000000 0.0232533943 0.0000361339 -205.7009993522 -0.0032387145 -0.0000130072
0.4936173905 -0.0559952450 0.0000000000 0.0232533943 0.0000361339 -200.6072687658 -0.0032387145 -0.0000130072
0.4953631841 -0.0373780537 0.0000000000 0.0232533943 0.0000361339 -196.7218881748 -0.0032387145 -0.0000130072
0.4964116379 -0.0187086041 0.0000000000 0.0232533943 0.0000361339 -194.2937180091 -0.0032387145 -0.0000130072
0.4967612855 -0.0000130070 0.0000000000 0.0232533943 0.0000361339 -193.4818080609 -0.0032387145 -0.0000130072
0.4964116379 0.0186825902 0.0000000000 0.0232533943 0.0000361339 -194.3404404380 -0.0032387145 -0.0000130072
0.4953631841 0.0373520398 0.0000000000 0.0232533943 0.0000361339 -196.8139173911 -0.0032387145 -0.0000130072
0.4936173904 0.0559692311 0.0000000000 0.0232533943 0.0000361339 -200.7418989556 -0.0032387145 -0.0000130072
0.4911766986 0.0745081261 0.0000000000 0.0232533943 0.0000361339 -205.8743534380 -0.0032387145 -0.0000130072
0.4880445221 0.0929427966 0.0000000000 0.0232533943 0.0000361339 -211.8948650474 -0.0032387145 -0.0000130072
0.4842252415 0.1112474600 0.0000000000 0.0232533943 0.0000361339 -218.4485628430 -0.0032387145 -0.0000130072
0.4797241986 0.1293965155 0.0000000000 0.0232533943 0.0000361339 -225.1732361481 -0.0032387145 -0.0000130072
0.4745476883 0.1473645802 0.0000000000 0.0232533943 0.0000361339 -231.7268387140 -0.0032387145 -0.0000130072
0.4687029506 0.1651265239 0.0000000000 0.0232533943 0.0000361339 -237.8145421078 -0.0032387145 -0.0000130072
0.4621981598 0.1826575051 0.0000000000 0.0232533943 0.0000361339 -243.2016545550 -0.0032387145 -0.0000130072
0.4550424134 0.1999330051 0.0000000000 0.0232533943 0.0000361339 -247.7317490568 -0.0032387145 -0.0000130072
0.4472457194 0.2169288625 0.0000000000 0.0232533943 0.0000361339 -251.3123705268 -0.0032387145 -0.0000130072
0.4388189822 0.2336213071 0.0000000000 0.0232533943 0.0000361339 -253.9369201346 -0.0032387145 -0.0000130072
0.4297739873 0.2499869929 0.0000000000 0.0232533943 0.0000361339 -255.6226607742 -0.0032387145 -0.0000130072
0.4201233851 0.2660030312 0.0000000000 0.0232533943 0.0000361339 -256.4860632887 -0.0032387145 -0.0000130072
0.4098806726 0.2816470219 0.0000000000 0.0232533943 0.0000361339 -256.5672786053 -0.0032387145 -0.0000130072
0.3990601753 0.2968970857 0.0000000000 0.0232533943 0.0000361339 -256.1029610429 -0.0032387145 -0.0000130072
0.3876770267 0.3117318938 0.0000000000 0.0232533943 0.0000361339 -255.0161032165 -0.0032387145 -0.0000130072
0.3757471470 0.3261306985 0.0000000000 0.0232533943 0.0000361339 -253.7968970212 -0.0032387145 -0.0000130072
0.3632872214 0.3400733618 0.0000000000 0.0232533943 0.0000361339 -251.9785757496 -0.0032387145 -0.0000130072
0.3354020713 0.3678489482 0.0000000000 0.0232533943 0.0000361339 -248.6868261951 -0.0032387145 -0.0000130072
0.3199109044 0.3815290270 0.0000000000 0.0232533943 0.0000361339 -247.6800212945 -0.0032387145 -0.0000130072
0.3038676418 0.3945572476 0.0000000000 0.0232533943 0.0000361339 -246.9108801539 -0.0032387145 -0.0000130072
0.2872996931 0.4069113515 0.0000000000 0.0232533943 0.0000361339 -247.1809656886 -0.0032387145 -0.0000130072
0.2702353645 0.4185702320 0.0000000000 0.0232533943 0.0000361339 -248.2180227914 -0.0032387145 -0.0000130072
0.2527038100 0.4295139701 0.0000000000 0.0232533943 0.0000361339 -250.2585154345 -0.0032387145 -0.0000130072
0.2347349820 0.4397238685 0.0000000000 0.0232533943 0.0000361339 -253.1585283905 -0.0032387145 -0.0000130072
0.2163595799 0.4491824838 0.0000000000 0.0232533943 0.0000361339 -256.9625162134 -0.0032387145 -0.0000130072
0.1976089978 0.4578736562 0.0000000000 0.0232533943 0.0000361339 -261.6293317378 -0.0032387145 -0.0000130072
0.1785152707 0.4657825369 0.0000000000 0.0232533943 0.0000361339 -267.2128514645 -0.0032387145 -0.0000130072
0.1591110200 0.4728956137 0.0000000000 0.0232533943 0.0000361339 -273.7508912876 -0.0032387145 -0.0000130072
0.1394293975 0.4792007341 0.0000000000 0.0232533943 0.0000361339 -281.2972224429 -0.0032387145 -0.0000130072
0.1195040290 0.4846871258 0.0000000000 0.0232533943 0.0000361339 -289.8672677112 -0.0032387145 -0.0000130072
0.0993689565 0.4893454155 0.0000000000 0.0232533943 0.0000361339 -299.4383592112 -0.0032387145 -0.0000130072
0.0790585805 0.4931676445 0.0000000000 0.0232533943 0.0000361339 -309.9286121330 -0.0032387145 -0.0000130072
0.0586076010 0.4961472827 0.0000000000 0.0232533943 0.0000361339 -321.1950140347 -0.0032387145 -0.0000130072
0.0380509581 0.4982792393 0.0000000000 0.0232533943 0.0000361339 -333.0262038069 -0.0032387145 -0.0000130072
0.0174237725 0.4995598720 0.0000000000 0.0232533943 0.0000361339 -345.1432655751 -0.0032387145 -0.0000130072
-0.0032387146 0.4999869928 0.0000000000 0.0232533943 0.0000361339 -357.2022280945 -0.0032387145 -0.0000130072
-0.0239012017 0.4995598720 0.0000000000 0.0232533943 0.0000361339 -368.8026786673 -0.0032387145 -0.0000130072
-0.0445283873 0.4982792393 0.0000000000 0.0232533943 0.0000361339 -379.5002741573 -0.0032387145 -0.0000130072
-0.0650850303 0.4961472827 0.0000000000 0.0232533943 0.0000361339 -388.8234689176 -0.0032387145 -0.0000130072
-0.0855360098 0.4931676445 0.0000000000 0.0232533943 0.0000361339 -396.2925658312 -0.0032387145 -0.0000130072
-0.1058463857 0.4893454155 0.0000000000 0.0232533943 0.0000361339 -401.4398283710 -0.0032387145 -0.0000130072
-0.1259814582 0.4846871258 0.0000000000 0.0232533943 0.0000361339 -403.8289013693 -0.0032387145 -0.0000130072
-0.1459068267 0.4792007340 0.0000000000 0.0232533943 0.0000361339 -403.0722267838 -0.0032387145 -0.0000130072
-0.1655884492 0.4728956136 0.0000000000 0.0232533943 0.0000361339 -398.8453719071 -0.0032387145 -0.0000130072
-0.1849926999 0.4657825368 0.0000000000 0.0232533943 0.0000361339 -390.8976773297 -0.0032387145 -0.0000130072
-0.2040864270 0.4578736561 0.0000000000 0.0232533943 0.0000361339 -379.0590253386 -0.0032387145 -0.0000130072
-0.2228370090 0.4491824837 0.0000000000 0.0232533943 0.0000361339 -363.2429015726 -0.0032387145 -0.0000130072
-0.2412124111 0.4397238684 0.0000000000 0.0232533943 0.0000361339 -343.4461719620 -0.0032387145 -0.0000130072
-0.2591812392 0.4295139699 0.0000000000 0.0232533943 0.0000361339 -319.7461462386 -0.0032387145 -0.0000130072
-0.2767127937 0.4185702319 0.0000000000 0.0232533943 0.0000361339 -292.2955441779 -0.0032387145 -0.0000130072
-0.2937771223 0.4069113514 0.0000000000 0.0232533943 0.0000361339 -261.3159515468 -0.0032387145 -0.0000130072
-0.3103450710 0.3945572474 0.0000000000 0.0232533943 0.0000361339 -227.0902748091 -0.0032387145 -0.0000130072
-0.3263883336 0.3815290268 0.0000000000 0.0232533943 0.0000361339 -189.9546069890 -0.0032387145 -0.0000130072
-0.3418795004 0.3678489481 0.0000000000 0.0232533943 0.0000361339 -150.2898247477 -0.0032387145 -0.0000130072
-0.3711006699 0.3386277785 0.0000000000 0.0232533943 0.0000361339 -65.0699675614 -0.0032387145 -0.0000130072
-0.3847807487 0.3231366116 0.0000000000 0.0232533943 0.0000361339 -20.4257730542 -0.0032387145 -0.0000130072
-0.3978089693 0.3070933491 0.0000000000 0.0232533943 0.0000361339 24.9411453787 -0.0032387145 -0.0000130072
-0.4101630732 0.2905254004 0.0000000000 0.0232533943 0.0000361339 70.5466812340 -0.0032387145 -0.0000130072
-0.4218219537 0.2734610718 0.0000000000 0.0232533943 0.0000361339 115.9072134818 -0.0032387145 -0.0000130072
-0.4327656918 0.2559295172 0.0000000000 0.0232533943 0.0000361339 160.5453409540 -0.0032387145 -0.0000130072
-0.4429755902 0.2379606892 0.0000000000 0.0232533943 0.0000361339 203.9950737347 -0.0032387145 -0.0000130072
-0.4524342055 0.2195852871 0.0000000000 0.0232533943 0.0000361339 245.8065387059 -0.0032387145 -0.0000130072
-0.4611253779 0.2008347050 0.0000000000 0.0232533943 0.0000361339 285.5502565825 -0.0032387145 -0.0000130072
-0.4690342586 0.1817409779 0.0000000000 0.0232533943 0.0000361339 322.8210366426 -0.0032387145 -0.0000130072
-0.4761473354 0.1623367273 0.0000000000 0.0232533943 0.0000361339 357.2415198489 -0.0032387145 -0.0000130072
-0.4824524558 0.1426551048 0.0000000000 0.0232533943 0.0000361339 388.4653866165 -0.0032387145 -0.0000130072
-0.4879388475 0.1227297362 0.0000000000 0.0232533943 0.0000361339 416.1802348850 -0.0032387145 -0.0000130072
-0.4925971372 0.1025946637 0.0000000000 0.0232533943 0.0000361339 440.1101279313 -0.0032387145 -0.0000130072
-0.4964193662 0.0822842878 0.0000000000 0.0232533943 0.0000361339 460.0178087873 -0.0032387145 -0.0000130072
-0.4993990044 0.0618333083 0.0000000000 0.0232533943 0.0000361339 475.7065779537 -0.0032387145 -0.0000130072
-0.5015309610 0.0412766654 0.0000000000 0.0232533943 0.0000361339 487.0218322199 -0.0032387145 -0.0000130072
-0.5028115937 0.0206494798 0.0000000000 0.0232533943 0.0000361339 493.8522638608 -0.0032387145 -0.0000130072
-0.5032387145 -0.0000130074 0.0000000000 0.0232533943 0.0000361339 496.1307207066 -0.0032387145 -0.0000130072
-0.5028115937 -0.0206754945 0.0000000000 0.0232533943 0.0000361339 493.8347282058 -0.0032387145 -0.0000130072
-0.5015309610 -0.0413026801 0.0000000000 0.0232533943 0.0000361339 486.9866745478 -0.0032387145 -0.0000130072
-0.4993990043 -0.0618593230 0.0000000000 0.0232533943 0.0000361339 475.6536592912 -0.0032387145 -0.0000130072
-0.4964193662 -0.0823103025 0.0000000000 0.0232533943 0.0000361339 459.9470049846 -0.0032387145 -0.0000130072
-0.4925971371 -0.1026206785 0.0000000000 0.0232533943 0.0000361339 440.0214302449 -0.0032387145 -0.0000130072
-0.4879388474 -0.1227557510 0.0000000000 0.0232533943 0.0000361339 416.0738819446 -0.0032387145 -0.0000130072
-0.4824524557 -0.1426811195 0.0000000000 0.0232533943 0.0000361339 388.3420236517 -0.0032387145 -0.0000130072
-0.4761473353 -0.1623627420 0.0000000000 0.0232533943 0.0000361339 357.1023772318 -0.0032387145 -0.0000130072
-0.4690342584 -0.1817669927 0.0000000000 0.0232533943 0.0000361339 322.6681143471 -0.0032387145 -0.0000130072
-0.4611253777 -0.2008607197 0.0000000000 0.0232533943 0.0000361339 285.3864942001 -0.0032387145 -0.0000130072
-0.4524342053 -0.2196113018 0.0000000000 0.0232533943 0.0000361339 245.6359429831 -0.0032387145 -0.0000130072
-0.4429755900 -0.2379867039 0.0000000000 0.0232533943 0.0000361339 203.8227689230 -0.0032387145 -0.0000130072
-0.4327656916 -0.2559555319 0.0000000000 0.0232533943 0.0000361339 160.3775044994 -0.0032387145 -0.0000130072
-0.4218219535 -0.2734870864 0.0000000000 0.0232533943 0.0000361339 115.7508644896 -0.0032387145 -0.0000130072
-0.4101630730 -0.2905514151 0.0000000000 0.0232533943 0.0000361339 70.4093052537 -0.0032387145 -0.0000130072
-0.3978089691 -0.3071193637 0.0000000000 0.0232533943 0.0000361339 24.8301676326 -0.0032387145 -0.0000130072
-0.3847807484 -0.3231626263 0.0000000000 0.0232533943 0.0000361339 -20.5036163123 -0.0032387145 -0.0000130072
-0.3711006697 -0.3386537932 0.0000000000 0.0232533943 0.0000361339 -65.1092727220 -0.0032387145 -0.0000130072
-0.3418795001 -0.3678749627 0.0000000000 0.0232533943 0.0000361339 -150.2437170795 -0.0032387145 -0.0000130072
-0.3263883332 -0.3815550414 0.0000000000 0.0232533943 0.0000361339 -189.8661597751 -0.0032387145 -0.0000130072
-0.3103450706 -0.3945832620 0.0000000000 0.0232533943 0.0000361339 -226.9625973945 -0.0032387145 -0.0000130072
-0.2937771220 -0.4069373660 0.0000000000 0.0232533943 0.0000361339 -261.1538034943 -0.0032387145 -0.0000130072
-0.2767127933 -0.4185962464 0.0000000000 0.0232533943 0.0000361339 -292.1047471625 -0.0032387145 -0.0000130072
-0.2591812388 -0.4295399845 0.0000000000 0.0232533943 0.0000361339 -319.5329648662 -0.0032387145 -0.0000130072
-0.2412124108 -0.4397498829 0.0000000000 0.0232533943 0.0000361339 -343.2167610692 -0.0032387145 -0.0000130072
-0.2228370087 -0.4492084982 0.0000000000 0.0232533943 0.0000361339 -363.0028840635 -0.0032387145 -0.0000130072
-0.2040864266 -0.4578996706 0.0000000000 0.0232533943 0.0000361339 -378.8132249638 -0.0032387145 -0.0000130072
-0.1849926995 -0.4658085513 0.0000000000 0.0232533943 0.0000361339 -390.6499965440 -0.0032387145 -0.0000130072
-0.1655884488 -0.4729216281 0.0000000000 0.0232533943 0.0000361339 -398.5987826938 -0.0032387145 -0.0000130072
-0.1459068264 -0.4792267485 0.0000000000 0.0232533943 0.0000361339 -402.8288323676 -0.0032387145 -0.0000130072
-0.1259814578 -0.4847131402 0.0000000000 0.0232533943 0.0000361339 -403.5900288370 -0.0032387145 -0.0000130072
-0.1058463853 -0.4893714299 0.0000000000 0.0232533943 0.0000361339 -401.2061190127 -0.0032387145 -0.0000130072
-0.0855360094 -0.4931936589 0.0000000000 0.0232533943 0.0000361339 -396.0640473387 -0.0032387145 -0.0000130072
-0.0650850298 -0.4961732971 0.0000000000 0.0232533943 0.0000361339 -388.5995997168 -0.0032387145 -0.0000130072
-0.0445283869 -0.4983052537 0.0000000000 0.0232533943 0.0000361339 -379.2799822810 -0.0032387145 -0.0000130072
-0.0239012013 -0.4995858864 0.0000000000 0.0232533943 0.0000361339 -368.5843915882 -0.0032387145 -0.0000130072
-0.0032387142 -0.5000130072 0.0000000000 0.0232533943 0.0000361339 -356.9839671803 -0.0032387145 -0.0000130072
0.0174237729 -0.4995858863 0.0000000000 0.0232533943 0.0000361339 -344.9227319213 -0.0032387145 -0.0000130072
0.0380509585 -0.4983052536 0.0000000000 0.0232533943 0.0000361339 -332.8010457309 -0.0032387145 -0.0000130072
0.0586076014 -0.4961732970 0.0000000000 0.0232533943 0.0000361339 -320.9629207918 -0.0032387145 -0.0000130072
0.0790585809 -0.4931936588 0.0000000000 0.0232533943 0.0000361339 -309.6878499750 -0.0032387145 -0.0000130072
0.0993689569 -0.4893714298 0.0000000000 0.0232533943 0.0000361339 -299.1875214206 -0.0032387145 -0.0000130072
0.1195040294 -0.4847131401 0.0000000000 0.0232533943 0.0000361339 -289.6064024558 -0.0032387145 -0.0000130072
0.1394293979 -0.4792267483 0.0000000000 0.0232533943 0.0000361339 -281.0264105813 -0.0032387145 -0.0000130072
0.1591110204 -0.4729216279 0.0000000000 0.0232533943 0.0000361339 -273.4732591010 -0.0032387145 -0.0000130072
0.1785152711 -0.4658085511 0.0000000000 0.0232533943 0.0000361339 -266.9294459739 -0.0032387145 -0.0000130072
0.1976089981 -0.4578996704 0.0000000000 0.0232533943 0.0000361339 -261.3470598429 -0.0032387145 -0.0000130072
0.2163595802 -0.4492084980 0.0000000000 0.0232533943 0.0000361339 -256.6782611175 -0.0032387145 -0.0000130072
0.2347349823 -0.4397498826 0.0000000000 0.0232533943 0.0000361339 -252.8819089243 -0.0032387145 -0.0000130072
0.2527038103 -0.4295399842 0.0000000000 0.0232533943 0.0000361339 -249.9726883704 -0.0032387145 -0.0000130072
0.2702353648 -0.4185962461 0.0000000000 0.0232533943 0.0000361339 -247.9404020499 -0.0032387145 -0.0000130072
0.2872996935 -0.4069373656 0.0000000000 0.0232533943 0.0000361339 -246.8796023898 -0.0032387145 -0.0000130072
0.3038676421 -0.3945832616 0.0000000000 0.0232533943 0.0000361339 -246.6146271106 -0.0032387145 -0.0000130072
0.3199109047 -0.3815550410 0.0000000000 0.0232533943 0.0000361339 -247.3787380866 -0.0032387145 -0.0000130072
0.3354020716 -0.3678749623 0.0000000000 0.0232533943 0.0000361339 -248.3190529829 -0.0032387145 -0.0000130072
0.5469516882 -0.5100006214 0.0000000000 0.0644802075 -0.1687377740 -255.8696498709 -0.0028372160 0.0001289315
0.5656307327 -0.4890878049 0.0000000000 0.0591639224 -0.1956179270 -260.8305647279 -0.0028480600 0.0001277531
0.5835148491 -0.4674915538 0.0000000000 0.0542157842 -0.2206617648 -266.1425608574 -0.0028587630 0.0001257972
0.6005790675 -0.4452420631 0.0000000000 0.0469191903 -0.2421243188 -271.5705792041 -0.0028692677 0.0001230757
0.6167995635 -0.4223704384 0.0000000000 0.0359029586 -0.2589764150 -276.8502750381 -0.0028795175 0.0001196048
0.6321536919 -0.3989086524 0.0000000000 0.0207853706 -0.2707924543 -281.7013945040 -0.0028894578 0.0001154046
0.6466200179 -0.3748895004 0.0000000000 0.0017870418 -0.2775660497 -285.8528316586 -0.0028990352 0.0001104992
0.6601783469 -0.3503465542 0.0000000000 -0.0205544476 -0.2795279937 -289.0711618779 -0.0029081984 0.0001049166
0.6728097525 -0.3253141156 0.0000000000 -0.0455581943 -0.2770023926 -291.1836308895 -0.0029168986 0.0000986884
0.6844966029 -0.2998271683 0.0000000000 -0.0724916400 -0.2703156492 -292.0923643353 -0.0029250892 0.0000918496
0.6952225853 -0.2739213293 0.0000000000 -0.1006104527 -0.2597568689 -291.7808856572 -0.0029327263 0.0000844386
0.7049727285 -0.2476327992 0.0000000000 -0.1291704084 -0.2455760032 -290.3150524924 -0.0029397694 0.0000764968
0.7137334238 -0.2209983118 0.0000000000 -0.1574286851 -0.2280018638 -287.8396174835 -0.0029461806 0.0000680686
0.7214924439 -0.1940550827 0.0000000000 -0.1846454598 -0.2072654706 -284.5704700628 -0.0029519259 0.0000592008
0.7282389596 -0.1668407575 0.0000000000 -0.2100910060 -0.1836204643 -280.7820593301 -0.0029569746 0.0000499426
0.7339635552 -0.1393933596 0.0000000000 -0.2330596727 -0.1573575392 -276.7896629068 -0.0029612998 0.0000403454
0.7386582413 -0.1117512369 0.0000000000 -0.2528900642 -0.1288126437 -272.9268487494 -0.0029648784 0.0000304624
0.7423164662 -0.0839530086 0.0000000000 -0.2689896637 -0.0983695620 -269.5193981518 -0.0029676913 0.0000203482
0.7449331244 -0.0560375111 0.0000000000 -0.2808614021 -0.0664574922 -266.8578647787 -0.0029697235 0.0000100587
0.7465045644 -0.0280437445 0.0000000000 -0.2881291322 -0.0335441508 -265.1716126385 -0.0029709642 -0.0000003491
0.7470285932 -0.0000108175 0.0000000000 -0.2905587661 -0.0001250726 -264.6074117853 -0.0029714068 -0.0000108178
0.7465044796 0.0280221064 0.0000000000 -0.2880721755 0.0332899050 -265.2153546747 -0.0029710489 -0.0000212896
0.7449329554 0.0560158639 0.0000000000 -0.2807518442 0.0661916427 -266.9440038833 -0.0029698925 -0.0000317066
0.7423162138 0.0839313461 0.0000000000 -0.2688355500 0.0980866239 -269.6454536400 -0.0029679436 -0.0000420113
0.7386579070 0.1117295532 0.0000000000 -0.2527018926 0.1285102395 -273.0895790025 -0.0029652126 -0.0000521467
0.7339631407 0.1393716487 0.0000000000 -0.2328488064 0.1570371155 -276.9855121023 -0.0029617142 -0.0000620569
0.7282384672 0.1668190138 0.0000000000 -0.2098680555 0.1832875268 -281.0075562155 -0.0029574668 -0.0000716870
0.7214918764 0.1940333005 0.0000000000 -0.1844189630 0.2069292575 -284.8224717336 -0.0029524933 -0.0000809835
0.7137327842 0.2209764859 0.0000000000 -0.1572043566 0.2276743676 -288.1153405839 -0.0029468200 -0.0000898951
0.7049720204 0.2476109245 0.0000000000 -0.1289511300 0.2452702541 -290.6119101638 -0.0029404773 -0.0000983722
0.6952218125 0.2738994009 0.0000000000 -0.1003970471 0.2594845070 -292.0962337944 -0.0029334989 -0.0001063676
0.6844957696 0.2998051817 0.0000000000 -0.0722842862 0.2700841415 -292.4233188198 -0.0029259222 -0.0001138367
0.6728088633 0.3252920666 0.0000000000 -0.0453581180 0.2768127506 -291.5270891790 -0.0029177875 -0.0001207379
0.6601774067 0.3503244390 0.0000000000 -0.0203654212 0.2793741784 -289.4239995791 -0.0029091384 -0.0001270323
0.6466190318 0.3748673155 0.0000000000 0.0019575223 0.2774368652 -286.2119787151 -0.0029000209 -0.0001326846
0.6321526653 0.3988863947 0.0000000000 0.0209246085 0.2706753360 -282.0633078759 -0.0028904840 -0.0001376628
0.6167985021 0.4223481051 0.0000000000 0.0359907377 0.2588608493 -277.2095561768 -0.0028805786 -0.0001419385
0.6005779771 0.4452196520 0.0000000000 0.0469273833 0.2420027157 -271.9184604907 -0.0028703577 -0.0001454872
0.5835137357 0.4674690631 0.0000000000 0.0541185617 0.2205290075 -266.4673342704 -0.0028598761 -0.0001482883
0.5656296023 0.4890652333 0.0000000000 0.0589661722 0.1954747375 -261.1217516784 -0.0028491900 -0.0001503253
0.5469505471 0.5099779678 0.0000000000 0.0642509455 0.1685997631 -256.1217638418 -0.0028383567 -0.0001515856
0.5051458496 0.5516412621 0.0000000000 0.0965505596 0.1172640327 -247.6340441727 -0.0028153291 -0.0001516709
0.4819211622 0.5721627331 0.0000000000 0.1365310807 0.0992714795 -244.6163439250 -0.0028032661 -0.0001503181
0.4578682095 0.5917073720 0.0000000000 0.1971326703 0.0899144766 -242.5999923636 -0.0027913249 -0.0001480101
0.4330280275 0.6102417773 0.0000000000 0.2779145756 0.0891644941 -241.4746445984 -0.0027795840 -0.0001447607
0.4074429978 0.6277342688 0.0000000000 0.3754911869 0.0959384359 -241.1125591195 -0.0027681207 -0.0001405899
0.3811567761 0.6441549417 0.0000000000 0.4846758828 0.1088127508 -241.4136286599 -0.0027570106 -0.0001355241
0.3542142177 0.6594757178 0.0000000000 0.5994300949 0.1263931207 -242.2966103401 -0.0027463270 -0.0001295957
0.3266613010 0.6736703935 0.0000000000 0.7135182947 0.1473277057 -243.6594837107 -0.0027361406 -0.0001228429
0.2985450499 0.6867146852 0.0000000000 0.8211230333 0.1702385580 -245.3467564747 -0.0027265185 -0.0001153099
0.2699134533 0.6985862702 0.0000000000 0.9175039312 0.1937634533 -247.1512186717 -0.0027175245 -0.0001070458
0.2408153837 0.7092648261 0.0000000000 0.9995242410 0.2167034793 -248.8484338667 -0.0027092181 -0.0000981052
0.2113005137 0.7187320647 0.0000000000 1.0658443285 0.2381757291 -250.2373317284 -0.0027016543 -0.0000885471
0.1814192320 0.7269717644 0.0000000000 1.1167420672 0.2576909608 -251.1635139605 -0.0026948832 -0.0000784351
0.1512225569 0.7339697975 0.0000000000 1.1536760733 0.2751373445 -251.5209598151 -0.0026889496 -0.0000678365
0.1207620498 0.7397141553 0.0000000000 1.1787623429 0.2906954886 -251.2398652770 -0.0026838928 -0.0000568223
0.0900897273 0.7441949684 0.0000000000 1.1943046015 0.3047240028 -250.2695343006 -0.0026797460 -0.0000454664
0.0592579722 0.7474045244 0.0000000000 1.2024550625 0.3176493634 -248.5623956202 -0.0026765367 -0.0000338454
0.0283194447 0.7493372810 0.0000000000 1.2050225135 0.3298806150 -246.0624954638 -0.0026742858 -0.0000220378
-0.0026730079 0.7499898763 0.0000000000 1.2034050876 0.3417559171 -242.6997404266 -0.0026730077 -0.0000101237
-0.0336664413 0.7493611347 0.0000000000 1.1986080319 0.3535180931 -238.3895574955 -0.0026727104 0.0000018159
-0.0646079044 0.7474520692 0.0000000000 1.1913068863 0.3653114155 -233.0365946091 -0.0026733951 0.0000136994
-0.0954445299 0.7442658802 0.0000000000 1.1819257553 0.3771910550 -226.5407086256 -0.0026750563 0.0000254454
-0.1261236247 0.7398079508 0.0000000000 1.1707119491 0.3891382120 -218.8036645629 -0.0026776819 0.0000369733
-0.1565927598 0.7340858373 0.0000000000 1.1577980872 0.4010763204 -209.7354377839 -0.0026812530 0.0000482034
-0.1867998598 0.7271092574 0.0000000000 1.1432493508 0.4128858618 -199.2595167529 -0.0026857443 0.0000590580
-0.2166932924 0.7188900736 0.0000000000 1.1270971324 0.4244168424 -187.3169984067 -0.0026911240 0.0000694619
-0.2462219565 0.7094422735 0.0000000000 1.1093617423 0.4354988645 -173.8695086051 -0.0026973545 0.0000793423
-0.2753353697 0.6987819461 0.0000000000 1.0900669914 0.4459491257 -158.9010904429 -0.0027043916 0.0000886301
-0.3039837548 0.6869272549 0.0000000000 1.0692490609 0.4555787904 -142.4192300769 -0.0027121861 0.0000972600
-0.3321181248 0.6738984072 0.0000000000 1.0469614992 0.4641981401 -124.4551754036 -0.0027206830 0.0001051709
-0.3596903676 0.6597176200 0.0000000000 1.0232776540 0.4716208244 -105.0636754721 -0.0027298226 0.0001123066
-0.3866533275 0.6444090818 0.0000000000 0.9982914236 0.4776674369 -84.3222422512 -0.0027395405 0.0001186162
-0.4129608869 0.6279989126 0.0000000000 0.9721169092 0.4821685661 -62.3300163643 -0.0027497681 0.0001240540
-0.4385680451 0.6105151184 0.0000000000 0.9448873455 0.4849674131 -39.2063047978 -0.0027604333 0.0001285806
-0.4634309955 0.5919875445 0.0000000000 0.9167535491 0.4859220309 -15.0888497116 -0.0027714608 0.0001321626
-0.4875072011 0.5724478241 0.0000000000 0.8878820462 0.4849072184 9.8681185649 -0.0027827725 0.0001347731
-0.5107554672 0.5519293248 0.0000000000 0.8584529855 0.4818160891 35.4959958950 -0.0027942883 0.0001363919
-0.5546105378 0.5080977870 0.0000000000 0.7986974470 0.4690761545 88.0316981026 -0.0028176046 0.0001366084
-0.5751422908 0.4848596286 0.0000000000 0.7687789489 0.4593149903 114.5509555122 -0.0028292395 0.0001352004
-0.5946961305 0.4607923239 0.0000000000 0.7391141348 0.4472538703 140.9687282634 -0.0028407483 0.0001327896
-0.6132385872 0.4359370022 0.0000000000 0.7099167483 0.4328905891 167.0792130672 -0.0028520491 0.0001293909
-0.6307379201 0.4103361444 0.0000000000 0.6814002633 0.4162446149 192.6762020882 -0.0028630613 0.0001250260
-0.6471641720 0.3840335103 0.0000000000 0.6537756611 0.3973567819 217.5553286284 -0.0028737061 0.0001197237
-0.6624892209 0.3570740636 0.0000000000 0.6272492962 0.3762887799 241.5162268461 -0.0028839074 0.0001135191
-0.6766868288 0.3295038953 0.0000000000 0.6020208661 0.3531224534 264.3645909357 -0.0028935923 0.0001064539
-0.6897326863 0.3013701443 0.0000000000 0.5782815007 0.3279589276 285.9141223302 -0.0029026912 0.0000985760
-0.7016044552 0.2727209167 0.0000000000 0.5562119791 0.3009175718 305.9883554743 -0.0029111390 0.0000899390
-0.7122818064 0.2436052036 0.0000000000 0.5359810869 0.2721348161 324.4223538367 -0.0029188751 0.0000806019
-0.7217464556 0.2140727967 0.0000000000 0.5177441259 0.2417628353 341.0642688680 -0.0029258437 0.0000706288
-0.7299821944 0.1841742033 0.0000000000 0.5016415848 0.2099681056 355.7767559424 -0.0029319949 0.0000600882
-0.7369749183 0.1539605592 0.0000000000 0.4877979698 0.1769298423 368.4382417567 -0.0029372843 0.0000490529
-0.7427126515 0.1234835415 0.0000000000 0.4763207731 0.1428383166 378.9440351023 -0.0029416739 0.0000375990
-0.7471855669 0.0927952791 0.0000000000 0.4672995426 0.1078930665 387.2072672526 -0.0029451321 0.0000258059
-0.7503860038 0.0619482640 0.0000000000 0.4608050256 0.0723010350 393.1596451100 -0.0029476340 0.0000137552
-0.7523084803 0.0309952609 0.0000000000 0.4568883953 0.0362746830 396.7520084816 -0.0029491615 0.0000015305
-0.7529497037 -0.0000107837 0.0000000000 0.4555806220 0.0000301206 397.9547011730 -0.0029497037 -0.0000107834
-0.7523085754 -0.0310168321 0.0000000000 0.4568920638 -0.0362147331 396.7577831749 -0.0029492566 -0.0000231011
-0.7503861932 -0.0619698466 0.0000000000 0.4608123074 -0.0722419661 393.1710974633 -0.0029478235 -0.0000353372
-0.7471858494 -0.0928168805 0.0000000000 0.4673102817 -0.1078354809 387.2242002454 -0.0029454147 -0.0000474067