 TITLE = "Tecplot data"
 VARIABLES = "X", "Y", "Z" "U", "V", "p", "dispX", "dispY"
 ZONE SOLUTIONTIME=19.900000, NODES=26114 , ELEMENTS=25916, DATAPACKING=POINT, ZONETYPE=FEQUADRILATERAL
0.3634329679 0.3539342442 0.0000000000 -0.0017988241 0.0002298498 -215.6349812007 0.0098795773 0.0003808535
0.3634329682 -0.3531725368 0.0000000000 -0.0017988241 0.0002298498 -212.2858370278 0.0098795773 0.0003808535
-0.3436738134 0.3539342440 0.0000000000 -0.0017988241 0.0002298498 -83.9526118631 0.0098795773 0.0003808535
-0.3436738131 -0.3531725372 0.0000000000 -0.0017988241 0.0002298498 -82.0978007823 0.0098795773 0.0003808535
0.5389699984 0.5310921899 0.0000000000 0.0331087032 0.0794102250 -217.2446249112 0.0086399125 0.0007621039
0.5389366457 -0.5304263384 0.0000000000 0.0305819171 -0.0773081798 -213.6934835444 0.0086065594 -0.0000962529
-0.5217853410 0.5302098088 0.0000000000 0.8065553032 0.4806614353 86.8688162312 0.0085447451 -0.0001202769
-0.5217526425 -0.5295452880 0.0000000000 0.8058901008 -0.4801073566 88.1284420690 0.0085774432 0.0007847981
1.0671730649 1.0615865138 0.0000000000 1.2356074283 0.1662354409 -244.5497124034 0.0065128933 0.0009263419
1.0671191246 -1.0610836077 0.0000000000 1.2346079163 -0.1707412887 -241.5349513000 0.0064589520 -0.0004234366
-1.0543782479 1.0601791275 0.0000000000 0.9141025236 0.1862084858 94.7348939471 0.0062819242 -0.0004810440
-1.0543273396 -1.0596812631 0.0000000000 0.9138802299 -0.1861612884 95.4201895267 0.0063328317 0.0009789092
4.2029960803 3.3007404118 0.0000000000 1.0832842606 -0.0627264757 -66.2531281285 0.0029960803 0.0007404118
4.2029389299 -3.3005387700 0.0000000000 1.0819793591 0.0633187540 -66.1250406781 0.0029389299 -0.0005387700
20.0000000000 4.7000000000 0.0000000000 0.9998128600 -0.0034814442 0.0051678049 0.0000000000 0.0000000000
20.0000000000 -4.7000000000 0.0000000000 0.9998348174 0.0034803877 0.0058485211 0.0000000000 0.0000000000
-10.0000000000 15.0000000000 0.0000000000 1.0000000000 0.0000000000 2.1817519217 0.0000000000 0.0000000000
20.0000000000 15.0000000000 0.0000000000 1.0010368384 0.0000000000 -0.0034127878 0.0000000000 0.0000000000
20.0000000000 -15.0000000000 0.0000000000 1.0010413061 0.0000000000 -0.0032286580 0.0000000000 0.0000000000
-10.0000000000 -15.0000000000 0.0000000000 1.0000000000 0.0000000000 2.3248653377 0.0000000000 0.0000000000
0.3764055135 -0.3397055151 0.0000000000 -0.0017988241 0.0002298498 -211.5382431894 0.0098795773 0.0003808535
0.3888654391 -0.3257628518 0.0000000000 -0.0017988241 0.0002298498 -211.2945950070 0.0098795773 0.0003808535
0.4007953188 -0.3113640471 0.0000000000 -0.0017988241 0.0002298498 -210.8369552929 0.0098795773 0.0003808535
0.4121784674 -0.2965292390 0.0000000000 -0.0017988241 0.0002298498 -210.4248233601 0.0098795773 0.0003808535
0.4229989647 -0.2812791752 0.0000000000 -0.0017988241 0.0002298498 -209.8702579946 0.0098795773 0.0003808535
0.4332416771 -0.2656351845 0.0000000000 -0.0017988241 0.0002298498 -209.2063685622 0.0098795773 0.0003808535
0.4428922794 -0.2496191462 0.0000000000 -0.0017988241 0.0002298498 -208.3789632948 0.0098795773 0.0003808535
0.4519372742 -0.2332534603 0.0000000000 -0.0017988241 0.0002298498 -207.3901575630 0.0098795773 0.0003808535
0.4603640114 -0.2165610158 0.0000000000 -0.0017988241 0.0002298498 -206.2326734373 0.0098795773 0.0003808535
0.4681607054 -0.1995651584 0.0000000000 -0.0017988241 0.0002298498 -204.9206517970 0.0098795773 0.0003808535
0.4753164517 -0.1822896584 0.0000000000 -0.0017988241 0.0002298498 -203.4753745274 0.0098795773 0.0003808535
0.4818212426 -0.1647586772 0.0000000000 -0.0017988241 0.0002298498 -201.9314919053 0.0098795773 0.0003808535
0.4876659803 -0.1469967334 0.0000000000 -0.0017988241 0.0002298498 -200.3329207997 0.0098795773 0.0003808535
0.4928424905 -0.1290286688 0.0000000000 -0.0017988241 0.0002298498 -198.7326813716 0.0098795773 0.0003808535
0.4973435335 -0.1108796132 0.0000000000 -0.0017988241 0.0002298498 -197.1898066966 0.0098795773 0.0003808535
0.5011628140 -0.0925749498 0.0000000000 -0.0017988241 0.0002298498 -195.7666136636 0.0098795773 0.0003808535
0.5042949905 -0.0741402793 0.0000000000 -0.0017988241 0.0002298498 -194.5249287838 0.0098795773 0.0003808535
0.5067356823 -0.0556013843 0.0000000000 -0.0017988241 0.0002298498 -193.5222772567 0.0098795773 0.0003808535
0.5084814759 -0.0369841930 0.0000000000 -0.0017988241 0.0002298498 -192.8079825589 0.0098795773 0.0003808535
0.5095299297 -0.0183147434 0.0000000000 -0.0017988241 0.0002298498 -192.4197164440 0.0098795773 0.0003808535
0.5098795773 0.0003808537 0.0000000000 -0.0017988241 0.0002298498 -192.3807314485 0.0098795773 0.0003808535
0.5095299297 0.0190764509 0.0000000000 -0.0017988241 0.0002298498 -192.6981220989 0.0098795773 0.0003808535
0.5084814759 0.0377459005 0.0000000000 -0.0017988241 0.0002298498 -193.3622273865 0.0098795773 0.0003808535
0.5067356823 0.0563630918 0.0000000000 -0.0017988241 0.0002298498 -194.3473304315 0.0098795773 0.0003808535
0.5042949904 0.0749019868 0.0000000000 -0.0017988241 0.0002298498 -195.6134253716 0.0098795773 0.0003808535
0.5011628139 0.0933366573 0.0000000000 -0.0017988241 0.0002298498 -197.1091557384 0.0098795773 0.0003808535
0.4973435334 0.1116413207 0.0000000000 -0.0017988241 0.0002298498 -198.7751099736 0.0098795773 0.0003808535
0.4928424904 0.1297903762 0.0000000000 -0.0017988241 0.0002298498 -200.5481116326 0.0098795773 0.0003808535
0.4876659802 0.1477584409 0.0000000000 -0.0017988241 0.0002298498 -202.3643723993 0.0098795773 0.0003808535
0.4818212424 0.1655203846 0.0000000000 -0.0017988241 0.0002298498 -204.1644310294 0.0098795773 0.0003808535
0.4753164516 0.1830513658 0.0000000000 -0.0017988241 0.0002298498 -205.8937535612 0.0098795773 0.0003808535
0.4681607052 0.2003268658 0.0000000000 -0.0017988241 0.0002298498 -207.5094688466 0.0098795773 0.0003808535
0.4603640112 0.2173227232 0.0000000000 -0.0017988241 0.0002298498 -208.9740622668 0.0098795773 0.0003808535
0.4519372740 0.2340151678 0.0000000000 -0.0017988241 0.0002298498 -210.2704720982 0.0098795773 0.0003808535
0.4428922792 0.2503808536 0.0000000000 -0.0017988241 0.0002298498 -211.3771327823 0.0098795773 0.0003808535
0.4332416769 0.2663968919 0.0000000000 -0.0017988241 0.0002298498 -212.3132069343 0.0098795773 0.0003808535
0.4229989644 0.2820408826 0.0000000000 -0.0017988241 0.0002298498 -213.0579507305 0.0098795773 0.0003808535
0.4121784672 0.2972909464 0.0000000000 -0.0017988241 0.0002298498 -213.6932271267 0.0098795773 0.0003808535
0.4007953185 0.3121257545 0.0000000000 -0.0017988241 0.0002298498 -214.1501610801 0.0098795773 0.0003808535
0.3888654389 0.3265245592 0.0000000000 -0.0017988241 0.0002298498 -214.6551935744 0.0098795773 0.0003808535
0.3764055132 0.3404672225 0.0000000000 -0.0017988241 0.0002298498 -214.9418950706 0.0098795773 0.0003808535
0.3485203631 0.3682428089 0.0000000000 -0.0017988241 0.0002298498 -216.0646421857 0.0098795773 0.0003808535
0.3330291962 0.3819228877 0.0000000000 -0.0017988241 0.0002298498 -217.1039922990 0.0098795773 0.0003808535
0.3169859336 0.3949511083 0.0000000000 -0.0017988241 0.0002298498 -218.2767499446 0.0098795773 0.0003808535
0.3004179850 0.4073052122 0.0000000000 -0.0017988241 0.0002298498 -220.0095842435 0.0098795773 0.0003808535
0.2833536563 0.4189640927 0.0000000000 -0.0017988241 0.0002298498 -222.2079515564 0.0098795773 0.0003808535
0.2658221018 0.4299078307 0.0000000000 -0.0017988241 0.0002298498 -225.0649996347 0.0098795773 0.0003808535
0.2478532738 0.4401177292 0.0000000000 -0.0017988241 0.0002298498 -228.5977524693 0.0098795773 0.0003808535
0.2294778717 0.4495763445 0.0000000000 -0.0017988241 0.0002298498 -232.9127516474 0.0098795773 0.0003808535
0.2107272896 0.4582675169 0.0000000000 -0.0017988241 0.0002298498 -238.0567112119 0.0098795773 0.0003808535
0.1916335625 0.4661763976 0.0000000000 -0.0017988241 0.0002298498 -244.1011079995 0.0098795773 0.0003808535
0.1722293119 0.4732894744 0.0000000000 -0.0017988241 0.0002298498 -251.0893626892 0.0098795773 0.0003808535
0.1525476894 0.4795945948 0.0000000000 -0.0017988241 0.0002298498 -259.0564367686 0.0098795773 0.0003808535
0.1326223208 0.4850809865 0.0000000000 -0.0017988241 0.0002298498 -268.0036141769 0.0098795773 0.0003808535
0.1124872483 0.4897392762 0.0000000000 -0.0017988241 0.0002298498 -277.8963962327 0.0098795773 0.0003808535
0.0921768724 0.4935615052 0.0000000000 -0.0017988241 0.0002298498 -288.6493054568 0.0098795773 0.0003808535
0.0717258929 0.4965411434 0.0000000000 -0.0017988241 0.0002298498 -300.1197400022 0.0098795773 0.0003808535
0.0511692500 0.4986731000 0.0000000000 -0.0017988241 0.0002298498 -312.1006063797 0.0098795773 0.0003808535
0.0305420644 0.4999537327 0.0000000000 -0.0017988241 0.0002298498 -324.3191470907 0.0098795773 0.0003808535
0.0098795772 0.5003808535 0.0000000000 -0.0017988241 0.0002298498 -336.4391002455 0.0098795773 0.0003808535
-0.0107829099 0.4999537327 0.0000000000 -0.0017988241 0.0002298498 -348.0683212127 0.0098795773 0.0003808535
-0.0314100955 0.4986731000 0.0000000000 -0.0017988241 0.0002298498 -358.7706031682 0.0098795773 0.0003808535
-0.0519667384 0.4965411434 0.0000000000 -0.0017988241 0.0002298498 -368.0815016201 0.0098795773 0.0003808535
-0.0724177179 0.4935615052 0.0000000000 -0.0017988241 0.0002298498 -375.5266829620 0.0098795773 0.0003808535
-0.0927280939 0.4897392762 0.0000000000 -0.0017988241 0.0002298498 -380.6414783627 0.0098795773 0.0003808535
-0.1128631664 0.4850809865 0.0000000000 -0.0017988241 0.0002298498 -382.9900344595 0.0098795773 0.0003808535
-0.1327885349 0.4795945947 0.0000000000 -0.0017988241 0.0002298498 -382.1827232854 0.0098795773 0.0003808535
-0.1524701574 0.4732894743 0.0000000000 -0.0017988241 0.0002298498 -377.8907269423 0.0098795773 0.0003808535
-0.1718744081 0.4661763975 0.0000000000 -0.0017988241 0.0002298498 -369.8571410256 0.0098795773 0.0003808535
-0.1909681351 0.4582675168 0.0000000000 -0.0017988241 0.0002298498 -357.9043331351 0.0098795773 0.0003808535
-0.2097187172 0.4495763444 0.0000000000 -0.0017988241 0.0002298498 -341.9376544220 0.0098795773 0.0003808535
-0.2280941193 0.4401177291 0.0000000000 -0.0017988241 0.0002298498 -321.9458624468 0.0098795773 0.0003808535
-0.2460629473 0.4299078306 0.0000000000 -0.0017988241 0.0002298498 -297.9987751832 0.0098795773 0.0003808535
-0.2635945019 0.4189640926 0.0000000000 -0.0017988241 0.0002298498 -270.2427380232 0.0098795773 0.0003808535
-0.2806588305 0.4073052121 0.0000000000 -0.0017988241 0.0002298498 -238.8944716906 0.0098795773 0.0003808535
-0.2972267791 0.3949511081 0.0000000000 -0.0017988241 0.0002298498 -204.2338041087 0.0098795773 0.0003808535
-0.3132700417 0.3819228875 0.0000000000 -0.0017988241 0.0002298498 -166.5957020366 0.0098795773 0.0003808535
-0.3287612086 0.3682428088 0.0000000000 -0.0017988241 0.0002298498 -126.3619321709 0.0098795773 0.0003808535
-0.3579823781 0.3390216392 0.0000000000 -0.0017988241 0.0002298498 -39.8178604983 0.0098795773 0.0003808535
-0.3716624569 0.3235304723 0.0000000000 -0.0017988241 0.0002298498 5.5702729558 0.0098795773 0.0003808535
-0.3846906775 0.3074872097 0.0000000000 -0.0017988241 0.0002298498 51.7254646115 0.0098795773 0.0003808535
-0.3970447814 0.2909192611 0.0000000000 -0.0017988241 0.0002298498 98.1542521081 0.0098795773 0.0003808535
-0.4087036619 0.2738549325 0.0000000000 -0.0017988241 0.0002298498 144.3626010721 0.0098795773 0.0003808535
-0.4196473999 0.2563233779 0.0000000000 -0.0017988241 0.0002298498 189.8618977388 0.0098795773 0.0003808535
-0.4298572984 0.2383545499 0.0000000000 -0.0017988241 0.0002298498 234.1744005456 0.0098795773 0.0003808535
-0.4393159137 0.2199791478 0.0000000000 -0.0017988241 0.0002298498 276.8382024218 0.0098795773 0.0003808535
-0.4480070861 0.2012285657 0.0000000000 -0.0017988241 0.0002298498 317.4117570451 0.0098795773 0.0003808535
-0.4559159668 0.1821348386 0.0000000000 -0.0017988241 0.0002298498 355.4780121268 0.0098795773 0.0003808535
-0.4630290436 0.1627305880 0.0000000000 -0.0017988241 0.0002298498 390.6481778565 0.0098795773 0.0003808535
-0.4693341640 0.1430489655 0.0000000000 -0.0017988241 0.0002298498 422.5651445773 0.0098795773 0.0003808535
-0.4748205557 0.1231235969 0.0000000000 -0.0017988241 0.0002298498 450.9065534361 0.0098795773 0.0003808535
-0.4794788454 0.1029885244 0.0000000000 -0.0017988241 0.0002298498 475.3875177729 0.0098795773 0.0003808535
-0.4833010744 0.0826781485 0.0000000000 -0.0017988241 0.0002298498 495.7629906450 0.0098795773 0.0003808535
-0.4862807126 0.0622271690 0.0000000000 -0.0017988241 0.0002298498 511.8297739102 0.0098795773 0.0003808535
-0.4884126692 0.0416705261 0.0000000000 -0.0017988241 0.0002298498 523.4281655875 0.0098795773 0.0003808535
-0.4896933019 0.0210433405 0.0000000000 -0.0017988241 0.0002298498 530.4432438562 0.0098795773 0.0003808535
-0.4901204227 0.0003808533 0.0000000000 -0.0017988241 0.0002298498 532.8057874509 0.0098795773 0.0003808535
-0.4896933019 -0.0202816338 0.0000000000 -0.0017988241 0.0002298498 530.4928330339 0.0098795773 0.0003808535
-0.4884126692 -0.0409088194 0.0000000000 -0.0017988241 0.0002298498 523.5278702766 0.0098795773 0.0003808535
-0.4862807125 -0.0614654623 0.0000000000 -0.0017988241 0.0002298498 511.9806749815 0.0098795773 0.0003808535
-0.4833010743 -0.0819164418 0.0000000000 -0.0017988241 0.0002298498 495.9667798362 0.0098795773 0.0003808535
-0.4794788453 -0.1022268178 0.0000000000 -0.0017988241 0.0002298498 475.6465815792 0.0098795773 0.0003808535
-0.4748205556 -0.1223618903 0.0000000000 -0.0017988241 0.0002298498 451.2240827231 0.0098795773 0.0003808535
-0.4693341638 -0.1422872588 0.0000000000 -0.0017988241 0.0002298498 422.9452656350 0.0098795773 0.0003808535
-0.4630290435 -0.1619688813 0.0000000000 -0.0017988241 0.0002298498 391.0960966642 0.0098795773 0.0003808535
-0.4559159666 -0.1813731320 0.0000000000 -0.0017988241 0.0002298498 356.0001579661 0.0098795773 0.0003808535
-0.4480070859 -0.2004668590 0.0000000000 -0.0017988241 0.0002298498 318.0159044268 0.0098795773 0.0003808535
-0.4393159135 -0.2192174411 0.0000000000 -0.0017988241 0.0002298498 277.5335423966 0.0098795773 0.0003808535
-0.4298572982 -0.2375928432 0.0000000000 -0.0017988241 0.0002298498 234.9715256326 0.0098795773 0.0003808535
-0.4196473997 -0.2555616712 0.0000000000 -0.0017988241 0.0002298498 190.7726618892 0.0098795773 0.0003808535
-0.4087036617 -0.2730932257 0.0000000000 -0.0017988241 0.0002298498 145.3998211427 0.0098795773 0.0003808535
-0.3970447812 -0.2901575544 0.0000000000 -0.0017988241 0.0002298498 99.3312337971 0.0098795773 0.0003808535
-0.3846906772 -0.3067255030 0.0000000000 -0.0017988241 0.0002298498 53.0553649555 0.0098795773 0.0003808535
-0.3716624566 -0.3227687656 0.0000000000 -0.0017988241 0.0002298498 7.0653496614 0.0098795773 0.0003808535
-0.3579823778 -0.3382599325 0.0000000000 -0.0017988241 0.0002298498 -38.1470250139 0.0098795773 0.0003808535
-0.3287612083 -0.3674811020 0.0000000000 -0.0017988241 0.0002298498 -124.3177920827 0.0098795773 0.0003808535
-0.3132700414 -0.3811611807 0.0000000000 -0.0017988241 0.0002298498 -164.3599768120 0.0098795773 0.0003808535
-0.2972267788 -0.3941894013 0.0000000000 -0.0017988241 0.0002298498 -201.8072915334 0.0098795773 0.0003808535
-0.2806588302 -0.4065435053 0.0000000000 -0.0017988241 0.0002298498 -236.2807512166 0.0098795773 0.0003808535
-0.2635945015 -0.4182023857 0.0000000000 -0.0017988241 0.0002298498 -267.4477622519 0.0098795773 0.0003808535
-0.2460629470 -0.4291461238 0.0000000000 -0.0017988241 0.0002298498 -295.0304314699 0.0098795773 0.0003808535
-0.2280941190 -0.4393560222 0.0000000000 -0.0017988241 0.0002298498 -318.8135940178 0.0098795773 0.0003808535
-0.2097187168 -0.4488146375 0.0000000000 -0.0017988241 0.0002298498 -338.6521930233 0.0098795773 0.0003808535
-0.1909681347 -0.4575058099 0.0000000000 -0.0017988241 0.0002298498 -354.4775519908 0.0098795773 0.0003808535
-0.1718744077 -0.4654146906 0.0000000000 -0.0017988241 0.0002298498 -366.3020000056 0.0098795773 0.0003808535
-0.1524701570 -0.4725277674 0.0000000000 -0.0017988241 0.0002298498 -374.2212584739 0.0098795773 0.0003808535
-0.1327885345 -0.4788328878 0.0000000000 -0.0017988241 0.0002298498 -378.4139990363 0.0098795773 0.0003808535
-0.1128631660 -0.4843192795 0.0000000000 -0.0017988241 0.0002298498 -379.1380586169 0.0098795773 0.0003808535
-0.0927280935 -0.4889775692 0.0000000000 -0.0017988241 0.0002298498 -376.7229684533 0.0098795773 0.0003808535
-0.0724177175 -0.4927997982 0.0000000000 -0.0017988241 0.0002298498 -371.5587247486 0.0098795773 0.0003808535
-0.0519667380 -0.4957794364 0.0000000000 -0.0017988241 0.0002298498 -364.0810876166 0.0098795773 0.0003808535
-0.0314100951 -0.4979113930 0.0000000000 -0.0017988241 0.0002298498 -354.7541001222 0.0098795773 0.0003808535
-0.0107829095 -0.4991920257 0.0000000000 -0.0017988241 0.0002298498 -344.0509152530 0.0098795773 0.0003808535
0.0098795776 -0.4996191465 0.0000000000 -0.0017988241 0.0002298498 -332.4343152023 0.0098795773 0.0003808535
0.0305420648 -0.4991920257 0.0000000000 -0.0017988241 0.0002298498 -320.3384572483 0.0098795773 0.0003808535
0.0511692504 -0.4979113929 0.0000000000 -0.0017988241 0.0002298498 -308.1532830328 0.0098795773 0.0003808535
0.0717258933 -0.4957794363 0.0000000000 -0.0017988241 0.0002298498 -296.2127818589 0.0098795773 0.0003808535
0.0921768728 -0.4927997981 0.0000000000 -0.0017988241 0.0002298498 -284.7877600822 0.0098795773 0.0003808535
0.1124872487 -0.4889775691 0.0000000000 -0.0017988241 0.0002298498 -274.0834363701 0.0098795773 0.0003808535
0.1326223212 -0.4843192794 0.0000000000 -0.0017988241 0.0002298498 -264.2413732159 0.0098795773 0.0003808535
0.1525476898 -0.4788328876 0.0000000000 -0.0017988241 0.0002298498 -255.3455460990 0.0098795773 0.0003808535
0.1722293122 -0.4725277672 0.0000000000 -0.0017988241 0.0002298498 -247.4305740557 0.0098795773 0.0003808535
0.1916335629 -0.4654146904 0.0000000000 -0.0017988241 0.0002298498 -240.4927329269 0.0098795773 0.0003808535
0.2107272900 -0.4575058097 0.0000000000 -0.0017988241 0.0002298498 -234.4986064427 0.0098795773 0.0003808535
0.2294778721 -0.4488146373 0.0000000000 -0.0017988241 0.0002298498 -229.3984104898 0.0098795773 0.0003808535
0.2478532741 -0.4393560219 0.0000000000 -0.0017988241 0.0002298498 -225.1260287736 0.0098795773 0.0003808535
0.2658221022 -0.4291461235 0.0000000000 -0.0017988241 0.0002298498 -221.6199893269 0.0098795773 0.0003808535
0.2833536567 -0.4182023854 0.0000000000 -0.0017988241 0.0002298498 -218.7908069578 0.0098795773 0.0003808535
0.3004179853 -0.4065435049 0.0000000000 -0.0017988241 0.0002298498 -216.5936935470 0.0098795773 0.0003808535
0.3169859339 -0.3941894010 0.0000000000 -0.0017988241 0.0002298498 -214.8724092170 0.0098795773 0.0003808535
0.3330291965 -0.3811611803 0.0000000000 -0.0017988241 0.0002298498 -213.6917340514 0.0098795773 0.0003808535
0.3485203634 -0.3674811016 0.0000000000 -0.0017988241 0.0002298498 -212.6310166443 0.0098795773 0.0003808535
0.5584288514 -0.5102256909 0.0000000000 0.0054365051 -0.0828411486 -214.6288330339 0.0086399472 -0.0000961380
0.5771519571 -0.4893091793 0.0000000000 -0.0125280062 -0.0890227776 -215.5248615329 0.0086731644 -0.0000936213
0.5950796447 -0.4677060714 0.0000000000 -0.0250654788 -0.0953263863 -216.3730463366 0.0087060325 -0.0000887204
0.6121867104 -0.4454466045 0.0000000000 -0.0338379073 -0.1012853503 -217.1319591281 0.0087383752 -0.0000814658
0.6284491001 -0.4225619439 0.0000000000 -0.0402869310 -0.1064937615 -217.7670202798 0.0087700191 -0.0000719008
0.6438439442 -0.3990841383 0.0000000000 -0.0455648593 -0.1106153113 -218.2502935156 0.0088007945 -0.0000600813
0.6583495897 -0.3750460750 0.0000000000 -0.0505096064 -0.1133887160 -218.5601088175 0.0088305366 -0.0000460754
0.6719456315 -0.3504814337 0.0000000000 -0.0556596655 -0.1146278569 -218.6815455154 0.0088590862 -0.0000299629
0.6846129415 -0.3254246390 0.0000000000 -0.0612972169 -0.1142169679 -218.6075087967 0.0088862904 -0.0000118351
0.6963336959 -0.2999108120 0.0000000000 -0.0675043431 -0.1121024440 -218.3400924906 0.0089120038 0.0000082058
0.7070914005 -0.2739757204 0.0000000000 -0.0742195265 -0.1082832271 -217.8917953212 0.0089360889 0.0000300474
0.7168709147 -0.2476557285 0.0000000000 -0.0812866104 -0.1028014452 -217.2861697181 0.0089584169 0.0000535676
0.7256584729 -0.2209877452 0.0000000000 -0.0884933691 -0.0957343885 -216.5575940979 0.0089788684 0.0000786352
0.7334417042 -0.1940091728 0.0000000000 -0.0956001784 -0.0871882634 -215.7500226611 0.0089973343 0.0001051107
0.7402096501 -0.1667578531 0.0000000000 -0.1023608065 -0.0772936340 -214.9147314450 0.0090137159 0.0001328470
0.7459527806 -0.1392720146 0.0000000000 -0.1085375764 -0.0662021183 -214.1072161868 0.0090279256 0.0001616904
0.7506630073 -0.1115902182 0.0000000000 -0.1139127259 -0.0540837772 -213.3834978352 0.0090398876 0.0001914811
0.7543336953 -0.0837513026 0.0000000000 -0.1182971830 -0.0411246844 -212.7961569936 0.0090495378 0.0002220542
0.7569596726 -0.0557943292 0.0000000000 -0.1215374309 -0.0275243104 -212.3904514603 0.0090568247 0.0002532407
0.7585372379 -0.0277585271 0.0000000000 -0.1235207601 -0.0134925363 -212.2008706949 0.0090617093 0.0002848683
0.7590641653 0.0003167626 0.0000000000 -0.1241789857 0.0007537309 -212.2484461316 0.0090641653 0.0003167623
0.7585397080 0.0283921425 0.0000000000 -0.1234906218 0.0149942542 -212.5390685017 0.0090641794 0.0003487465
0.7569645993 0.0564282147 0.0000000000 -0.1214814836 0.0290093236 -213.0629694490 0.0090617514 0.0003806442
0.7543410514 0.0843856367 0.0000000000 -0.1182237138 0.0425835945 -213.7954152516 0.0090568940 0.0004122794
0.7506727526 0.1122251769 0.0000000000 -0.1138332528 0.0555097301 -214.6985455541 0.0090496330 0.0004434771
0.7459648616 0.1399077704 0.0000000000 -0.1084657938 0.0675917026 -215.7241825664 0.0090400067 0.0004740648
0.7402240005 0.1673945741 0.0000000000 -0.1023112330 0.0786476760 -216.8173466600 0.0090280664 0.0005038734
0.7334582451 0.1946470217 0.0000000000 -0.0955865246 0.0885124988 -217.9201520383 0.0090138755 0.0005327377
0.7256771137 0.2216268786 0.0000000000 -0.0885266233 0.0970399780 -218.9757264870 0.0089975094 0.0005604976
0.7168915531 0.2482962957 0.0000000000 -0.0813728287 0.1041052547 -219.9318040824 0.0089790554 0.0005869990
0.7071139231 0.2746178630 0.0000000000 -0.0743573249 0.1096077226 -220.7436802877 0.0089586117 0.0006120945
0.6963579791 0.3005546626 0.0000000000 -0.0676821496 0.1134749579 -221.3762977304 0.0089362873 0.0006356442
0.6846388520 0.3260703209 0.0000000000 -0.0614904697 0.1156680295 -221.8053497948 0.0089122012 0.0006575164
0.6719730270 0.3511290599 0.0000000000 -0.0558283629 0.1161883012 -222.0174401808 0.0088864819 0.0006775885
0.6583783197 0.3756957478 0.0000000000 -0.0505969473 0.1150854458 -222.0094923631 0.0088592669 0.0006957477
0.6438738508 0.3997359487 0.0000000000 -0.0454980924 0.1124659152 -221.7877225540 0.0088307015 0.0007118912
0.6284800191 0.4232159709 0.0000000000 -0.0399816663 0.1085006553 -221.3665405652 0.0088009384 0.0007259272
0.6122184717 0.4461029147 0.0000000000 -0.0332065088 0.1034306296 -220.7677288655 0.0087701369 0.0007377755
0.5951120738 0.4683647188 0.0000000000 -0.0240283931 0.0975690242 -220.0201630665 0.0087384620 0.0007473673
0.5771848757 0.4899702049 0.0000000000 -0.0110244933 0.0913000076 -219.1601135876 0.0087060834 0.0007546464
0.5584620785 0.5108891223 0.0000000000 0.0074412767 0.0850752079 -218.2283621177 0.0086731747 0.0007595689
0.5165641307 0.5525550450 0.0000000000 0.0721409661 0.0745889729 -216.3090983259 0.0086029520 0.0007621120
0.4932904489 0.5730722273 0.0000000000 0.1242498826 0.0720662022 -215.4688589936 0.0085660206 0.0007591760
0.4691888956 0.5926086924 0.0000000000 0.1907820883 0.0727387678 -214.8572292479 0.0085293611 0.0007533103
0.4443008264 0.6111310867 0.0000000000 0.2719329579 0.0773938689 -214.5567702827 0.0084932149 0.0007445487
0.4186689386 0.6286078032 0.0000000000 0.3663199815 0.0865606013 -214.6403986468 0.0084578200 0.0007329444
0.3923371967 0.6450090361 0.0000000000 0.4708119573 0.1003508749 -215.1676907430 0.0084234100 0.0007185703
0.3653507565 0.6603068311 0.0000000000 0.5807550669 0.1183681030 -216.1694017305 0.0083902119 0.0007015176
0.3377558866 0.6744751327 0.0000000000 0.6906125155 0.1397338699 -217.6190499761 0.0083584450 0.0006818962
0.3095998879 0.6874898284 0.0000000000 0.7948537817 0.1632338804 -219.4112603745 0.0083283195 0.0006598334
0.2809310126 0.6993287892 0.0000000000 0.8888253811 0.1875385276 -221.3697219492 0.0083000348 0.0006354732
0.2517983799 0.7099719070 0.0000000000 0.9693591767 0.2114323313 -223.2839402449 0.0082737781 0.0006089757
0.2222518915 0.7194011278 0.0000000000 1.0349935285 0.2339911009 -224.9517693677 0.0082497234 0.0005805159
0.1923421455 0.7276004820 0.0000000000 1.0858255496 0.2546696508 -226.2066672731 0.0082280302 0.0005502825
0.1621203488 0.7345561109 0.0000000000 1.1231159104 0.2732963363 -226.9245124802 0.0082088423 0.0005184769
0.1316382293 0.7402562891 0.0000000000 1.1488017141 0.2899984088 -227.0159680150 0.0081922867 0.0004853115
0.1009479463 0.7446914437 0.0000000000 1.1650478231 0.3050941478 -226.4124655096 0.0081784729 0.0004510089
0.0701020012 0.7478541696 0.0000000000 1.1739129654 0.3189847289 -225.0518640465 0.0081674922 0.0004157999
0.0391531471 0.7497392411 0.0000000000 1.1771524189 0.3320674303 -222.8674374764 0.0081594165 0.0003799223
0.0081542982 0.7503436193 0.0000000000 1.1761404534 0.3446788454 -219.7818460062 0.0081542983 0.0003436193
-0.0228415607 0.7496664566 0.0000000000 1.1718773175 0.3570667153 -215.7061268867 0.0081521701 0.0003071378
-0.0537814654 0.7477090962 0.0000000000 1.1650436593 0.3693835470 -210.5426238548 0.0081530439 0.0002707265
-0.0846125623 0.7444750694 0.0000000000 1.1560728317 0.3816938272 -204.1902927078 0.0081569113 0.0002346346
-0.1152821995 0.7399700876 0.0000000000 1.1452220832 0.3939878400 -196.5508915391 0.0081637434 0.0001991101
-0.1457380159 0.7342020316 0.0000000000 1.1326330308 0.4061972690 -187.5349533629 0.0081734909 0.0001643977
-0.1759280311 0.7271809368 0.0000000000 1.1183783899 0.4182098663 -177.0669027698 0.0081860845 0.0001307374
-0.2058007335 0.7189189746 0.0000000000 1.1024956617 0.4298820244 -165.0890610020 0.0082014349 0.0000983628
-0.2353051682 0.7094304307 0.0000000000 1.0850100904 0.4410490355 -151.5645303515 0.0082194339 0.0000674995
-0.2643910234 0.6987316793 0.0000000000 1.0659495235 0.4515332839 -136.4790716069 0.0082399547 0.0000383634
-0.2930087157 0.6868411539 0.0000000000 1.0453535093 0.4611507765 -119.8421271014 0.0082628529 0.0000111589
-0.3211094745 0.6737793146 0.0000000000 1.0232784505 0.4697164066 -101.6871362410 0.0082879673 -0.0000139217
-0.3486454240 0.6595686125 0.0000000000 0.9998001316 0.4770482745 -82.0712680928 0.0083151210 -0.0000367008
-0.3755696643 0.6442334499 0.0000000000 0.9750145217 0.4829712983 -61.0746719029 0.0083441227 -0.0000570158
-0.4018363510 0.6278001379 0.0000000000 0.9490374501 0.4873202749 -38.7993274148 0.0083747677 -0.0000747207
-0.4274007718 0.6102968505 0.0000000000 0.9220035453 0.4899424907 -15.3675634990 0.0084068399 -0.0000896874
-0.4522194222 0.5917535757 0.0000000000 0.8940646870 0.4906999442 9.0796952989 0.0084401125 -0.0001018062
-0.4762500784 0.5722020638 0.0000000000 0.8653881376 0.4894712183 34.3849007883 0.0084743502 -0.0001109872
-0.4994518686 0.5516757724 0.0000000000 0.8361544604 0.4861530240 60.3760228869 0.0085093103 -0.0001171604
-0.5432125303 0.5078408696 0.0000000000 0.7767911010 0.4729328255 113.6691705192 0.0085804028 -0.0001203089
-0.5636970212 0.4846071782 0.0000000000 0.7470687418 0.4629245218 140.5755070335 0.0086160301 -0.0001172500
-0.5832040088 0.4605484187 0.0000000000 0.7175992281 0.4506151923 167.3811872833 0.0086513734 -0.0001111157
-0.6017003573 0.4357056687 0.0000000000 0.6885953633 0.4360049805 193.8769031766 0.0086861808 -0.0001019427
-0.6191546547 0.4101213289 0.0000000000 0.6602694898 0.4191154072 219.8530217532 0.0087202042 -0.0000897895
-0.6355372654 0.3838390512 0.0000000000 0.6328312967 0.3999890536 245.1018614104 0.0087532005 -0.0000747354
-0.6508203796 0.3569036642 0.0000000000 0.6064857204 0.3786890449 269.4198806501 0.0087849339 -0.0000568803
-0.6649780590 0.3293610973 0.0000000000 0.5814309496 0.3552983476 292.6097642898 0.0088151775 -0.0000363441
-0.6779862805 0.3012583027 0.0000000000 0.5578565488 0.3299188953 314.4823952510 0.0088437146 -0.0000132655
-0.6898229753 0.2726431761 0.0000000000 0.5359417096 0.3026705572 334.8587021064 0.0088703408 0.0000121984
-0.7004680663 0.2435644753 0.0000000000 0.5158536408 0.2736899629 353.5713737886 0.0088948651 0.0000398737
-0.7099035004 0.2140717384 0.0000000000 0.4977461080 0.2431291968 370.4664339869 0.0089171115 0.0000695705
-0.7181132792 0.1842151996 0.0000000000 0.4817581308 0.2111543722 385.4046691412 0.0089369203 0.0001010845
-0.7250834847 0.1540457049 0.0000000000 0.4680128367 0.1779440885 398.2629045179 0.0089541494 0.0001341986
-0.7308023028 0.1236146262 0.0000000000 0.4566164518 0.1436877752 408.9351206735 0.0089686748 0.0001686838
-0.7352600425 0.0929737747 0.0000000000 0.4476573945 0.1085839350 417.3333975789 0.0089803924 0.0002043016
-0.7384491519 0.0621753140 0.0000000000 0.4412054475 0.0728383178 423.3886709817 0.0089892179 0.0002408052
-0.7403642307 0.0312716720 0.0000000000 0.4373110151 0.0366620698 427.0512931962 0.0089950881 0.0002779416
-0.7410020389 0.0003154528 0.0000000000 0.4360045220 0.0002698994 428.2914073947 0.0089979611 0.0003154531
-0.7403615025 -0.0306406515 0.0000000000 0.4372960232 -0.0361217312 427.0991606901 0.0089978163 0.0003530795
-0.7384437146 -0.0615439497 0.0000000000 0.4411750530 -0.0722963912 423.4847691743 0.0089946551 0.0003905597
-0.7352519340 -0.0923418400 0.0000000000 0.4476107379 -0.1080394566 417.4784433496 0.0089885007 0.0004276337
-0.7307915799 -0.1229818984 0.0000000000 0.4565521886 -0.1431398999 409.1301766554 0.0089793976 0.0004640446
-0.7250702221 -0.1534119668 0.0000000000 0.4679291168 -0.1773921098 398.5093726311 0.0089674118 0.0004995401